INSANE! Membrane UpperLeaflet>loPI:POPI:DPPI:PYPI:ERGO=180.0:5.0:3.0:2.0:10.0 LowerLeaflet>PSPI:POPI:POPS:YOPS:POPE:YOPE:POPC:YOPC:ERGO=6.0:14.0:21.0:9.0:9.0:21.0:12.0:48.0:60.0
49606
    1loPI    C1    1  13.493   0.124   9.414  0.0280 -0.2734 -0.0520
    1loPI    C2    2  13.424   0.111   9.808  0.0385 -0.0461 -0.0416
    1loPI    C3    3  13.755   0.288   9.668 -0.0371  0.0030 -0.1601
    1loPI   PO4    4  13.321  -0.102   9.332 -0.1222 -0.0053 -0.2954
    1loPI   GL1    5  13.343  -0.340   8.929 -0.2694 -0.0470 -0.2075
    1loPI   GL2    6  13.037  -0.557   9.094 -0.1196  0.0685 -0.0285
    1loPI   C1A    7  13.311  -0.238   8.486  0.0755 -0.1494  0.1367
    1loPI   C2A    8  13.410  -0.309   8.088  0.1742 -0.1741  0.0172
    1loPI   C3A    9  13.175  -0.452   7.627  0.4436 -0.1685  0.1464
    1loPI   C4A   10  13.223  -0.613   7.255  0.2320  0.1694 -0.4005
    1loPI   C5A   11  13.446  -0.948   7.198 -0.0767  0.1578 -0.4946
    1loPI   C6A   12  13.384  -1.249   7.246 -0.1691  0.0847  0.1968
    1loPI   C1B   13  13.017  -0.667   8.645  0.3705 -0.0186  0.1645
    1loPI   C2B   14  12.922  -0.530   8.201 -0.3800  0.2133  0.2128
    1loPI   C3B   15  12.816  -0.682   7.877  0.1798 -0.2334  0.0590
    1loPI   C4B   16  12.636  -0.565   7.443  0.1300  0.3992 -0.4678
    2loPI    C1   17  18.621   0.874   9.360 -0.1381 -0.0231  0.1571
    2loPI    C2   18  18.959   0.748   9.533 -0.0979 -0.0319  0.0723
    2loPI    C3   19  18.609   0.586   9.638 -0.0596 -0.1301  0.0509
    2loPI   PO4   20  18.664   0.934   9.179  0.0560  0.0236 -0.1045
    2loPI   GL1   21  18.571   0.926   8.798  0.1002  0.3931 -0.2405
    2loPI   GL2   22  18.342   0.770   8.902 -0.3212 -0.2297 -0.2094
    2loPI   C1A   23  18.692   0.887   8.417 -0.1801 -0.0281  0.0200
    2loPI   C2A   24  18.626   1.021   7.922  0.0542 -0.0511 -0.1382
    2loPI   C3A   25  18.827   1.054   7.466  0.0748 -0.0665 -0.2490
    2loPI   C4A   26  18.905   1.140   7.005 -0.1769 -0.3650 -0.3017
    2loPI   C5A   27  19.146   1.103   6.652 -0.0683 -0.0286  0.0922
    2loPI   C6A   28  19.233   0.979   6.228  0.0357  0.0427  0.0441
    2loPI   C1B   29  18.213   0.764   8.457  0.5521 -0.2334  0.1638
    2loPI   C2B   30  18.245   0.687   8.043 -0.3466 -0.2884  0.1093
    2loPI   C3B   31  18.185   0.491   7.646 -0.3047 -0.0314 -0.0792
    2loPI   C4B   32  18.513   0.275   7.325  0.2995 -0.2544 -0.3389
    3loPI    C1   33   5.153  11.659   9.237  0.0783 -0.1010  0.1568
    3loPI    C2   34   5.134  11.362   9.504 -0.0550 -0.0521  0.2021
    3loPI    C3   35   5.232  11.731   9.622  0.0069 -0.0559  0.1630
    3loPI   PO4   36   5.322  11.620   9.075  0.0663 -0.5717  0.2652
    3loPI   GL1   37   5.393  11.620   8.650 -0.1469 -0.1526 -0.3035
    3loPI   GL2   38   5.620  11.857   8.796 -0.1149  0.2294 -0.4253
    3loPI   C1A   39   5.573  11.648   8.313 -0.1952  0.3667 -0.2790
    3loPI   C2A   40   5.688  11.852   8.080  0.0439  0.0650  0.2981
    3loPI   C3A   41   5.674  11.898   7.598  0.0415  0.0799 -0.0945
    3loPI   C4A   42   5.719  12.105   7.203  0.1970  0.2237  0.0472
    3loPI   C5A   43   5.629  12.254   6.778  0.3215 -0.0201 -0.2215
    3loPI   C6A   44   5.570  12.374   6.338  0.2160 -0.0094  0.0418
    3loPI   C1B   45   5.639  12.125   8.458 -0.1626 -0.1396  0.2201
    3loPI   C2B   46   5.956  12.260   8.101 -0.0513  0.2724 -0.0063
    3loPI   C3B   47   6.032  12.305   7.581  0.3280 -0.1258  0.2861
    3loPI   C4B   48   5.914  12.600   7.161  0.0714  0.3010 -0.1564
    4loPI    C1   49  14.551  19.071   9.732  0.2122  0.2615 -0.0602
    4loPI    C2   50  14.223  19.155   9.944  0.0088 -0.1479 -0.2008
    4loPI    C3   51  14.585  19.201  10.109 -0.1253  0.0441  0.0495
    4loPI   PO4   52  14.440  19.061   9.502  0.0056 -0.1763  0.4104
    4loPI   GL1   53  14.620  19.031   9.071  0.2303 -0.0732 -0.1587
    4loPI   GL2   54  14.944  19.089   9.023 -0.1657  0.1749 -0.1282
    4loPI   C1A   55  14.365  19.216   8.719  0.0162 -0.2161 -0.2097
    4loPI   C2A   56  14.464  19.102   8.301 -0.0650  0.0700 -0.2296
    4loPI   C3A   57  14.430  19.370   7.933 -0.0223 -0.1352 -0.2472
    4loPI   C4A   58  14.607  19.656   7.673  0.0688 -0.1546  0.4434
    4loPI   C5A   59  14.751  19.903   7.236  0.3169 -0.1149  0.4523
    4loPI   C6A   60  14.764  19.845   6.760 -0.3225  0.2652 -0.2169
    4loPI   C1B   61  14.868  18.996   8.575  0.1082  0.1885 -0.7392
    4loPI   C2B   62  14.939  18.867   8.210 -0.0748  0.1853 -0.4196
    4loPI   C3B   63  14.768  19.019   7.839  0.0467 -0.2430 -0.0884
    4loPI   C4B   64  14.784  19.176   7.419 -0.1843  0.2796 -0.0269
    5loPI    C1   65   7.831   5.709  10.296 -0.0195  0.0074  0.0760
    5loPI    C2   66   8.230   5.722  10.326  0.0554 -0.5225 -0.4892
    5loPI    C3   67   8.021   5.459  10.544 -0.0314 -0.0256  0.0518
    5loPI   PO4   68   7.774   5.647  10.015 -0.2118  0.1764  0.0749
    5loPI   GL1   69   7.947   5.628   9.550  0.2144  0.0306 -0.0934
    5loPI   GL2   70   7.611   5.646   9.453 -0.1463  0.1295 -0.2395
    5loPI   C1A   71   8.157   5.417   9.090 -0.1378  0.1620  0.0911
    5loPI   C2A   72   8.246   5.543   8.659 -0.1123 -0.1394  0.1729
    5loPI   C3A   73   8.239   5.640   8.263 -0.1407  0.0079 -0.1118
    5loPI   C4A   74   8.095   5.644   7.824  0.0685  0.1250 -0.2408
    5loPI   C5A   75   8.191   5.560   7.455 -0.0343 -0.0513 -0.2345
    5loPI   C6A   76   8.416   5.612   7.025  0.1323 -0.1772 -0.0562
    5loPI   C1B   77   7.469   5.644   8.949 -0.0605  0.0766 -0.1374
    5loPI   C2B   78   7.400   5.828   8.579  0.1199  0.4999 -0.0901
    5loPI   C3B   79   7.195   5.947   8.213 -0.0269  0.0148 -0.3671
    5loPI   C4B   80   7.123   5.959   7.802  0.0629 -0.0691 -0.0154
    6loPI    C1   81  12.912  19.240   9.548  0.0878 -0.0031 -0.0817
    6loPI    C2   82  13.040  18.954   9.796 -0.1399 -0.0716 -0.0406
    6loPI    C3   83  13.018  19.333   9.922 -0.0667 -0.0746 -0.0191
    6loPI   PO4   84  12.628  19.174   9.405 -0.1103  0.2982 -0.1793
    6loPI   GL1   85  12.540  19.186   9.000 -0.1389  0.4005 -0.0293
    6loPI   GL2   86  12.335  19.329   8.999  0.2800 -0.2977  0.2221
    6loPI   C1A   87  12.616  19.178   8.590 -0.0401 -0.1630 -0.1688
    6loPI   C2A   88  12.468  19.423   8.189  0.3649 -0.2772 -0.0739
    6loPI   C3A   89  12.445  19.876   7.868 -0.0680  0.1595 -0.0435
    6loPI   C4A   90  12.311  20.251   7.587  0.2466  0.3123 -0.1382
    6loPI   C5A   91  12.263  20.189   7.151  0.1547 -0.4067  0.0699
    6loPI   C6A   92  12.166  20.071   6.803  0.2274 -0.0548  0.1355
    6loPI   C1B   93  12.307  19.602   8.658 -0.1204 -0.0334 -0.0773
    6loPI   C2B   94  12.362  19.968   8.383 -0.0843 -0.2032 -0.1652
    6loPI   C3B   95  12.358  20.334   8.165 -0.0615 -0.0459  0.0334
    6loPI   C4B   96  12.093  20.660   7.859  0.0955  0.1125 -0.1982
    7loPI    C1   97   8.607   5.095  10.037 -0.0446 -0.0732 -0.0789
    7loPI    C2   98   8.973   5.127  10.194 -0.1446  0.0457  0.1349
    7loPI    C3   99   8.699   4.897  10.373 -0.1547 -0.1001 -0.0643
    7loPI   PO4  100   8.639   5.131   9.793 -0.0670 -0.1310  0.3387
    7loPI   GL1  101   8.946   5.036   9.492 -0.0971  0.0921 -0.3478
    7loPI   GL2  102   9.181   4.900   9.796 -0.0141  0.1820 -0.1908
    7loPI   C1A  103   8.749   4.755   9.159  0.1646 -0.0137  0.0386
    7loPI   C2A  104   8.772   4.674   8.688 -0.0195 -0.0603 -0.1255
    7loPI   C3A  105   8.560   4.581   8.405  0.0228 -0.1331  0.0651
    7loPI   C4A  106   8.353   4.706   8.072 -0.0362 -0.1002  0.1201
    7loPI   C5A  107   8.555   4.758   7.622  0.0143 -0.0650  0.0473
    7loPI   C6A  108   8.659   4.534   7.184 -0.1470 -0.0718 -0.0728
    7loPI   C1B  109   9.236   4.675   9.382  0.1042  0.3303 -0.5001
    7loPI   C2B  110   9.220   4.611   8.889  0.1683  0.0360 -0.1152
    7loPI   C3B  111   9.323   4.602   8.521 -0.3116  0.0890 -0.2530
    7loPI   C4B  112   9.068   4.476   8.213 -0.0882  0.0749 -0.2487
    8loPI    C1  113   5.398  10.978   9.927  0.0194  0.1953 -0.2273
    8loPI    C2  114   5.344  11.372   9.971 -0.0896  0.1582 -0.0135
    8loPI    C3  115   5.131  11.116  10.192  0.2313 -0.0144  0.1027
    8loPI   PO4  116   5.546  10.971   9.659  0.2091  0.0828 -0.1908
    8loPI   GL1  117   5.343  10.792   9.246  0.0428 -0.0189  0.2038
    8loPI   GL2  118   5.474  11.132   9.194 -0.2603  0.1929 -0.3671
    8loPI   C1A  119   5.450  10.446   8.922  0.0827  0.1301 -0.0570
    8loPI   C2A  120   5.417  10.402   8.464  0.4005 -0.0563 -0.0495
    8loPI   C3A  121   5.543  10.202   8.099 -0.0253 -0.0399 -0.0164
    8loPI   C4A  122   5.838  10.141   7.740  0.1338 -0.1248 -0.3132
    8loPI   C5A  123   6.088   9.854   7.501 -0.0449 -0.1316  0.1762
    8loPI   C6A  124   6.542   9.742   7.374  0.3873  0.0421  0.1888
    8loPI   C1B  125   5.551  11.014   8.772  0.1154 -0.0720 -0.0383
    8loPI   C2B  126   5.608  10.973   8.337  0.1335  0.0655  0.2687
    8loPI   C3B  127   5.521  10.726   8.048  0.0836  0.1339  0.4037
    8loPI   C4B  128   5.325  10.904   7.791 -0.1001  0.1674  0.1590
    9loPI    C1  129  19.565  10.998   9.647  0.0340 -0.1952 -0.0391
    9loPI    C2  130  19.555  10.740   9.953  0.2101  0.0772  0.2010
    9loPI    C3  131  19.546  11.134  10.023 -0.1429  0.1405 -0.1656
    9loPI   PO4  132  19.361  10.772   9.441  0.0159  0.0482 -0.0769
    9loPI   GL1  133  19.417  10.428   9.174  0.0706  0.0109 -0.0707
    9loPI   GL2  134  19.219  10.221   9.351  0.0663  0.0718  0.0613
    9loPI   C1A  135  19.342  10.349   8.697  0.1116 -0.1460  0.1095
    9loPI   C2A  136  19.152  10.480   8.336 -0.1652 -0.0892  0.1038
    9loPI   C3A  137  19.209  10.619   7.922 -0.4677 -0.0137 -0.0230
    9loPI   C4A  138  19.217  10.682   7.497  0.0469  0.1194  0.0532
    9loPI   C5A  139  19.285  10.867   7.037 -0.1515 -0.1300 -0.0035
    9loPI   C6A  140  19.368  10.929   6.594 -0.1785 -0.0441 -0.0750
    9loPI   C1B  141  18.880  10.267   9.042 -0.0028 -0.1999  0.0928
    9loPI   C2B  142  18.588  10.399   8.706  0.0864 -0.4468  0.1946
    9loPI   C3B  143  18.253  10.498   8.440 -0.0098  0.2431  0.0352
    9loPI   C4B  144  18.049  10.774   8.173 -0.3194 -0.0451  0.0260
   10loPI    C1  145  16.979   6.927   9.647  0.1685  0.0895  0.0204
   10loPI    C2  146  17.022   7.264   9.858 -0.4180  0.1501  0.0597
   10loPI    C3  147  17.095   6.909  10.029 -0.2465  0.2319  0.1585
   10loPI   PO4  148  16.738   6.818   9.509 -0.3409  0.0517 -0.0573
   10loPI   GL1  149  16.743   6.745   9.146 -0.0176 -0.1661 -0.4217
   10loPI   GL2  150  16.870   6.404   9.075 -0.1399 -0.0937  0.0142
   10loPI   C1A  151  16.706   6.860   8.682 -0.1302 -0.0986  0.0562
   10loPI   C2A  152  16.640   6.876   8.193 -0.0410  0.1092  0.0221
   10loPI   C3A  153  16.527   6.788   7.718  0.0679 -0.0895 -0.1398
   10loPI   C4A  154  16.513   6.416   7.554  0.0931 -0.0326  0.1256
   10loPI   C5A  155  16.402   6.104   7.262  0.0547  0.7670 -0.0013
   10loPI   C6A  156  16.668   6.008   6.966  0.0534 -0.0647 -0.1414
   10loPI   C1B  157  17.154   6.301   8.678 -0.0147  0.1371  0.1677
   10loPI   C2B  158  17.406   6.403   8.247 -0.0039  0.2210 -0.2850
   10loPI   C3B  159  17.454   6.577   7.900  0.1740  0.0873  0.0472
   10loPI   C4B  160  17.507   6.810   7.648  0.1194  0.0670  0.0494
   11loPI    C1  161  15.897  11.216   9.456  0.4435 -0.0376  0.0632
   11loPI    C2  162  15.875  10.978   9.776 -0.1835 -0.1166 -0.0265
   11loPI    C3  163  15.814  10.828   9.410  0.2128  0.0355 -0.1604
   11loPI   PO4  164  16.156  11.382   9.356 -0.2637  0.0347  0.1922
   11loPI   GL1  165  16.175  11.781   9.425 -0.1846  0.0736  0.0284
   11loPI   GL2  166  16.590  11.822   9.337 -0.2513  0.0545 -0.1910
   11loPI   C1A  167  16.074  11.953   9.035 -0.0276  0.1120  0.3304
   11loPI   C2A  168  15.930  12.044   8.538 -0.0204  0.0001 -0.0778
   11loPI   C3A  169  15.991  12.209   8.103 -0.0639 -0.0050 -0.2974
   11loPI   C4A  170  15.778  12.179   7.714 -0.0632  0.1401 -0.3104
   11loPI   C5A  171  15.499  12.254   7.378 -0.1791  0.1657  0.2310
   11loPI   C6A  172  15.367  11.869   7.154  0.1445  0.3419  0.0132
   11loPI   C1B  173  16.886  11.722   8.927 -0.2175 -0.0128 -0.1649
   11loPI   C2B  174  16.829  11.687   8.437 -0.0714  0.0410 -0.1330
   11loPI   C3B  175  16.785  11.408   8.137  0.4827  0.2215  0.0368
   11loPI   C4B  176  16.402  11.349   7.881 -0.1649  0.0986 -0.1908
   12loPI    C1  177   8.053   8.349   9.667  0.0711 -0.1310 -0.0378
   12loPI    C2  178   7.702   8.376   9.857  0.0969 -0.0652  0.0011
   12loPI    C3  179   8.040   8.330  10.067  0.1468  0.2057 -0.0163
   12loPI   PO4  180   7.974   8.099   9.554  0.3238 -0.1654 -0.1544
   12loPI   GL1  181   8.249   7.773   9.323  0.1264 -0.2612 -0.1990
   12loPI   GL2  182   8.428   7.808   9.074 -0.2501  0.0572  0.1409
   12loPI   C1A  183   7.921   7.607   9.078 -0.1619  0.2595 -0.1204
   12loPI   C2A  184   7.856   7.789   8.708  0.1041  0.3172  0.1983
   12loPI   C3A  185   8.057   7.686   8.250  0.1593 -0.1264  0.1171
   12loPI   C4A  186   7.998   7.599   7.802 -0.2856  0.2260  0.3149
   12loPI   C5A  187   7.713   7.886   7.585 -0.0551 -0.1563  0.0509
   12loPI   C6A  188   7.705   8.325   7.378 -0.2251 -0.1017 -0.5127
   12loPI   C1B  189   8.316   7.381   8.869  0.2456 -0.1316 -0.0024
   12loPI   C2B  190   8.232   7.269   8.366 -0.3813 -0.1687 -0.1165
   12loPI   C3B  191   8.466   7.225   8.063 -0.1885  0.0969  0.0530
   12loPI   C4B  192   8.806   7.225   7.751 -0.2595  0.4514 -0.0112
   13loPI    C1  193  13.027   7.407  10.712  0.0097 -0.3040  0.0472
   13loPI    C2  194  12.725   7.144  10.712 -0.0774 -0.2071  0.3222
   13loPI    C3  195  12.903   7.244  11.056  0.1540 -0.1313  0.1824
   13loPI   PO4  196  13.098   7.375  10.351 -0.2834  0.3458 -0.1376
   13loPI   GL1  197  13.032   7.488  10.000  0.0481  0.4355 -0.3609
   13loPI   GL2  198  12.803   7.757   9.838 -0.1865  0.0061  0.0665
   13loPI   C1A  199  13.065   7.516   9.505  0.1056  0.0683  0.1066
   13loPI   C2A  200  13.019   7.592   9.036 -0.4346  0.0578 -0.0501
   13loPI   C3A  201  12.765   7.621   8.619 -0.0204 -0.2845 -0.0374
   13loPI   C4A  202  12.667   7.699   8.283  0.2860  0.0231  0.2232
   13loPI   C5A  203  12.861   7.806   7.997 -0.3139  0.0777  0.1781
   13loPI   C6A  204  13.050   8.175   7.727 -0.2396 -0.0662 -0.3191
   13loPI   C1B  205  12.783   7.916   9.424 -0.0460 -0.1661 -0.0135
   13loPI   C2B  206  12.936   8.057   8.974  0.1550  0.2206  0.1901
   13loPI   C3B  207  13.229   8.283   8.718 -0.1607  0.0150  0.5090
   13loPI   C4B  208  13.283   8.638   8.619 -0.3599 -0.1432  0.1508
   14loPI    C1  209  18.192   5.104   9.819 -0.1762  0.1695 -0.0446
   14loPI    C2  210  18.055   4.913  10.142  0.2556  0.0111  0.0520
   14loPI    C3  211  18.189   5.288  10.174  0.0540  0.0889  0.0010
   14loPI   PO4  212  18.160   4.896   9.644 -0.1263  0.0110  0.0949
   14loPI   GL1  213  18.392   4.837   9.260  0.0995  0.0924 -0.1880
   14loPI   GL2  214  18.425   4.921   9.009 -0.2483 -0.0956  0.1572
   14loPI   C1A  215  18.056   4.578   8.993 -0.0713 -0.1072  0.3735
   14loPI   C2A  216  17.819   4.304   8.716  0.1209 -0.0757  0.1867
   14loPI   C3A  217  17.952   4.027   8.298  0.2488  0.2049  0.2092
   14loPI   C4A  218  17.976   3.969   7.867 -0.2750 -0.0877  0.1401
   14loPI   C5A  219  18.019   3.983   7.429 -0.4395 -0.0535 -0.2894
   14loPI   C6A  220  18.229   3.815   7.256  0.5796  0.1300 -0.0429
   14loPI   C1B  221  18.406   5.017   8.589  0.1267 -0.0105  0.0939
   14loPI   C2B  222  18.382   5.113   8.184  0.1066 -0.0827 -0.4195
   14loPI   C3B  223  18.260   5.261   7.793  0.2800 -0.4696  0.0604
   14loPI   C4B  224  17.983   5.487   7.560 -0.3655 -0.0004 -0.1462
   15loPI    C1  225  14.287  14.457   9.846 -0.2121 -0.0939  0.0926
   15loPI    C2  226  14.499  14.613  10.146 -0.0781  0.0882 -0.0942
   15loPI    C3  227  14.403  14.225  10.150 -0.0070  0.0714  0.1426
   15loPI   PO4  228  14.426  14.522   9.585 -0.0693  0.0158 -0.2039
   15loPI   GL1  229  14.358  14.118   9.270 -0.2455  0.2081 -0.0480
   15loPI   GL2  230  14.067  14.209   9.311 -0.0239 -0.1767 -0.2024
   15loPI   C1A  231  14.465  14.276   8.814  0.1792 -0.0150  0.0417
   15loPI   C2A  232  14.372  14.527   8.528 -0.1900  0.1658  0.0711
   15loPI   C3A  233  14.438  14.535   8.100 -0.3223  0.0456 -0.0147
   15loPI   C4A  234  14.637  14.644   7.740 -0.3627  0.0261 -0.4542
   15loPI   C5A  235  14.831  14.844   7.426  0.1868 -0.1681 -0.1986
   15loPI   C6A  236  14.669  14.913   6.969  0.0722  0.2060  0.0480
   15loPI   C1B  237  13.883  14.210   8.955  0.0756 -0.1515  0.1301
   15loPI   C2B  238  14.011  14.170   8.541  0.2958  0.0957  0.1748
   15loPI   C3B  239  13.985  14.198   8.145 -0.3266 -0.3929  0.3054
   15loPI   C4B  240  14.057  13.951   7.723 -0.0143  0.0142  0.0643
   16loPI    C1  241   9.445   6.699   9.772  0.0467 -0.1314 -0.0541
   16loPI    C2  242   9.311   7.012   9.980  0.2126  0.1249 -0.3242
   16loPI    C3  243   9.079   6.690   9.932  0.0466  0.1964 -0.0301
   16loPI   PO4  244   9.550   7.009   9.502  0.0487  0.4453  0.2654
   16loPI   GL1  245   9.719   6.998   9.098  0.1963  0.1025 -0.0495
   16loPI   GL2  246   9.446   6.694   9.113  0.1957 -0.0495 -0.1461
   16loPI   C1A  247   9.901   7.262   8.810  0.0270  0.2830  0.0825
   16loPI   C2A  248  10.042   7.377   8.448 -0.1251  0.2813 -0.1990
   16loPI   C3A  249   9.873   7.304   8.030 -0.0857 -0.1110 -0.1274
   16loPI   C4A  250   9.601   7.131   7.707 -0.0744 -0.0997  0.1918
   16loPI   C5A  251   9.258   7.225   7.556  0.0795 -0.0377 -0.0451
   16loPI   C6A  252   9.139   7.153   7.126  0.1602  0.1243  0.0401
   16loPI   C1B  253   9.715   6.689   8.746 -0.1223  0.1710 -0.1076
   16loPI   C2B  254  10.076   6.801   8.573 -0.2931  0.2021  0.1721
   16loPI   C3B  255  10.271   6.945   8.165  0.0124 -0.1329 -0.3664
   16loPI   C4B  256  10.306   6.820   7.819  0.1950  0.0106  0.0499
   17loPI    C1  257   5.993  14.462   9.140  0.0042 -0.1776 -0.0819
   17loPI    C2  258   6.367  14.359   9.042  0.0079 -0.3429  0.0990
   17loPI    C3  259   6.297  14.557   9.383 -0.0507 -0.1493 -0.0240
   17loPI   PO4  260   5.747  14.314   9.027  0.1505 -0.1572 -0.1557
   17loPI   GL1  261   5.471  14.554   8.833  0.0302 -0.0264 -0.1865
   17loPI   GL2  262   5.797  14.682   8.635  0.1779 -0.1667  0.1094
   17loPI   C1A  263   5.442  14.887   8.443  0.3588  0.0226  0.0886
   17loPI   C2A  264   5.335  15.098   7.985  0.3468  0.1810  0.1445
   17loPI   C3A  265   5.050  15.200   7.648 -0.0523  0.0109  0.2005
   17loPI   C4A  266   4.989  15.221   7.218  0.0462  0.1744 -0.3247
   17loPI   C5A  267   4.605  15.131   6.985  0.2986 -0.0785 -0.3108
   17loPI   C6A  268   4.363  14.741   6.891  0.0006  0.0097  0.0048
   17loPI   C1B  269   5.985  14.866   8.368  0.0088  0.0165 -0.0679
   17loPI   C2B  270   6.196  14.863   7.953 -0.1251 -0.0645  0.0698
   17loPI   C3B  271   6.077  15.042   7.577 -0.0693 -0.2092  0.0266
   17loPI   C4B  272   5.985  15.106   7.058 -0.1824  0.2803 -0.2313
   18loPI    C1  273  14.152   6.884  10.125 -0.0856  0.2764  0.1979
   18loPI    C2  274  13.877   6.595  10.093  0.3434 -0.1302  0.0644
   18loPI    C3  275  14.091   6.630  10.429  0.1072  0.2122  0.1845
   18loPI   PO4  276  14.289   6.869   9.964 -0.1140  0.0332  0.0171
   18loPI   GL1  277  14.322   6.867   9.609  0.1346 -0.0661 -0.3398
   18loPI   GL2  278  14.557   6.701   9.488  0.0749  0.2950  0.1424
   18loPI   C1A  279  14.185   6.878   9.175  0.0287 -0.2575 -0.0551
   18loPI   C2A  280  14.247   6.852   8.770  0.0808  0.3020  0.2956
   18loPI   C3A  281  14.486   6.594   8.510 -0.0112  0.5540 -0.0872
   18loPI   C4A  282  14.384   6.119   8.311 -0.2040  0.0524 -0.0770
   18loPI   C5A  283  14.244   5.802   8.421 -0.2557 -0.1037  0.1098
   18loPI   C6A  284  13.829   5.846   8.382 -0.1464 -0.0281  0.1648
   18loPI   C1B  285  14.659   6.744   9.053  0.1551  0.4803 -0.0981
   18loPI   C2B  286  14.666   7.099   8.698  0.1470  0.1355  0.0818
   18loPI   C3B  287  14.808   7.463   8.330 -0.3456  0.1507  0.1205
   18loPI   C4B  288  14.811   7.433   8.020 -0.2720  0.1336 -0.1088
   19loPI    C1  289  16.802   1.371   9.978 -0.2869 -0.0963  0.0133
   19loPI    C2  290  16.938   1.083  10.220  0.0371  0.0076 -0.0398
   19loPI    C3  291  16.666   1.343  10.353  0.1139 -0.0176  0.1704
   19loPI   PO4  292  16.793   1.196   9.746  0.0242  0.1114 -0.2427
   19loPI   GL1  293  16.800   1.438   9.352  0.0078 -0.3207 -0.1657
   19loPI   GL2  294  16.692   1.750   9.224 -0.2864  0.0094  0.0252
   19loPI   C1A  295  16.617   1.243   8.898 -0.0574 -0.2603 -0.3201
   19loPI   C2A  296  16.700   1.235   8.425  0.0268  0.1085 -0.0306
   19loPI   C3A  297  16.477   1.305   8.129 -0.0272  0.0204 -0.0218
   19loPI   C4A  298  16.285   1.388   7.752 -0.2863 -0.1031  0.4039
   19loPI   C5A  299  16.159   1.229   7.428 -0.1322 -0.3494 -0.2354
   19loPI   C6A  300  15.971   1.085   7.099 -0.0428  0.2129 -0.0454
   19loPI   C1B  301  16.749   1.730   8.819  0.1254  0.1137  0.0671
   19loPI   C2B  302  16.415   1.613   8.492  0.1076 -0.0001 -0.2435
   19loPI   C3B  303  16.371   1.845   8.022 -0.0007 -0.0783 -0.1661
   19loPI   C4B  304  16.196   1.867   7.567 -0.3130 -0.1081  0.1681
   20loPI    C1  305  17.680   1.868   9.603 -0.2697 -0.0832  0.1512
   20loPI    C2  306  17.979   1.772   9.851 -0.0409 -0.0738 -0.1168
   20loPI    C3  307  17.807   2.132   9.876  0.1586  0.0248 -0.1414
   20loPI   PO4  308  17.559   1.594   9.600  0.0049 -0.8084 -0.5266
   20loPI   GL1  309  17.230   1.719   9.334  0.1170  0.1279  0.1338
   20loPI   GL2  310  17.266   2.013   9.257 -0.1107 -0.2605  0.2138
   20loPI   C1A  311  17.250   1.608   8.887  0.1164 -0.1698 -0.2331
   20loPI   C2A  312  17.099   1.652   8.433 -0.3426 -0.1275  0.0020
   20loPI   C3A  313  16.868   1.721   8.123  0.1912 -0.2287 -0.0107
   20loPI   C4A  314  16.777   1.915   7.705 -0.0515  0.1459  0.0854
   20loPI   C5A  315  16.624   1.841   7.335  0.1892  0.0258  0.0166
   20loPI   C6A  316  16.307   1.950   7.076 -0.1404  0.2304  0.2144
   20loPI   C1B  317  17.034   2.135   8.767 -0.0272 -0.1531 -0.1590
   20loPI   C2B  318  17.088   2.200   8.385  0.1676  0.0378  0.0730
   20loPI   C3B  319  17.149   2.160   7.897 -0.2300 -0.0476 -0.3274
   20loPI   C4B  320  17.181   2.125   7.478 -0.3567 -0.0504 -0.2237
   21loPI    C1  321  16.687  15.637   9.436 -0.0984 -0.2269 -0.1589
   21loPI    C2  322  16.915  15.422   9.685 -0.0036  0.1183  0.0596
   21loPI    C3  323  16.740  15.758   9.814 -0.3704  0.0328 -0.2002
   21loPI   PO4  324  16.749  15.790   9.200 -0.1407  0.3865  0.0067
   21loPI   GL1  325  16.475  15.880   8.941  0.2760 -0.1507  0.1506
   21loPI   GL2  326  16.742  15.681   8.694 -0.0979  0.1358 -0.3051
   21loPI   C1A  327  16.269  15.735   8.517 -0.3954 -0.3226 -0.2575
   21loPI   C2A  328  16.155  15.947   8.125  0.2439 -0.0246  0.2621
   21loPI   C3A  329  16.045  16.391   7.900 -0.2512 -0.0140  0.1254
   21loPI   C4A  330  16.058  16.504   7.499 -0.1712 -0.0385 -0.0179
   21loPI   C5A  331  16.248  16.750   7.250  0.2119 -0.0882 -0.3202
   21loPI   C6A  332  16.320  17.091   7.200 -0.2046  0.0213 -0.0182
   21loPI   C1B  333  16.717  15.682   8.241 -0.0883  0.1073 -0.0546
   21loPI   C2B  334  16.420  15.632   7.901 -0.3080  0.3187  0.1274
   21loPI   C3B  335  16.249  15.933   7.556 -0.2945 -0.1414 -0.1940
   21loPI   C4B  336  16.343  16.089   7.229  0.0940 -0.0275 -0.5477
   22loPI    C1  337   7.140   0.937   9.536 -0.0026 -0.2083 -0.2070
   22loPI    C2  338   7.030   0.892   9.918 -0.0001 -0.2089 -0.2064
   22loPI    C3  339   7.087   0.570   9.688  0.2280 -0.2163 -0.1426
   22loPI   PO4  340   6.988   1.070   9.451 -0.0223  0.0292  0.1139
   22loPI   GL1  341   6.825   1.100   8.966  0.0092  0.0516  0.0801
   22loPI   GL2  342   7.158   1.148   8.788  0.0325 -0.2507 -0.1345
   22loPI   C1A  343   6.638   1.373   8.762 -0.4041 -0.0796  0.0532
   22loPI   C2A  344   6.696   1.576   8.396  0.1281 -0.0624 -0.1527
   22loPI   C3A  345   6.964   1.550   8.060  0.2033 -0.2672  0.0888
   22loPI   C4A  346   7.056   1.603   7.668 -0.0749  0.1364  0.1890
   22loPI   C5A  347   7.115   1.182   7.432  0.1412  0.2327 -0.1832
   22loPI   C6A  348   7.410   0.952   7.150  0.1758  0.0879  0.1537
   22loPI   C1B  349   7.133   1.133   8.349 -0.1101 -0.2678  0.2281
   22loPI   C2B  350   7.366   1.237   7.860 -0.0910 -0.1920  0.1229
   22loPI   C3B  351   7.690   1.150   7.502  0.2136  0.0911 -0.1630
   22loPI   C4B  352   7.996   0.950   7.181 -0.1859 -0.0785  0.1900
   23loPI    C1  353   4.170  12.108   9.642 -0.1284 -0.3152  0.1827
   23loPI    C2  354   3.815  11.922   9.641 -0.3687  0.1280  0.0360
   23loPI    C3  355   4.006  11.988   9.987 -0.5101  0.0378  0.1324
   23loPI   PO4  356   4.231  11.997   9.384 -0.1082  0.1610  0.1565
   23loPI   GL1  357   3.981  11.626   9.159 -0.2797 -0.1273 -0.1675
   23loPI   GL2  358   3.763  11.750   8.971  0.0161  0.0228 -0.0457
   23loPI   C1A  359   4.159  11.367   8.887  0.2214  0.0446  0.1057
   23loPI   C2A  360   4.326  11.296   8.414  0.0461  0.2916  0.1132
   23loPI   C3A  361   4.176  11.432   8.129 -0.2461  0.0965 -0.0453
   23loPI   C4A  362   4.068  11.607   7.849  0.0619 -0.2439  0.2305
   23loPI   C5A  363   4.101  11.776   7.387  0.0510  0.1085 -0.0385
   23loPI   C6A  364   4.050  11.823   6.929 -0.0239 -0.1403  0.2217
   23loPI   C1B  365   3.846  11.635   8.498 -0.1518 -0.2706  0.0561
   23loPI   C2B  366   3.756  11.888   8.132 -0.0804 -0.2802  0.1835
   23loPI   C3B  367   3.689  11.978   7.719  0.1070 -0.1647  0.0354
   23loPI   C4B  368   3.525  11.892   7.325 -0.1462  0.1534 -0.0162
   24loPI    C1  369  12.546   3.030   9.755 -0.4277 -0.1449 -0.0304
   24loPI    C2  370  12.402   2.848  10.081  0.0584 -0.1097  0.2126
   24loPI    C3  371  12.369   3.245  10.043 -0.1458 -0.1331  0.1385
   24loPI   PO4  372  12.475   2.916   9.493 -0.1771  0.1712  0.0726
   24loPI   GL1  373  12.231   3.127   9.163 -0.1136 -0.0745  0.0706
   24loPI   GL2  374  12.485   3.358   9.006 -0.0877 -0.0180 -0.2329
   24loPI   C1A  375  12.188   2.941   8.841 -0.0923  0.0669  0.0026
   24loPI   C2A  376  11.938   2.917   8.481  0.1048  0.2345 -0.0332
   24loPI   C3A  377  12.068   2.855   8.108  0.1664 -0.2186 -0.1739
   24loPI   C4A  378  12.314   2.987   7.896  0.0166  0.0274 -0.1241
   24loPI   C5A  379  12.629   2.857   7.516  0.2001 -0.0760 -0.0964
   24loPI   C6A  380  12.811   3.303   7.339 -0.0496  0.0750  0.1413
   24loPI   C1B  381  12.543   3.143   8.511  0.0542 -0.3477  0.0238
   24loPI   C2B  382  12.624   2.826   8.233  0.2582  0.3411 -0.1947
   24loPI   C3B  383  12.528   2.494   7.860  0.1976 -0.1137 -0.1372
   24loPI   C4B  384  12.242   2.511   7.425 -0.0417  0.1297 -0.4850
   25loPI    C1  385   2.280  17.172   9.172  0.0005 -0.1344  0.0929
   25loPI    C2  386   2.313  16.804   9.018  0.0279 -0.2351  0.3348
   25loPI    C3  387   1.991  16.903   9.235 -0.1651  0.0070 -0.0505
   25loPI   PO4  388   2.288  17.350   8.983  0.0487 -0.1175  0.1738
   25loPI   GL1  389   2.228  17.529   8.590  0.0854 -0.1014 -0.0168
   25loPI   GL2  390   2.598  17.498   8.549  0.0896 -0.0195  0.1817
   25loPI   C1A  391   2.015  17.808   8.279  0.1331 -0.0902 -0.2275
   25loPI   C2A  392   1.901  17.730   7.865  0.0421  0.1108  0.4123
   25loPI   C3A  393   1.871  17.687   7.469 -0.0864 -0.2615  0.2374
   25loPI   C4A  394   1.943  17.435   6.964 -0.0924 -0.0527 -0.2132
   25loPI   C5A  395   2.278  17.575   6.623  0.2788  0.1030 -0.0976
   25loPI   C6A  396   2.608  17.484   6.545  0.1392 -0.1225  0.0751
   25loPI   C1B  397   2.548  17.100   8.430 -0.0412  0.1541 -0.1796
   25loPI   C2B  398   2.553  16.904   7.992  0.2193  0.1104 -0.3578
   25loPI   C3B  399   2.440  17.118   7.603 -0.0697 -0.2299 -0.0350
   25loPI   C4B  400   2.309  17.543   7.559  0.0861 -0.1400 -0.3570
   26loPI    C1  401   4.520   3.312   9.599  0.1117 -0.1189 -0.0618
   26loPI    C2  402   4.886   3.434   9.493  0.0252  0.1570 -0.0512
   26loPI    C3  403   4.697   3.611   9.798  0.1636 -0.4497  0.4042
   26loPI   PO4  404   4.554   3.073   9.626 -0.1519  0.1400 -0.1239
   26loPI   GL1  405   4.634   2.893   9.184 -0.0469  0.4181  0.2420
   26loPI   GL2  406   4.304   2.875   9.248  0.0837 -0.0797  0.0135
   26loPI   C1A  407   4.840   2.608   8.943  0.1632 -0.1510  0.1032
   26loPI   C2A  408   4.924   2.136   8.790 -0.0287  0.4918 -0.0470
   26loPI   C3A  409   4.676   2.012   8.476  0.0177  0.0831  0.0674
   26loPI   C4A  410   4.226   1.967   8.555  0.0708 -0.2154  0.0030
   26loPI   C5A  411   3.867   2.036   8.483 -0.2932  0.0675  0.1090
   26loPI   C6A  412   3.494   1.887   8.383 -0.1723 -0.2691 -0.2141
   26loPI   C1B  413   4.249   3.064   8.868 -0.2407 -0.1580 -0.2286
   26loPI   C2B  414   4.181   3.101   8.339 -0.0612  0.1360 -0.0732
   26loPI   C3B  415   4.187   3.237   7.897 -0.0195 -0.0087 -0.0805
   26loPI   C4B  416   4.134   3.191   7.471 -0.0520  0.0066 -0.3275
   27loPI    C1  417  14.323   3.595   9.422 -0.1766 -0.0684  0.0312
   27loPI    C2  418  14.230   3.412   9.765 -0.0397  0.1677  0.1967
   27loPI    C3  419  14.498   3.709   9.763  0.1584 -0.0080 -0.1572
   27loPI   PO4  420  14.104   3.761   9.351  0.0830 -0.2119  0.1523
   27loPI   GL1  421  14.062   4.079   9.025  0.1634  0.0177 -0.0597
   27loPI   GL2  422  13.896   4.285   9.004  0.0988 -0.0894 -0.1147
   27loPI   C1A  423  14.289   4.028   8.672  0.2861  0.3667 -0.1781
   27loPI   C2A  424  14.321   4.240   8.358 -0.0412 -0.2161 -0.0630
   27loPI   C3A  425  14.374   4.408   8.013 -0.3503 -0.0997  0.2117
   27loPI   C4A  426  14.035   4.595   7.697  0.2842  0.2192 -0.2362
   27loPI   C5A  427  13.799   4.858   7.385  0.1524  0.1520 -0.0021
   27loPI   C6A  428  13.372   5.038   7.211 -0.2458 -0.1687  0.0706
   27loPI   C1B  429  13.909   4.390   8.600  0.3870  0.1463  0.2038
   27loPI   C2B  430  13.830   4.487   8.121 -0.2503 -0.0493 -0.1407
   27loPI   C3B  431  13.573   4.266   7.875 -0.1961 -0.1169 -0.2459
   27loPI   C4B  432  13.337   4.251   7.505  0.0055  0.1020 -0.0256
   28loPI    C1  433   8.243   7.594  10.029 -0.1234 -0.0837  0.2973
   28loPI    C2  434   8.631   7.641  10.117 -0.0582 -0.2774  0.1211
   28loPI    C3  435   8.357   7.654  10.408  0.0592  0.0643  0.2210
   28loPI   PO4  436   8.290   7.481   9.794 -0.3373 -0.1003  0.1477
   28loPI   GL1  437   8.480   7.305   9.532 -0.2135  0.1540  0.1935
   28loPI   GL2  438   8.151   7.256   9.360  0.2371 -0.2336  0.0511
   28loPI   C1A  439   8.740   7.302   9.185 -0.6001  0.2052 -0.1194
   28loPI   C2A  440   8.688   7.090   8.691 -0.1097  0.2766 -0.1670
   28loPI   C3A  441   8.822   6.908   8.289 -0.1084  0.1877 -0.0348
   28loPI   C4A  442   8.890   6.422   7.926 -0.3357  0.0472  0.0099
   28loPI   C5A  443   8.781   6.398   7.491 -0.3582  0.0569 -0.1735
   28loPI   C6A  444   8.683   6.266   6.998 -0.1167 -0.0876 -0.1891
   28loPI   C1B  445   7.945   7.090   8.937  0.0660 -0.0361 -0.2772
   28loPI   C2B  446   7.736   7.173   8.540  0.0425 -0.2680 -0.3972
   28loPI   C3B  447   7.794   7.268   8.058  0.1312 -0.3843  0.1322
   28loPI   C4B  448   7.994   7.045   7.816 -0.0417  0.2622  0.2452
   29loPI    C1  449   8.404  13.205   9.193  0.3602 -0.0237 -0.0736
   29loPI    C2  450   8.574  13.051   9.520  0.3560  0.1344  0.0039
   29loPI    C3  451   8.304  12.838   9.316  0.0612  0.1854  0.3309
   29loPI   PO4  452   8.452  13.452   9.203 -0.0008 -0.3415  0.1674
   29loPI   GL1  453   8.777  13.682   9.023  0.2344 -0.1681  0.1482
   29loPI   GL2  454   9.209  13.677   9.097  0.1656  0.1945  0.1622
   29loPI   C1A  455   9.072  13.649   8.583  0.2624 -0.0090 -0.0029
   29loPI   C2A  456   9.477  13.840   8.406  0.1203  0.1129 -0.1958
   29loPI   C3A  457   9.769  13.934   8.060 -0.3359 -0.2957  0.1313
   29loPI   C4A  458   9.968  13.901   7.675  0.0339 -0.1741 -0.0834
   29loPI   C5A  459   9.791  13.996   7.247 -0.2429 -0.0578  0.1803
   29loPI   C6A  460   9.556  14.387   7.005  0.3129  0.1886 -0.1144
   29loPI   C1B  461   9.440  13.422   8.843  0.0616  0.0473  0.1576
   29loPI   C2B  462   9.471  13.343   8.363 -0.0801  0.0516 -0.1748
   29loPI   C3B  463   9.381  13.379   7.941  0.1372  0.0845 -0.1736
   29loPI   C4B  464   9.094  13.223   7.673  0.0698  0.1719  0.1771
   30loPI    C1  465  10.540  11.631   9.920  0.0736  0.2458 -0.2405
   30loPI    C2  466  10.423  12.001  10.016  0.0399  0.2039 -0.1173
   30loPI    C3  467  10.462  11.724  10.301 -0.0549  0.0788 -0.2246
   30loPI   PO4  468  10.676  11.625   9.775 -0.1367  0.3234 -0.0189
   30loPI   GL1  469  10.707  11.895   9.312  0.0302 -0.1853  0.2224
   30loPI   GL2  470  10.988  12.201   9.215  0.0165  0.0481  0.4378
   30loPI   C1A  471  10.679  11.786   8.934  0.1483  0.1787  0.0047
   30loPI   C2A  472  10.766  11.426   8.648  0.1229  0.1939 -0.1975
   30loPI   C3A  473  10.967  11.141   8.241 -0.2472  0.1868 -0.0586
   30loPI   C4A  474  11.327  11.104   7.918 -0.3210 -0.0530  0.1818
   30loPI   C5A  475  11.492  11.321   7.554 -0.2233  0.0378  0.1242
   30loPI   C6A  476  11.474  11.463   7.063  0.1667 -0.1640 -0.0620
   30loPI   C1B  477  10.892  12.342   8.773 -0.0022 -0.0898 -0.1467
   30loPI   C2B  478  10.956  12.295   8.397  0.0373 -0.0500  0.0181
   30loPI   C3B  479  10.853  12.155   8.021 -0.0989  0.0440  0.0190
   30loPI   C4B  480  11.285  12.047   7.695  0.0470  0.0843 -0.1676
   31loPI    C1  481   0.369  17.649   9.627  0.0116  0.0689 -0.1460
   31loPI    C2  482   0.251  18.029   9.664 -0.0707  0.0595 -0.3059
   31loPI    C3  483   0.520  17.877   9.919 -0.2354  0.1461 -0.0768
   31loPI   PO4  484   0.290  17.583   9.400 -0.2310  0.0473 -0.2365
   31loPI   GL1  485   0.334  17.364   9.075  0.0946 -0.4179  0.0008
   31loPI   GL2  486   0.255  17.097   9.231 -0.4035  0.2077  0.1677
   31loPI   C1A  487   0.376  17.370   8.743 -0.0034 -0.1192 -0.1840
   31loPI   C2A  488   0.298  17.592   8.336  0.0362  0.1182  0.0556
   31loPI   C3A  489   0.338  17.686   7.950  0.0884  0.1485 -0.1329
   31loPI   C4A  490   0.530  17.637   7.477 -0.1093 -0.1422  0.0374
   31loPI   C5A  491   0.939  17.567   7.203 -0.1304 -0.0455  0.4337
   31loPI   C6A  492   1.079  17.734   6.856 -0.0729 -0.0103 -0.1633
   31loPI   C1B  493   0.157  16.925   8.823 -0.1359  0.0520  0.1994
   31loPI   C2B  494   0.161  16.568   8.506  0.0799  0.2842 -0.0616
   31loPI   C3B  495   0.037  16.477   8.103  0.1631 -0.0052  0.5112
   31loPI   C4B  496  -0.126  16.491   7.719 -0.1581  0.0400 -0.1303
   32loPI    C1  497  17.127  17.334   9.714 -0.0365  0.1660 -0.1910
   32loPI    C2  498  16.837  17.478   9.950  0.3181  0.1963  0.2389
   32loPI    C3  499  17.113  17.230  10.100  0.5603  0.2244 -0.1446
   32loPI   PO4  500  17.121  17.202   9.502  0.1084  0.1035  0.0281
   32loPI   GL1  501  17.164  16.905   9.155 -0.1604 -0.0901  0.1573
   32loPI   GL2  502  16.812  16.865   9.020  0.0791  0.0778  0.1794
   32loPI   C1A  503  17.219  16.760   8.699  0.0397 -0.2189 -0.0558
   32loPI   C2A  504  17.177  16.904   8.365  0.1417 -0.0706  0.1886
   32loPI   C3A  505  17.030  16.882   8.030  0.0341 -0.0330 -0.1055
   32loPI   C4A  506  17.117  16.767   7.718  0.2196  0.3604 -0.0916
   32loPI   C5A  507  17.374  16.662   7.458 -0.3390  0.1850  0.1800
   32loPI   C6A  508  17.382  16.672   6.990 -0.0866  0.0339  0.1582
   32loPI   C1B  509  16.680  16.780   8.635  0.0011 -0.3753  0.0921
   32loPI   C2B  510  16.478  16.601   8.243 -0.0389 -0.1762 -0.1161
   32loPI   C3B  511  16.599  16.791   7.809  0.2432  0.1616  0.2201
   32loPI   C4B  512  16.801  16.973   7.409  0.2292 -0.0488 -0.2652
   33loPI    C1  513  17.961   0.732   9.519  0.1750 -0.2417  0.1294
   33loPI    C2  514  18.285   0.920   9.658  0.0875 -0.1274  0.1800
   33loPI    C3  515  17.975   0.849   9.901 -0.0020 -0.0674  0.0842
   33loPI   PO4  516  18.158   0.510   9.297  0.0887 -0.3277  0.0211
   33loPI   GL1  517  17.936   0.381   8.951  0.4207  0.2078 -0.3252
   33loPI   GL2  518  18.188   0.328   8.709  0.0579  0.2306 -0.0067
   33loPI   C1A  519  17.736   0.067   8.744  0.3336 -0.1560 -0.0591
   33loPI   C2A  520  17.479   0.265   8.320  0.1412 -0.2879 -0.0391
   33loPI   C3A  521  17.397   0.632   8.233  0.0359 -0.2010 -0.1505
   33loPI   C4A  522  17.320   0.790   7.738  0.1674 -0.0628 -0.0343
   33loPI   C5A  523  17.256   1.179   7.458  0.0082 -0.1072  0.0538
   33loPI   C6A  524  17.107   1.625   7.302 -0.0376 -0.1797 -0.1377
   33loPI   C1B  525  18.093   0.226   8.258  0.1352 -0.1927 -0.3955
   33loPI   C2B  526  18.376   0.051   7.908  0.1209 -0.0828 -0.0896
   33loPI   C3B  527  18.625  -0.133   7.619 -0.0654  0.2222  0.3012
   33loPI   C4B  528  18.789  -0.193   7.157 -0.2650  0.3813 -0.0956
   34loPI    C1  529  15.198   2.348   9.821  0.1976  0.1711 -0.0926
   34loPI    C2  530  14.888   2.128   9.694  0.0943  0.2144  0.0820
   34loPI    C3  531  15.215   1.949   9.839  0.1364  0.1694 -0.0680
   34loPI   PO4  532  15.228   2.492   9.596  0.1284  0.1488 -0.2571
   34loPI   GL1  533  15.072   2.609   9.143 -0.0129  0.1923  0.1718
   34loPI   GL2  534  15.354   2.721   9.112 -0.2999 -0.0012  0.2527
   34loPI   C1A  535  14.765   2.393   8.835  0.1430 -0.2244  0.1782
   34loPI   C2A  536  14.604   2.495   8.371  0.4857 -0.1672 -0.0774
   34loPI   C3A  537  14.575   2.247   7.968 -0.2646  0.2037 -0.2665
   34loPI   C4A  538  14.668   2.028   7.600 -0.2392 -0.2012  0.1882
   34loPI   C5A  539  14.997   2.232   7.356  0.0536 -0.0618 -0.0871
   34loPI   C6A  540  15.449   2.349   7.184 -0.2172  0.2251 -0.4323
   34loPI   C1B  541  15.683   2.778   8.863  0.0186  0.0581 -0.1250
   34loPI   C2B  542  15.910   2.938   8.444 -0.0138 -0.0083  0.1611
   34loPI   C3B  543  16.000   2.982   7.961 -0.0660 -0.1737 -0.1818
   34loPI   C4B  544  16.110   3.311   7.604  0.1991  0.3529  0.1001
   35loPI    C1  545  12.454  13.209  10.158  0.2444 -0.0200  0.0185
   35loPI    C2  546  12.117  13.207  10.374  0.2112 -0.0254 -0.0332
   35loPI    C3  547  12.338  13.540  10.352  0.1648  0.0033 -0.0679
   35loPI   PO4  548  12.430  13.178   9.942  0.4296 -0.3981 -0.2956
   35loPI   GL1  549  12.514  13.338   9.506 -0.0317  0.0074  0.3817
   35loPI   GL2  550  12.144  13.383   9.479  0.2978 -0.0366  0.0066
   35loPI   C1A  551  12.463  13.517   9.099 -0.0702  0.0809 -0.1086
   35loPI   C2A  552  12.255  13.464   8.715 -0.0845 -0.2223  0.1043
   35loPI   C3A  553  12.298  13.289   8.317  0.3697 -0.0170  0.0746
   35loPI   C4A  554  12.362  13.165   7.877  0.1471  0.2172 -0.1756
   35loPI   C5A  555  12.447  13.496   7.584 -0.1317 -0.1239 -0.0337
   35loPI   C6A  556  12.833  13.595   7.325  0.0946  0.0208 -0.1879
   35loPI   C1B  557  12.164  13.110   9.144  0.2511 -0.2978 -0.1923
   35loPI   C2B  558  12.547  13.035   8.869 -0.1790  0.2621  0.1300
   35loPI   C3B  559  12.660  12.899   8.519  0.0135  0.1600 -0.2197
   35loPI   C4B  560  12.746  12.873   8.064  0.0813  0.0407 -0.2127
   36loPI    C1  561  12.716  16.720   9.948  0.1247  0.0609  0.1403
   36loPI    C2  562  13.053  16.504   9.957  0.0412 -0.0785 -0.0162
   36loPI    C3  563  13.019  16.833  10.183  0.2226 -0.1507  0.1179
   36loPI   PO4  564  12.721  16.760   9.634 -0.3987  0.0961 -0.0232
   36loPI   GL1  565  12.924  16.684   9.256  0.2956  0.1036  0.1408
   36loPI   GL2  566  12.890  16.890   9.100  0.0895 -0.1525 -0.0457
   36loPI   C1A  567  13.063  16.503   8.835 -0.1386 -0.1793  0.1686
   36loPI   C2A  568  13.149  16.042   8.638  0.2586  0.2255 -0.2580
   36loPI   C3A  569  12.953  15.863   8.373  0.0096  0.0739  0.1170
   36loPI   C4A  570  12.919  15.617   8.081 -0.0079 -0.2271 -0.2172
   36loPI   C5A  571  12.971  15.640   7.721 -0.1679 -0.2717 -0.1301
   36loPI   C6A  572  13.007  15.417   7.323  0.0126 -0.0659 -0.2259
   36loPI   C1B  573  13.071  17.026   8.703  0.0970 -0.5143 -0.1521
   36loPI   C2B  574  13.199  16.806   8.377  0.3223  0.0949 -0.1750
   36loPI   C3B  575  13.046  16.398   8.240 -0.0321 -0.2594  0.0646
   36loPI   C4B  576  12.783  16.057   7.902 -0.0298  0.0385 -0.0699
   37loPI    C1  577   6.227  13.609   9.496  0.0529 -0.0098 -0.0446
   37loPI    C2  578   6.114  13.365   9.792  0.0343  0.3368  0.2414
   37loPI    C3  579   6.036  13.756   9.815 -0.0552  0.3563 -0.2723
   37loPI   PO4  580   6.295  13.405   9.366 -0.3791 -0.3108  0.3492
   37loPI   GL1  581   6.152  13.366   8.837  0.0819  0.0535  0.1181
   37loPI   GL2  582   6.434  13.349   8.812  0.0225 -0.1357  0.0428
   37loPI   C1A  583   6.232  13.247   8.356 -0.0727 -0.0664  0.0568
   37loPI   C2A  584   6.266  13.284   7.894 -0.1219 -0.5875 -0.0433
   37loPI   C3A  585   6.113  13.163   7.579  0.3610 -0.1821 -0.2600
   37loPI   C4A  586   5.775  13.117   7.300 -0.3192 -0.4280  0.1150
   37loPI   C5A  587   5.366  13.217   7.382  0.0284 -0.1779 -0.0982
   37loPI   C6A  588   4.991  13.114   7.223 -0.2316  0.0868  0.1128
   37loPI   C1B  589   6.686  13.454   8.400 -0.2524  0.1554 -0.0390
   37loPI   C2B  590   6.633  13.685   8.055  0.0205  0.1635  0.2830
   37loPI   C3B  591   6.684  13.536   7.625 -0.1670  0.2582  0.0586
   37loPI   C4B  592   6.918  13.467   7.198  0.1274 -0.0113  0.1079
   38loPI    C1  593   3.859   8.126   9.825  0.1202 -0.0823 -0.2220
   38loPI    C2  594   3.880   8.524   9.798  0.1061 -0.0786 -0.1789
   38loPI    C3  595   4.202   8.314   9.907  0.0172 -0.0494  0.1489
   38loPI   PO4  596   3.797   8.053   9.541  0.2592 -0.0003  0.0905
   38loPI   GL1  597   4.055   7.923   9.143  0.3365 -0.0246 -0.0167
   38loPI   GL2  598   3.936   8.198   9.131 -0.0286  0.3141 -0.3504
   38loPI   C1A  599   4.155   8.047   8.696  0.1686 -0.1954 -0.1585
   38loPI   C2A  600   4.486   8.146   8.379  0.0252  0.0975 -0.3545
   38loPI   C3A  601   4.522   8.122   7.903 -0.0588  0.1564  0.1002
   38loPI   C4A  602   4.536   8.120   7.465  0.1183 -0.2319  0.0035
   38loPI   C5A  603   4.152   8.082   7.159  0.1317  0.0147 -0.1829
   38loPI   C6A  604   3.806   7.951   7.350  0.2567 -0.1467  0.0597
   38loPI   C1B  605   3.798   8.392   8.704  0.2766 -0.0360  0.0554
   38loPI   C2B  606   3.636   8.468   8.177 -0.1051  0.1622 -0.1345
   38loPI   C3B  607   3.611   8.348   7.719  0.0985 -0.0988  0.0154
   38loPI   C4B  608   3.675   8.488   7.322  0.1243 -0.1328  0.1924
   39loPI    C1  609  11.466   5.891   9.754  0.1161 -0.1434 -0.2055
   39loPI    C2  610  11.713   5.841  10.064  0.0814 -0.0066 -0.1553
   39loPI    C3  611  11.448   5.557   9.973 -0.0899  0.0660  0.1047
   39loPI   PO4  612  11.344   6.132   9.793  0.4002 -0.1425 -0.1535
   39loPI   GL1  613  11.475   6.499   9.542 -0.2922 -0.3031 -0.0414
   39loPI   GL2  614  11.681   6.205   9.435  0.1457 -0.1675  0.2715
   39loPI   C1A  615  11.326   6.805   9.064  0.1123 -0.2409 -0.1952
   39loPI   C2A  616  11.154   6.949   8.694 -0.1016  0.1075 -0.0051
   39loPI   C3A  617  11.154   6.939   8.206  0.0788  0.1785  0.2060
   39loPI   C4A  618  11.317   6.631   7.928  0.0786 -0.0559 -0.0795
   39loPI   C5A  619  11.315   6.333   7.659  0.2573 -0.0798  0.1323
   39loPI   C6A  620  11.155   5.894   7.721  0.0446  0.2250  0.2067
   39loPI   C1B  621  11.697   6.485   9.068  0.2103  0.3918  0.1435
   39loPI   C2B  622  11.570   6.643   8.662 -0.1451  0.0064 -0.0756
   39loPI   C3B  623  11.642   6.767   8.306 -0.1824  0.2978  0.3484
   39loPI   C4B  624  11.849   6.907   7.907 -0.1588 -0.4625 -0.0545
   40loPI    C1  625   4.087   3.641   9.926  0.1262 -0.2400  0.0626
   40loPI    C2  626   3.767   3.403   9.947  0.1153 -0.2377 -0.0669
   40loPI    C3  627   3.818   3.692  10.218 -0.0256 -0.1967 -0.0830
   40loPI   PO4  628   4.146   3.687   9.544 -0.0596  0.1998 -0.1572
   40loPI   GL1  629   4.206   3.649   9.160  0.0285 -0.0072  0.1245
   40loPI   GL2  630   4.340   3.407   9.131 -0.2211 -0.2415 -0.0537
   40loPI   C1A  631   4.582   3.897   8.858 -0.0792  0.2737 -0.2163
   40loPI   C2A  632   4.586   3.920   8.419 -0.2761  0.5019 -0.2365
   40loPI   C3A  633   4.578   4.059   8.002  0.0833 -0.1828 -0.0083
   40loPI   C4A  634   4.784   4.184   7.639  0.0853 -0.0577 -0.0469
   40loPI   C5A  635   5.207   4.294   7.477 -0.0411 -0.0534  0.1332
   40loPI   C6A  636   5.462   4.334   7.202  0.0905  0.0454  0.1317
   40loPI   C1B  637   4.481   3.419   8.647  0.0929 -0.2076 -0.1243
   40loPI   C2B  638   4.573   3.378   8.267  0.1853 -0.1166 -0.3565
   40loPI   C3B  639   4.736   3.154   7.969 -0.0503 -0.2252  0.2082
   40loPI   C4B  640   4.761   2.800   7.696 -0.2787 -0.4003  0.1139
   41loPI    C1  641  18.320  17.457   9.998  0.0012 -0.0432  0.0858
   41loPI    C2  642  18.341  17.142  10.243  0.2143 -0.0140  0.1068
   41loPI    C3  643  18.301  17.510  10.394 -0.1195 -0.0357  0.0796
   41loPI   PO4  644  18.595  17.395   9.763  0.4809  0.4673  0.0096
   41loPI   GL1  645  18.647  17.560   9.340  0.0427 -0.3501 -0.1192
   41loPI   GL2  646  18.900  17.356   9.314 -0.1345  0.0411  0.1114
   41loPI   C1A  647  18.329  17.708   9.111 -0.0072  0.4453  0.2268
   41loPI   C2A  648  18.157  18.027   8.776  0.1348  0.2466 -0.0400
   41loPI   C3A  649  18.080  18.239   8.367  0.0310 -0.0609 -0.2534
   41loPI   C4A  650  17.973  18.215   7.952 -0.0299  0.5270 -0.0362
   41loPI   C5A  651  17.889  18.090   7.483 -0.2172 -0.0229 -0.0618
   41loPI   C6A  652  17.555  18.115   7.071 -0.0530  0.0363 -0.3982
   41loPI   C1B  653  18.934  17.048   9.055 -0.1544  0.0211 -0.2209
   41loPI   C2B  654  19.152  16.879   8.678  0.1404 -0.2003  0.1069
   41loPI   C3B  655  19.486  16.963   8.317  0.0691 -0.3433 -0.1671
   41loPI   C4B  656  19.658  16.973   7.916 -0.1410 -0.1267  0.1923
   42loPI    C1  657   9.232  14.561   9.476 -0.2352  0.2819 -0.0279
   42loPI    C2  658   9.099  14.190   9.410  0.1898  0.0774  0.2262
   42loPI    C3  659   8.888  14.440   9.640 -0.0371 -0.0460  0.1553
   42loPI   PO4  660   9.503  14.471   9.436  0.0501  0.1971 -0.0531
   42loPI   GL1  661   9.776  14.695   9.187  0.4331  0.0007  0.2641
   42loPI   GL2  662   9.500  14.886   9.062  0.0868 -0.2373 -0.0185
   42loPI   C1A  663   9.842  14.542   8.791  0.3817  0.2022  0.0684
   42loPI   C2A  664   9.586  14.344   8.430  0.3388  0.2778  0.0730
   42loPI   C3A  665   9.594  14.356   7.978  0.2995 -0.0121  0.1544
   42loPI   C4A  666   9.473  14.669   7.661  0.1989 -0.2494  0.2530
   42loPI   C5A  667   9.451  15.118   7.536  0.2021  0.3952 -0.2609
   42loPI   C6A  668   9.186  15.241   7.161  0.1005  0.0511 -0.0974
   42loPI   C1B  669   9.835  15.044   8.865  0.4713  0.0086 -0.1118
   42loPI   C2B  670   9.906  15.000   8.455 -0.1653  0.1349 -0.0302
   42loPI   C3B  671   9.591  14.852   8.216 -0.0919  0.1527 -0.1555
   42loPI   C4B  672   9.202  14.616   8.148  0.1199 -0.3450  0.3944
   43loPI    C1  673   0.949   8.678   9.921 -0.0355 -0.2610 -0.0651
   43loPI    C2  674   1.213   8.908   9.727  0.0039 -0.0806  0.1969
   43loPI    C3  675   1.259   8.510   9.732  0.2070 -0.0589  0.1468
   43loPI   PO4  676   0.737   8.743   9.783  0.0346  0.0534  0.0324
   43loPI   GL1  677   0.778   8.597   9.377 -0.0430  0.3078  0.0555
   43loPI   GL2  678   0.920   8.926   9.320 -0.0533  0.1107 -0.2700
   43loPI   C1A  679   0.833   8.481   8.954  0.0570  0.3662 -0.2699
   43loPI   C2A  680   0.690   8.475   8.515  0.0940 -0.1966 -0.0168
   43loPI   C3A  681   0.813   8.525   8.109 -0.0703  0.2674 -0.0181
   43loPI   C4A  682   0.939   8.566   7.646 -0.1488  0.0408  0.1791
   43loPI   C5A  683   1.271   8.693   7.350  0.0980 -0.2158  0.0860
   43loPI   C6A  684   1.615   8.617   7.368 -0.2930  0.1154  0.2849
   43loPI   C1B  685   0.638   8.986   8.884 -0.0679  0.5917  0.2498
   43loPI   C2B  686   0.753   8.967   8.434  0.1222 -0.1289 -0.0426
   43loPI   C3B  687   0.501   9.061   8.159 -0.4534 -0.4580 -0.0350
   43loPI   C4B  688   0.451   9.046   7.682 -0.0476 -0.0195 -0.2016
   44loPI    C1  689  19.454   8.265  10.256 -0.1699  0.1744 -0.0110
   44loPI    C2  690  19.189   7.968  10.300 -0.1724  0.1593 -0.1228
   44loPI    C3  691  19.416   8.082  10.610 -0.0431 -0.0805 -0.1261
   44loPI   PO4  692  19.666   8.190   9.995  0.2505  0.1755 -0.1589
   44loPI   GL1  693  19.792   8.433   9.613  0.1836 -0.3127 -0.1572
   44loPI   GL2  694  20.012   8.276   9.505 -0.0483 -0.2773 -0.2488
   44loPI   C1A  695  19.652   8.478   9.247 -0.3703  0.2098  0.1517
   44loPI   C2A  696  19.458   8.572   8.900  0.0379  0.2632 -0.1008
   44loPI   C3A  697  19.430   8.570   8.447 -0.0283 -0.3114  0.2606
   44loPI   C4A  698  19.383   8.381   8.013  0.0816  0.2869  0.0677
   44loPI   C5A  699  19.091   8.217   7.687 -0.0787  0.0065  0.2155
   44loPI   C6A  700  18.993   7.739   7.578 -0.1725 -0.1151 -0.2204
   44loPI   C1B  701  20.009   8.162   9.036 -0.1055 -0.4302 -0.0595
   44loPI   C2B  702  19.804   8.276   8.689 -0.3039 -0.1440 -0.1270
   44loPI   C3B  703  19.533   8.041   8.374  0.1063 -0.0270 -0.2448
   44loPI   C4B  704  19.354   7.875   8.002  0.0424  0.1892  0.0356
   45loPI    C1  705  10.453   9.500  10.084 -0.2291 -0.1014  0.0021
   45loPI    C2  706  10.214   9.530  10.403 -0.1892  0.0836  0.0157
   45loPI    C3  707  10.546   9.750  10.381  0.0564 -0.2734  0.0609
   45loPI   PO4  708  10.319   9.539   9.892  0.0207 -0.4068  0.3708
   45loPI   GL1  709  10.404   9.502   9.368 -0.1052 -0.0533 -0.0878
   45loPI   GL2  710  10.345   9.339   9.136 -0.2379 -0.0776  0.1589
   45loPI   C1A  711  10.912   9.352   9.244 -0.0555 -0.3177  0.2128
   45loPI   C2A  712  11.245   9.300   8.994 -0.0244 -0.0321  0.1232
   45loPI   C3A  713  11.480   9.259   8.618  0.0699 -0.0334  0.2316
   45loPI   C4A  714  11.587   9.435   8.193 -0.0202 -0.1417  0.0547
   45loPI   C5A  715  11.369   9.265   7.744  0.4855  0.1455 -0.1452
   45loPI   C6A  716  11.256   9.209   7.344 -0.1789 -0.2667 -0.2011
   45loPI   C1B  717  10.637   9.204   8.874 -0.0810 -0.4052 -0.0927
   45loPI   C2B  718  10.962   9.202   8.569  0.0539  0.0844 -0.0501
   45loPI   C3B  719  11.009   9.198   8.038 -0.0241  0.0271 -0.0016
   45loPI   C4B  720  10.855   9.251   7.661 -0.3031 -0.2286  0.0597
   46loPI    C1  721   9.123   2.670   9.714 -0.1950 -0.0482  0.0606
   46loPI    C2  722   9.433   2.526   9.507 -0.0574  0.2800  0.0335
   46loPI    C3  723   9.368   2.402   9.882 -0.0182  0.0535 -0.0331
   46loPI   PO4  724   8.996   2.789   9.472  0.0954  0.2001 -0.4204
   46loPI   GL1  725   9.121   2.948   9.216  0.2198 -0.0090 -0.0279
   46loPI   GL2  726   9.362   2.926   8.992 -0.4861  0.3263 -0.2650
   46loPI   C1A  727   8.764   2.865   8.856 -0.0299  0.1514 -0.2643
   46loPI   C2A  728   8.592   2.881   8.428  0.2888  0.0592  0.1183
   46loPI   C3A  729   8.956   2.901   8.086  0.2303  0.1505  0.2241
   46loPI   C4A  730   9.025   2.897   7.726  0.1943  0.3817  0.1743
   46loPI   C5A  731   8.885   2.676   7.384 -0.3553  0.3047 -0.1534
   46loPI   C6A  732   8.768   2.355   7.200 -0.0344  0.2700  0.4356
   46loPI   C1B  733   9.180   2.986   8.580 -0.1853 -0.2215  0.1454
   46loPI   C2B  734   9.385   3.093   8.173 -0.3369  0.1720 -0.2115
   46loPI   C3B  735   9.515   3.100   7.712 -0.0561  0.3070 -0.1376
   46loPI   C4B  736   9.217   3.271   7.422 -0.0147  0.2036 -0.0595
   47loPI    C1  737   4.960  10.886   9.812  0.1580 -0.0939  0.3209
   47loPI    C2  738   4.721  11.206   9.814  0.1859 -0.0664 -0.0360
   47loPI    C3  739   4.669  10.916  10.085  0.1027  0.1945  0.2335
   47loPI   PO4  740   4.923  10.615   9.537  0.1867 -0.4112  0.0658
   47loPI   GL1  741   4.721  10.602   9.140  0.0930  0.2125  0.0078
   47loPI   GL2  742   4.897  10.304   9.176  0.0017  0.1223  0.2688
   47loPI   C1A  743   4.638  10.814   8.728 -0.2004 -0.0492  0.2126
   47loPI   C2A  744   4.609  10.904   8.302 -0.1085  0.0969  0.1159
   47loPI   C3A  745   4.816  11.016   7.857 -0.2444  0.0414  0.0123
   47loPI   C4A  746   4.893  11.098   7.458 -0.3677  0.1096  0.4679
   47loPI   C5A  747   5.273  11.077   7.215  0.4124  0.3033  0.0490
   47loPI   C6A  748   5.449  11.208   6.823 -0.1315 -0.0112 -0.3502
   47loPI   C1B  749   4.918  10.361   8.697 -0.0068  0.0652  0.1822
   47loPI   C2B  750   4.940  10.225   8.283 -0.2262 -0.1406 -0.1790
   47loPI   C3B  751   5.019   9.949   7.988  0.1468  0.2274 -0.2966
   47loPI   C4B  752   5.367   9.809   7.814  0.0794  0.3452 -0.0890
   48loPI    C1  753   4.203  12.993   9.214 -0.1322  0.0780 -0.1012
   48loPI    C2  754   3.824  13.097   9.138 -0.1535  0.0527 -0.0306
   48loPI    C3  755   4.021  13.267   9.442  0.0249  0.3633 -0.3123
   48loPI   PO4  756   4.367  12.997   9.007 -0.1556  0.0380  0.1277
   48loPI   GL1  757   4.530  12.816   8.666 -0.0260 -0.0082  0.3409
   48loPI   GL2  758   4.833  12.549   8.676  0.2449  0.1306 -0.0861
   48loPI   C1A  759   4.818  12.845   8.285 -0.1863  0.1440 -0.0015
   48loPI   C2A  760   4.955  12.988   7.897  0.2924  0.0373 -0.0935
   48loPI   C3A  761   4.633  12.821   7.530  0.1101 -0.1372  0.3194
   48loPI   C4A  762   4.493  12.839   7.029 -0.2190 -0.1722 -0.1966
   48loPI   C5A  763   4.285  12.813   6.656  0.0162  0.1941 -0.1907
   48loPI   C6A  764   4.062  12.632   6.356  0.3075  0.0463  0.1564
   48loPI   C1B  765   4.750  12.136   8.368  0.4466 -0.3490 -0.1908
   48loPI   C2B  766   4.707  12.002   7.934 -0.0787 -0.2882 -0.2172
   48loPI   C3B  767   4.642  11.944   7.558  0.3073 -0.2288 -0.1410
   48loPI   C4B  768   4.422  12.101   7.223  0.4590 -0.5533 -0.1461
   49loPI    C1  769   6.866   9.176   9.754 -0.1601  0.2089  0.0233
   49loPI    C2  770   6.639   9.299  10.060 -0.1399  0.1180  0.0754
   49loPI    C3  771   6.518   9.359   9.683 -0.2712  0.0315  0.1034
   49loPI   PO4  772   6.870   8.857   9.720 -0.0529 -0.1183 -0.3350
   49loPI   GL1  773   7.158   8.553   9.604  0.0582 -0.5138 -0.0984
   49loPI   GL2  774   6.925   8.593   9.305 -0.2161  0.1842 -0.0648
   49loPI   C1A  775   7.395   8.449   9.214 -0.2668 -0.2600 -0.0672
   49loPI   C2A  776   7.603   8.329   8.815 -0.1278 -0.1325 -0.0704
   49loPI   C3A  777   7.933   8.263   8.497 -0.1331 -0.1452 -0.0040
   49loPI   C4A  778   7.858   8.137   8.025 -0.1383 -0.2106  0.1199
   49loPI   C5A  779   8.156   8.045   7.760 -0.0041  0.0639 -0.3159
   49loPI   C6A  780   8.170   7.873   7.248  0.2087  0.1035 -0.0562
   49loPI   C1B  781   7.212   8.849   8.964  0.0713  0.1437  0.1592
   49loPI   C2B  782   7.443   8.755   8.582 -0.0701 -0.4014  0.1476
   49loPI   C3B  783   7.699   8.587   8.206 -0.3376 -0.3542  0.0114
   49loPI   C4B  784   7.913   8.599   7.788 -0.0630  0.2482 -0.2573
   50loPI    C1  785  14.875  14.363   9.638 -0.2945 -0.2365 -0.2669
   50loPI    C2  786  14.902  14.174   9.989 -0.1739  0.0195 -0.1356
   50loPI    C3  787  14.616  14.072   9.729 -0.2833 -0.1512  0.0487
   50loPI   PO4  788  15.143  14.419   9.553  0.0971  0.2597  0.0435
   50loPI   GL1  789  15.355  14.156   9.277 -0.0776  0.0508 -0.1184
   50loPI   GL2  790  15.709  14.124   9.173  0.0271  0.2199 -0.2050
   50loPI   C1A  791  15.360  14.278   8.854 -0.0576  0.0302  0.0502
   50loPI   C2A  792  15.314  14.339   8.370  0.0229 -0.0982 -0.1987
   50loPI   C3A  793  15.035  14.487   8.095  0.0415 -0.2975  0.1269
   50loPI   C4A  794  15.143  14.671   7.748 -0.1077 -0.0360  0.2704
   50loPI   C5A  795  15.601  14.748   7.428 -0.2123  0.0965 -0.4436
   50loPI   C6A  796  15.992  14.621   7.319  0.2458  0.1576  0.0275
   50loPI   C1B  797  15.904  13.969   8.849  0.1084 -0.0648  0.1490
   50loPI   C2B  798  16.071  13.794   8.565  0.0718 -0.3590  0.1417
   50loPI   C3B  799  16.301  13.586   8.295  0.0888 -0.3361  0.1874
   50loPI   C4B  800  16.122  13.632   7.924 -0.0775  0.2667 -0.2871
   51loPI    C1  801   5.681  10.007  10.141 -0.1602  0.1591 -0.0701
   51loPI    C2  802   5.810   9.631  10.100 -0.0345  0.2069 -0.1195
   51loPI    C3  803   5.852   9.819  10.450 -0.1562  0.1535 -0.0757
   51loPI   PO4  804   5.718  10.158   9.808 -0.3269 -0.1223  0.2165
   51loPI   GL1  805   5.698  10.212   9.313  0.1130 -0.0020 -0.0228
   51loPI   GL2  806   5.765  10.565   9.426  0.2023 -0.2452 -0.0920
   51loPI   C1A  807   6.037  10.334   9.052  0.0761 -0.3171 -0.0952
   51loPI   C2A  808   6.331  10.403   8.734  0.0051  0.2984  0.1750
   51loPI   C3A  809   6.466  10.503   8.515 -0.0410  0.2238  0.1790
   51loPI   C4A  810   6.517  10.512   8.056 -0.1967  0.0926  0.0992
   51loPI   C5A  811   6.681  10.740   7.721  0.1864 -0.0503 -0.0102
   51loPI   C6A  812   6.912  11.046   7.350 -0.2508  0.3025 -0.2593
   51loPI   C1B  813   5.869  10.802   9.073 -0.1357 -0.1423 -0.0178
   51loPI   C2B  814   5.958  10.735   8.680 -0.1669  0.5070 -0.2025
   51loPI   C3B  815   6.051  10.792   8.126 -0.2458  0.0801  0.0036
   51loPI   C4B  816   6.037  10.589   7.678 -0.2385 -0.0660 -0.1665
   52loPI    C1  817  16.268  10.126  10.042 -0.0229 -0.0442 -0.0204
   52loPI    C2  818  16.016  10.421  10.140 -0.0605 -0.0197 -0.1879
   52loPI    C3  819  16.026  10.086  10.359  0.1753  0.2122  0.1679
   52loPI   PO4  820  16.249  10.008   9.811  0.0729  0.1570  0.3244
   52loPI   GL1  821  16.425  10.136   9.327  0.0423 -0.0568 -0.1597
   52loPI   GL2  822  16.069  10.085   9.351 -0.3731  0.0153  0.1914
   52loPI   C1A  823  16.633  10.337   8.924 -0.0126  0.0761  0.1007
   52loPI   C2A  824  16.331  10.494   8.622  0.2574  0.0336  0.0691
   52loPI   C3A  825  16.040  10.557   8.339 -0.2385 -0.1096  0.1865
   52loPI   C4A  826  15.992  10.277   7.929 -0.0193 -0.1912  0.1271
   52loPI   C5A  827  15.758   9.929   7.677 -0.2926  0.0077 -0.1240
   52loPI   C6A  828  15.395   9.811   7.430 -0.0634  0.3559 -0.0660
   52loPI   C1B  829  16.128  10.080   8.911 -0.1637 -0.0541  0.0575
   52loPI   C2B  830  15.931  10.025   8.456 -0.0840 -0.0523 -0.1344
   52loPI   C3B  831  15.617  10.119   8.162  0.1205 -0.1556 -0.0118
   52loPI   C4B  832  15.326  10.176   7.786 -0.2722 -0.2765  0.2227
   53loPI    C1  833  16.600  14.371   9.675 -0.1107  0.1430  0.0666
   53loPI    C2  834  16.891  14.640   9.622  0.2789 -0.3122 -0.1943
   53loPI    C3  835  16.778  14.537   9.992  0.2621  0.0575 -0.0921
   53loPI   PO4  836  16.688  14.141   9.458 -0.0251 -0.4306  0.4141
   53loPI   GL1  837  16.755  13.991   9.052  0.2706  0.2334 -0.4443
   53loPI   GL2  838  16.853  13.651   8.987  0.0507 -0.2532  0.0640
   53loPI   C1A  839  16.632  13.941   8.543 -0.0251  0.0629 -0.0602
   53loPI   C2A  840  16.772  13.881   8.166 -0.0229 -0.1365 -0.0717
   53loPI   C3A  841  16.816  13.656   7.871 -0.0793 -0.0837 -0.1045
   53loPI   C4A  842  17.026  13.568   7.522 -0.1578  0.0196  0.3559
   53loPI   C5A  843  17.225  13.447   7.153 -0.4764 -0.1950  0.1382
   53loPI   C6A  844  17.175  13.789   6.932 -0.0299 -0.0493 -0.1064
   53loPI   C1B  845  16.797  13.458   8.499 -0.0491  0.0158 -0.0166
   53loPI   C2B  846  17.171  13.348   8.193 -0.0126  0.0241  0.0477
   53loPI   C3B  847  17.170  13.198   7.781  0.0984  0.2141  0.2789
   53loPI   C4B  848  16.838  12.936   7.566  0.0635 -0.4084 -0.0206
   54loPI    C1  849   2.674  13.695   9.615  0.1504 -0.1117 -0.1697
   54loPI    C2  850   2.749  13.568   9.987 -0.1095 -0.1244 -0.1197
   54loPI    C3  851   2.888  13.923   9.864  0.1951 -0.2330 -0.0964
   54loPI   PO4  852   2.777  13.607   9.463 -0.1020  0.2054 -0.2449
   54loPI   GL1  853   2.832  13.516   9.093 -0.0072  0.0906 -0.0466
   54loPI   GL2  854   2.802  13.792   8.925 -0.0338 -0.0102 -0.0109
   54loPI   C1A  855   2.916  13.253   8.755  0.0391  0.1095 -0.2872
   54loPI   C2A  856   2.879  13.170   8.339  0.0070 -0.0616 -0.1731
   54loPI   C3A  857   3.027  13.268   8.004 -0.1582  0.1276  0.1078
   54loPI   C4A  858   3.063  13.369   7.509 -0.0337  0.2198  0.2672
   54loPI   C5A  859   3.111  13.471   7.070  0.0503  0.1243 -0.0599
   54loPI   C6A  860   3.130  13.420   6.616  0.0526  0.1023  0.0934
   54loPI   C1B  861   3.165  13.641   8.664  0.0067 -0.3847 -0.0890
   54loPI   C2B  862   3.463  13.583   8.315 -0.2267  0.1892  0.0705
   54loPI   C3B  863   3.781  13.624   8.025  0.0756 -0.0123  0.1290
   54loPI   C4B  864   4.207  13.487   8.091  0.0706 -0.0577  0.0836
   55loPI    C1  865   9.634  16.831   9.771  0.2858 -0.3013  0.2102
   55loPI    C2  866   9.558  17.194   9.920 -0.2164 -0.2084 -0.2409
   55loPI    C3  867   9.625  16.886  10.167  0.0129  0.1433  0.1489
   55loPI   PO4  868   9.488  16.840   9.528  0.1668 -0.3807  0.1522
   55loPI   GL1  869   9.309  16.739   9.181  0.2239 -0.0015  0.2741
   55loPI   GL2  870   9.566  16.653   9.088  0.1476 -0.2400  0.0052
   55loPI   C1A  871   9.233  17.060   8.911 -0.2830 -0.0753 -0.0037
   55loPI   C2A  872   9.419  17.050   8.514 -0.0555 -0.1809 -0.0895
   55loPI   C3A  873   9.467  16.782   8.040  0.5358 -0.0989  0.1683
   55loPI   C4A  874   9.037  16.804   7.703  0.3666 -0.1284  0.0245
   55loPI   C5A  875   8.660  16.764   7.530 -0.0057  0.0915 -0.4165
   55loPI   C6A  876   8.331  16.975   7.396  0.2429 -0.1557  0.3899
   55loPI   C1B  877   9.774  16.918   8.847  0.0043 -0.1123 -0.0665
   55loPI   C2B  878  10.106  17.173   8.721 -0.0223  0.2201 -0.0771
   55loPI   C3B  879  10.246  17.301   8.332 -0.1964  0.1300  0.2279
   55loPI   C4B  880  10.103  17.457   7.903  0.2837  0.1704 -0.3846
   56loPI    C1  881  15.187  17.447   9.825  0.0367  0.0750  0.1880
   56loPI    C2  882  15.103  17.414  10.215  0.2401  0.2543  0.2494
   56loPI    C3  883  15.459  17.553  10.099  0.2516  0.0229 -0.0026
   56loPI   PO4  884  15.249  17.196   9.622  0.0768  0.2039 -0.1773
   56loPI   GL1  885  15.241  17.149   9.268 -0.1542  0.2219  0.0322
   56loPI   GL2  886  15.472  17.157   9.035  0.0825  0.0494  0.0993
   56loPI   C1A  887  15.053  17.346   8.930  0.0681 -0.0104 -0.0585
   56loPI   C2A  888  14.664  17.318   8.660 -0.0984 -0.2128  0.0059
   56loPI   C3A  889  14.560  16.960   8.338  0.0335 -0.0188  0.2949
   56loPI   C4A  890  14.505  16.689   7.948 -0.1127  0.1040 -0.2116
   56loPI   C5A  891  14.237  16.726   7.508  0.0267 -0.1526 -0.0962
   56loPI   C6A  892  13.759  16.734   7.385 -0.1222  0.1063 -0.0982
   56loPI   C1B  893  15.538  16.729   8.797  0.0920 -0.0185 -0.0333
   56loPI   C2B  894  15.430  16.638   8.306 -0.2584  0.0339  0.2510
   56loPI   C3B  895  15.514  16.684   7.943 -0.1425 -0.0164 -0.0881
   56loPI   C4B  896  15.626  16.943   7.623  0.2165 -0.1640  0.0730
   57loPI    C1  897  17.890  12.067   9.688 -0.2473 -0.2792 -0.0662
   57loPI    C2  898  17.664  11.917   9.982 -0.0820 -0.0406  0.1874
   57loPI    C3  899  18.021  12.077  10.066 -0.0872  0.1439 -0.1278
   57loPI   PO4  900  17.742  12.185   9.571  0.2147 -0.0902  0.0646
   57loPI   GL1  901  17.713  12.099   9.149 -0.3547  0.2236  0.0844
   57loPI   GL2  902  17.477  11.874   9.256 -0.3357 -0.1366 -0.0318
   57loPI   C1A  903  17.743  12.241   8.750 -0.4316 -0.2601  0.2287
   57loPI   C2A  904  17.753  12.144   8.380  0.4687  0.1726  0.0003
   57loPI   C3A  905  17.625  11.895   7.968 -0.1250 -0.1776 -0.3271
   57loPI   C4A  906  17.757  11.697   7.551  0.0395  0.0432 -0.0257
   57loPI   C5A  907  17.627  11.586   7.133 -0.1690 -0.2514 -0.2197
   57loPI   C6A  908  17.652  11.360   6.701 -0.1126  0.1922 -0.0551
   57loPI   C1B  909  17.377  11.679   8.853  0.1367 -0.0821 -0.3210
   57loPI   C2B  910  17.279  11.495   8.393 -0.4249  0.1112  0.2195
   57loPI   C3B  911  17.176  11.478   7.919  0.0714  0.1884  0.2295
   57loPI   C4B  912  17.238  11.801   7.606  0.2557 -0.1231 -0.1706
   58loPI    C1  913   7.625  12.762   9.593 -0.0740 -0.0197 -0.0601
   58loPI    C2  914   7.896  12.912   9.847 -0.1919 -0.0709  0.0972
   58loPI    C3  915   7.545  13.098   9.795 -0.1543 -0.0413 -0.0560
   58loPI   PO4  916   7.751  12.734   9.313  0.1762  0.0057  0.0690
   58loPI   GL1  917   7.994  12.918   8.941  0.1483 -0.1789 -0.1042
   58loPI   GL2  918   7.630  12.899   8.897 -0.3317 -0.6395 -0.0857
   58loPI   C1A  919   8.118  12.906   8.532 -0.1750  0.0203  0.0905
   58loPI   C2A  920   8.183  12.869   7.984  0.1184 -0.0049 -0.0481
   58loPI   C3A  921   8.353  12.691   7.668  0.3291  0.0265 -0.0989
   58loPI   C4A  922   8.574  12.465   7.314  0.2948 -0.1682 -0.3725
   58loPI   C5A  923   8.807  12.390   6.980  0.0529 -0.0982 -0.1619
   58loPI   C6A  924   8.808  12.564   6.461 -0.0288  0.1340 -0.2382
   58loPI   C1B  925   7.608  13.116   8.425  0.2687  0.1543 -0.0068
   58loPI   C2B  926   7.598  13.024   7.980  0.2988  0.1718 -0.1079
   58loPI   C3B  927   7.629  12.812   7.718  0.0219  0.0141  0.1832
   58loPI   C4B  928   7.558  12.843   7.396 -0.0592 -0.0861  0.1760
   59loPI    C1  929  18.048  12.857   9.604  0.0147  0.0684  0.0673
   59loPI    C2  930  18.145  12.481   9.699  0.0633  0.1314  0.2719
   59loPI    C3  931  18.388  12.782   9.802 -0.0659  0.2358  0.2731
   59loPI   PO4  932  17.842  12.777   9.510 -0.3947  0.1764 -0.2547
   59loPI   GL1  933  17.908  12.530   9.214 -0.0198 -0.0161  0.1731
   59loPI   GL2  934  17.740  12.632   8.992  0.0379  0.1122  0.2570
   59loPI   C1A  935  18.254  12.201   9.022  0.3430 -0.0547  0.0711
   59loPI   C2A  936  18.298  12.140   8.658  0.0085  0.1347 -0.1135
   59loPI   C3A  937  18.179  11.975   8.243 -0.0870  0.6160  0.0532
   59loPI   C4A  938  18.173  11.736   7.851  0.1068 -0.0485  0.0510
   59loPI   C5A  939  18.138  11.375   7.643  0.3502 -0.3228  0.0222
   59loPI   C6A  940  18.099  11.015   7.687  0.4178 -0.0331  0.0318
   59loPI   C1B  941  17.799  12.635   8.449  0.2584 -0.1922 -0.0778
   59loPI   C2B  942  17.866  12.530   8.019 -0.1798 -0.0545  0.2839
   59loPI   C3B  943  17.975  12.687   7.518 -0.1972  0.2152  0.2198
   59loPI   C4B  944  17.974  12.631   7.164  0.1215  0.0131 -0.0015
   60loPI    C1  945   8.703   5.687  10.305  0.1577  0.0182 -0.1020
   60loPI    C2  946   8.567   5.376  10.517  0.4114 -0.3901 -0.5189
   60loPI    C3  947   8.904   5.561  10.626  0.0853 -0.0335 -0.0765
   60loPI   PO4  948   8.680   5.622  10.018 -0.0149  0.1241  0.3008
   60loPI   GL1  949   8.484   5.546   9.595  0.2647 -0.0182  0.4269
   60loPI   GL2  950   8.412   5.765   9.327  0.0456  0.1495 -0.4913
   60loPI   C1A  951   8.672   5.240   9.159  0.2242 -0.1198 -0.0223
   60loPI   C2A  952   8.590   5.164   8.748 -0.1922  0.2523  0.0554
   60loPI   C3A  953   8.300   5.169   8.339 -0.1286 -0.3382 -0.2834
   60loPI   C4A  954   8.394   5.171   7.843  0.2389  0.0438 -0.1092
   60loPI   C5A  955   7.933   5.022   7.616 -0.0377  0.2795 -0.0116
   60loPI   C6A  956   7.681   4.683   7.754  0.1309  0.2223  0.0131
   60loPI   C1B  957   8.570   5.778   8.915  0.2934  0.1024  0.0065
   60loPI   C2B  958   8.719   5.590   8.540 -0.1766 -0.1329 -0.0289
   60loPI   C3B  959   8.746   5.506   8.143  0.2835 -0.1438  0.1119
   60loPI   C4B  960   8.633   5.564   7.764  0.1173 -0.1218 -0.3992
   61loPI    C1  961  18.950  15.474   9.745  0.3248 -0.0725  0.1126
   61loPI    C2  962  19.215  15.597   9.471  0.1602  0.1352  0.0443
   61loPI    C3  963  19.288  15.655   9.860  0.2166  0.1892  0.0257
   61loPI   PO4  964  18.698  15.605   9.629  0.1765 -0.3152 -0.2062
   61loPI   GL1  965  18.691  15.801   9.298  0.1667 -0.0233 -0.0569
   61loPI   GL2  966  18.962  15.895   9.128  0.1274 -0.4186 -0.0664
   61loPI   C1A  967  18.676  15.673   8.820 -0.1179  0.1514  0.0446
   61loPI   C2A  968  18.570  15.929   8.538 -0.0288 -0.1658  0.0901
   61loPI   C3A  969  18.510  16.211   8.169  0.2858 -0.0645 -0.2191
   61loPI   C4A  970  18.276  16.603   7.907 -0.3705  0.2326  0.1970
   61loPI   C5A  971  18.027  16.692   7.507  0.1551 -0.0815  0.2132
   61loPI   C6A  972  17.718  16.963   7.231  0.0643  0.0539  0.0866
   61loPI   C1B  973  19.208  15.898   8.675  0.0890  0.1316 -0.0539
   61loPI   C2B  974  18.996  15.705   8.359 -0.0230  0.1212  0.0090
   61loPI   C3B  975  18.622  15.723   8.092  0.1061  0.0521 -0.2223
   61loPI   C4B  976  18.420  15.412   8.080 -0.0449  0.6115  0.1646
   62loPI    C1  977   7.649  15.287   9.597  0.4155 -0.1050 -0.1061
   62loPI    C2  978   7.708  15.170   9.975  0.2806  0.1593 -0.0002
   62loPI    C3  979   7.765  15.552   9.873  0.0631  0.1434 -0.1891
   62loPI   PO4  980   7.452  15.176   9.505  0.0888  0.1499 -0.0385
   62loPI   GL1  981   7.041  15.207   9.244  0.2941  0.2226 -0.1065
   62loPI   GL2  982   7.133  14.929   9.073  0.0669 -0.4910 -0.2853
   62loPI   C1A  983   7.024  15.374   8.832 -0.2977  0.0362 -0.1129
   62loPI   C2A  984   6.798  15.716   8.542 -0.0079 -0.1495  0.0496
   62loPI   C3A  985   6.459  15.726   8.288  0.0593  0.0517 -0.2564
   62loPI   C4A  986   6.388  15.937   7.884 -0.2070 -0.0879  0.2187
   62loPI   C5A  987   6.263  15.933   7.553  0.1595  0.0909 -0.1010
   62loPI   C6A  988   6.317  15.974   7.068 -0.0939  0.2159 -0.0585
   62loPI   C1B  989   7.241  14.973   8.727 -0.4035  0.1643  0.2714
   62loPI   C2B  990   7.198  15.269   8.280  0.1949  0.2419 -0.1489
   62loPI   C3B  991   7.024  15.678   8.102  0.4178 -0.1150  0.1486
   62loPI   C4B  992   6.813  15.684   7.695  0.0325  0.0051  0.1181
   63loPI    C1  993  17.015  11.751   9.723  0.0039  0.0625 -0.0475
   63loPI    C2  994  17.214  12.095   9.681 -0.0171  0.0436 -0.3211
   63loPI    C3  995  17.159  11.939  10.045  0.0792  0.2772 -0.2043
   63loPI   PO4  996  17.071  11.494   9.430 -0.0391  0.1630 -0.1381
   63loPI   GL1  997  17.308  11.186   9.248 -0.0756  0.4284 -0.0506
   63loPI   GL2  998  17.597  11.336   9.087  0.0360 -0.3218 -0.0177
   63loPI   C1A  999  17.120  11.165   8.898  0.2389 -0.3485 -0.0397
   63loPI   C2A 1000  17.128  11.041   8.458  0.0587 -0.0940  0.1211
   63loPI   C3A 1001  17.183  11.004   8.014  0.1523 -0.2042 -0.0582
   63loPI   C4A 1002  17.070  10.714   7.749 -0.0709 -0.0323  0.1847
   63loPI   C5A 1003  16.667  10.506   7.478  0.1392 -0.3068 -0.2160
   63loPI   C6A 1004  16.342  10.562   7.853 -0.0826 -0.4537  0.2297
   63loPI   C1B 1005  17.695  11.213   8.721  0.3856 -0.0077  0.1128
   63loPI   C2B 1006  17.664  11.040   8.279 -0.2343 -0.0680 -0.0470
   63loPI   C3B 1007  17.582  10.740   7.964 -0.1314 -0.0234 -0.0599
   63loPI   C4B 1008  17.530  10.753   7.544 -0.0888 -0.3388 -0.1910
   64loPI    C1 1009   1.100  17.266   9.315  0.2799  0.1170  0.2675
   64loPI    C2 1010   0.706  17.285   9.380  0.2004  0.1631 -0.1950
   64loPI    C3 1011   0.948  17.140   9.663 -0.1318  0.2479  0.1410
   64loPI   PO4 1012   1.149  17.139   9.097 -0.1286 -0.0063 -0.2578
   64loPI   GL1 1013   1.231  16.752   8.941 -0.2262 -0.3521  0.0004
   64loPI   GL2 1014   1.086  16.407   8.956 -0.1564 -0.0040  0.2180
   64loPI   C1A 1015   1.464  16.677   8.493  0.0815  0.0880 -0.1380
   64loPI   C2A 1016   1.395  16.355   8.204 -0.2319  0.0539  0.1422
   64loPI   C3A 1017   1.494  16.512   7.899  0.1513 -0.0509 -0.2040
   64loPI   C4A 1018   1.420  16.597   7.499 -0.1178  0.0436 -0.5042
   64loPI   C5A 1019   1.181  16.584   7.092 -0.2851 -0.1400  0.0852
   64loPI   C6A 1020   1.076  16.663   6.728  0.2354  0.0144 -0.2966
   64loPI   C1B 1021   0.964  16.442   8.472 -0.0599  0.1465 -0.0002
   64loPI   C2B 1022   0.899  16.403   8.104 -0.1641  0.1848 -0.0089
   64loPI   C3B 1023   0.995  16.323   7.737  0.0843 -0.1241 -0.2650
   64loPI   C4B 1024   1.080  16.128   7.364 -0.4390 -0.0006  0.1771
   65loPI    C1 1025   8.845   3.574  10.213 -0.0010  0.1800 -0.0140
   65loPI    C2 1026   8.653   3.269  10.387 -0.0512  0.0145 -0.3522
   65loPI    C3 1027   9.009   3.210  10.215  0.0749  0.2127 -0.1654
   65loPI   PO4 1028   8.677   3.693   9.962  0.2899  0.0244 -0.3758
   65loPI   GL1 1029   8.776   3.732   9.690 -0.0581 -0.0164  0.0696
   65loPI   GL2 1030   8.589   3.899   9.419 -0.1629  0.2797 -0.0617
   65loPI   C1A 1031   9.044   3.695   9.319 -0.1736 -0.3138  0.3267
   65loPI   C2A 1032   9.093   3.794   8.891 -0.5030  0.1355 -0.0828
   65loPI   C3A 1033   9.247   3.811   8.438  0.0400  0.1885  0.0636
   65loPI   C4A 1034   9.119   3.983   8.001 -0.1393  0.2930  0.0182
   65loPI   C5A 1035   8.942   4.304   7.759  0.0092  0.0516  0.0494
   65loPI   C6A 1036   9.092   4.619   7.437 -0.0181  0.0716 -0.1716
   65loPI   C1B 1037   8.610   3.866   8.948 -0.2393 -0.0485  0.2940
   65loPI   C2B 1038   8.695   3.739   8.517  0.2146 -0.5137  0.1655
   65loPI   C3B 1039   8.707   3.728   8.011  0.0284  0.0407 -0.3800
   65loPI   C4B 1040   8.810   3.772   7.667  0.1566  0.4080 -0.0724
   66loPI    C1 1041   5.838  14.728   9.610 -0.0195 -0.1825 -0.1545
   66loPI    C2 1042   6.002  14.797   9.968  0.0425 -0.1739 -0.1846
   66loPI    C3 1043   5.618  14.691   9.942  0.0144 -0.0881 -0.1212
   66loPI   PO4 1044   5.962  14.974   9.443  0.2934  0.2601 -0.4937
   66loPI   GL1 1045   6.181  15.043   9.135  0.0793 -0.0132 -0.2857
   66loPI   GL2 1046   5.898  15.188   8.909  0.3107 -0.0136 -0.0224
   66loPI   C1A 1047   6.345  14.726   8.803  0.0097  0.4412 -0.2235
   66loPI   C2A 1048   6.479  14.750   8.328 -0.1290 -0.2761 -0.3261
   66loPI   C3A 1049   6.657  14.655   7.997  0.1029  0.0556  0.2889
   66loPI   C4A 1050   6.606  14.846   7.614  0.0991  0.0282 -0.0061
   66loPI   C5A 1051   6.412  14.721   7.210  0.1627  0.0387  0.0543
   66loPI   C6A 1052   6.316  14.931   6.796 -0.3842  0.0431  0.1796
   66loPI   C1B 1053   5.701  15.298   8.428  0.0243  0.1823 -0.2357
   66loPI   C2B 1054   5.811  15.211   7.955 -0.1548  0.1256  0.0921
   66loPI   C3B 1055   5.637  15.203   7.473  0.0560 -0.3110 -0.1820
   66loPI   C4B 1056   5.487  15.345   7.052  0.2164 -0.3823 -0.0211
   67loPI    C1 1057  14.115   2.181   9.605 -0.1012 -0.0346 -0.1844
   67loPI    C2 1058  14.247   2.557   9.574  0.1800 -0.1390 -0.2870
   67loPI    C3 1059  14.447   2.293   9.798  0.0586 -0.2626 -0.3229
   67loPI   PO4 1060  14.185   2.109   9.329 -0.0137  0.0408 -0.1988
   67loPI   GL1 1061  14.345   2.086   8.876  0.6409 -0.1448  0.0433
   67loPI   GL2 1062  14.019   2.185   8.862 -0.3033  0.0300  0.4068
   67loPI   C1A 1063  14.580   1.927   8.481 -0.3289 -0.1500 -0.2083
   67loPI   C2A 1064  14.595   1.704   8.032  0.0257  0.1598 -0.3885
   67loPI   C3A 1065  14.349   1.432   7.774  0.0343 -0.1623  0.1551
   67loPI   C4A 1066  14.516   1.263   7.392  0.0789 -0.2093  0.2793
   67loPI   C5A 1067  14.827   1.170   7.179  0.1083  0.1945 -0.1072
   67loPI   C6A 1068  15.066   1.351   6.750 -0.0292 -0.1928  0.1866
   67loPI   C1B 1069  14.147   2.270   8.333  0.2303 -0.1140  0.0068
   67loPI   C2B 1070  14.134   2.520   7.945 -0.0278 -0.1792 -0.0000
   67loPI   C3B 1071  14.348   2.500   7.603  0.0739 -0.1536  0.0699
   67loPI   C4B 1072  14.779   2.621   7.517 -0.2380 -0.0957  0.0937
   68loPI    C1 1073  14.207   8.993  10.311 -0.0359 -0.1006  0.0762
   68loPI    C2 1074  14.101   9.302  10.079  0.1106  0.0566  0.2160
   68loPI    C3 1075  13.823   9.102  10.285 -0.0702 -0.3053 -0.3571
   68loPI   PO4 1076  14.407   8.834  10.181  0.0698  0.0445 -0.2260
   68loPI   GL1 1077  14.279   8.634   9.803  0.2462 -0.0938 -0.1208
   68loPI   GL2 1078  13.987   8.791   9.818  0.1377  0.2301  0.0402
   68loPI   C1A 1079  14.470   8.367   9.321  0.2421  0.0142 -0.3254
   68loPI   C2A 1080  14.405   8.111   8.969  0.1809 -0.0619 -0.1815
   68loPI   C3A 1081  14.255   8.125   8.665 -0.0728  0.0338 -0.2250
   68loPI   C4A 1082  14.193   8.061   8.297  0.0897 -0.1315  0.0380
   68loPI   C5A 1083  14.396   8.146   7.844  0.0976  0.0415 -0.1917
   68loPI   C6A 1084  14.394   8.246   7.503  0.1367  0.3036 -0.0461
   68loPI   C1B 1085  14.104   8.874   9.351  0.1240 -0.2397 -0.0983
   68loPI   C2B 1086  14.108   9.205   9.038 -0.0576 -0.2026  0.1067
   68loPI   C3B 1087  14.228   9.078   8.596  0.1802 -0.1950  0.0010
   68loPI   C4B 1088  14.364   9.047   8.156  0.0194 -0.0872  0.1517
   69loPI    C1 1089  11.462   3.209   9.838  0.2002 -0.0185  0.1067
   69loPI    C2 1090  11.479   2.950   9.533 -0.1859 -0.0230  0.0837
   69loPI    C3 1091  11.168   2.943   9.784 -0.0657  0.2421  0.2450
   69loPI   PO4 1092  11.374   3.506   9.741 -0.5718  0.2947 -0.0401
   69loPI   GL1 1093  11.522   3.577   9.249 -0.1909  0.0868  0.1735
   69loPI   GL2 1094  11.561   3.829   9.124 -0.0728  0.1245  0.0187
   69loPI   C1A 1095  11.653   3.178   9.073 -0.0697  0.0722  0.0548
   69loPI   C2A 1096  11.471   2.941   8.663  0.0096  0.0287  0.2806
   69loPI   C3A 1097  11.473   2.984   8.247 -0.0986 -0.2313  0.1332
   69loPI   C4A 1098  11.685   2.896   7.821 -0.2144 -0.1401  0.2394
   69loPI   C5A 1099  11.918   2.865   7.496  0.3646 -0.3948  0.3088
   69loPI   C6A 1100  12.228   2.995   7.120 -0.1656 -0.1989  0.0662
   69loPI   C1B 1101  11.651   3.530   8.686 -0.0771  0.2073  0.4231
   69loPI   C2B 1102  11.709   3.478   8.200 -0.0248  0.0014 -0.0203
   69loPI   C3B 1103  11.788   3.344   7.710  0.2984 -0.0294  0.4715
   69loPI   C4B 1104  11.731   3.209   7.201  0.1693  0.0202 -0.2539
   70loPI    C1 1105   5.712   9.129  10.024 -0.0227 -0.0628 -0.0182
   70loPI    C2 1106   6.055   9.232  10.202  0.1402 -0.5062 -0.0647
   70loPI    C3 1107   5.717   9.212  10.415  0.0840  0.1767 -0.0680
   70loPI   PO4 1108   5.726   8.940   9.901 -0.0284 -0.1373 -0.1037
   70loPI   GL1 1109   5.957   8.931   9.574  0.0213 -0.2217 -0.0856
   70loPI   GL2 1110   5.848   8.701   9.317 -0.3543 -0.2336 -0.0156
   70loPI   C1A 1111   6.010   9.194   9.319 -0.1095 -0.0102  0.1849
   70loPI   C2A 1112   6.255   9.400   9.133  0.1576  0.2093 -0.2010
   70loPI   C3A 1113   6.528   9.491   8.895  0.2676 -0.0214 -0.0946
   70loPI   C4A 1114   6.683   9.778   8.637  0.4101 -0.0817 -0.1766
   70loPI   C5A 1115   6.782   9.671   8.175 -0.3561 -0.0076  0.1631
   70loPI   C6A 1116   6.837   9.734   7.807  0.0943  0.1528 -0.3805
   70loPI   C1B 1117   5.891   8.526   8.938  0.0100  0.0897  0.3132
   70loPI   C2B 1118   6.209   8.499   8.609  0.1798  0.1592 -0.0603
   70loPI   C3B 1119   6.245   8.241   8.227 -0.3298 -0.1404 -0.3669
   70loPI   C4B 1120   6.396   8.328   7.838 -0.3293 -0.0613  0.2021
   71loPI    C1 1121   0.633   3.117   9.132 -0.1986  0.2840 -0.2032
   71loPI    C2 1122   0.734   3.368   9.427  0.1266 -0.0925  0.0162
   71loPI    C3 1123   0.958   3.347   9.096 -0.1345  0.1972 -0.1842
   71loPI   PO4 1124   0.343   3.114   9.120 -0.0680 -0.0458  0.1275
   71loPI   GL1 1125   0.162   2.800   8.789 -0.2641 -0.1025 -0.2355
   71loPI   GL2 1126   0.066   2.554   8.532  0.1647 -0.1231 -0.2764
   71loPI   C1A 1127  -0.285   2.955   8.580 -0.2016  0.0542  0.2374
   71loPI   C2A 1128  -0.483   3.412   8.536  0.1472  0.1043 -0.0050
   71loPI   C3A 1129  -0.818   3.449   8.210  0.1579  0.3105  0.3414
   71loPI   C4A 1130  -0.703   3.277   7.923  0.1023 -0.1960  0.3284
   71loPI   C5A 1131  -0.399   3.275   7.585 -0.2144  0.2603 -0.0331
   71loPI   C6A 1132   0.105   3.252   7.387  0.2921  0.0072  0.2052
   71loPI   C1B 1133   0.086   2.740   8.183 -0.2537  0.0288 -0.1632
   71loPI   C2B 1134  -0.012   2.876   7.787 -0.1054  0.2889  0.1769
   71loPI   C3B 1135  -0.135   2.616   7.451 -0.1288  0.2900  0.1175
   71loPI   C4B 1136   0.174   2.342   7.219  0.0798 -0.1416 -0.0956
   72loPI    C1 1137   4.379  11.393   9.434 -0.1508 -0.0335 -0.1108
   72loPI    C2 1138   4.664  11.656   9.532 -0.1750  0.0130 -0.1646
   72loPI    C3 1139   4.338  11.619   9.761 -0.0055 -0.2275  0.0440
   72loPI   PO4 1140   4.670  11.195   9.300  0.0214  0.0903  0.0919
   72loPI   GL1 1141   4.923  11.108   9.087 -0.2104 -0.0229  0.4468
   72loPI   GL2 1142   4.960  11.351   8.923  0.0445  0.0909 -0.0781
   72loPI   C1A 1143   5.112  10.783   8.824  0.0270  0.0146  0.0636
   72loPI   C2A 1144   5.110  10.760   8.339  0.2186 -0.3523  0.1365
   72loPI   C3A 1145   5.035  10.585   7.982  0.0353 -0.1463 -0.0982
   72loPI   C4A 1146   5.310  10.328   7.708  0.0908  0.1308 -0.3135
   72loPI   C5A 1147   5.264  10.267   7.180 -0.0742 -0.3339 -0.2981
   72loPI   C6A 1148   5.096  10.326   6.692  0.0321  0.1372 -0.2029
   72loPI   C1B 1149   4.993  11.216   8.484 -0.2087 -0.0223  0.0054
   72loPI   C2B 1150   5.249  11.293   8.103  0.2413 -0.2187 -0.0618
   72loPI   C3B 1151   5.410  11.343   7.586 -0.0286  0.2074  0.2254
   72loPI   C4B 1152   5.656  11.494   7.268 -0.0133  0.0673 -0.2128
   73loPI    C1 1153  15.649  19.280   9.745  0.1623 -0.0288  0.0709
   73loPI    C2 1154  15.791  19.596   9.943 -0.1509  0.0502  0.1759
   73loPI    C3 1155  15.413  19.480   9.999 -0.0520 -0.3172  0.1043
   73loPI   PO4 1156  15.782  19.338   9.439 -0.3045  0.2515 -0.1095
   73loPI   GL1 1157  15.938  19.223   9.060 -0.1428 -0.1681 -0.0311
   73loPI   GL2 1158  16.040  19.560   9.029 -0.3875  0.2286  0.4078
   73loPI   C1A 1159  15.871  19.287   8.665  0.0298 -0.3744 -0.0427
   73loPI   C2A 1160  15.796  19.342   8.160 -0.0544 -0.0769 -0.0490
   73loPI   C3A 1161  15.533  19.132   7.977  0.3344  0.0364  0.0380
   73loPI   C4A 1162  15.258  18.991   7.629  0.1336 -0.2001  0.0094
   73loPI   C5A 1163  14.996  18.696   7.501  0.0521 -0.1223  0.3224
   73loPI   C6A 1164  15.154  18.299   7.486 -0.1981  0.2419 -0.2122
   73loPI   C1B 1165  16.275  19.480   8.680  0.0020 -0.1099 -0.1825
   73loPI   C2B 1166  16.208  19.571   8.212 -0.2610 -0.1990  0.0281
   73loPI   C3B 1167  16.188  19.945   7.962 -0.2125  0.1812  0.2998
   73loPI   C4B 1168  15.849  20.292   7.845  0.0809 -0.0999  0.1346
   74loPI    C1 1169   7.573   1.800   9.436 -0.1666  0.0548 -0.0111
   74loPI    C2 1170   7.632   1.711   9.821  0.0894  0.0976 -0.0386
   74loPI    C3 1171   7.266   1.679   9.662  0.0390 -0.2101  0.1313
   74loPI   PO4 1172   7.712   2.087   9.434  0.2377 -0.0473 -0.0175
   74loPI   GL1 1173   7.829   2.104   9.071 -0.0789 -0.1830 -0.1899
   74loPI   GL2 1174   8.099   2.202   9.096  0.0677  0.0988  0.0773
   74loPI   C1A 1175   7.801   2.422   8.770 -0.1266  0.1706 -0.1684
   74loPI   C2A 1176   7.826   2.614   8.471 -0.0374 -0.3495  0.1047
   74loPI   C3A 1177   7.758   2.669   7.952  0.2648 -0.4483 -0.2515
   74loPI   C4A 1178   7.908   2.827   7.503 -0.2467 -0.1847  0.0928
   74loPI   C5A 1179   8.288   2.597   7.254  0.0354  0.0524 -0.0722
   74loPI   C6A 1180   8.340   2.225   7.003  0.0724 -0.2174  0.1043
   74loPI   C1B 1181   8.184   2.214   8.579 -0.0493  0.0983 -0.1824
   74loPI   C2B 1182   8.288   2.455   8.216 -0.2982  0.0390  0.0071
   74loPI   C3B 1183   8.516   2.678   7.884  0.0202  0.1696  0.2968
   74loPI   C4B 1184   8.461   2.966   7.517  0.1175  0.0638 -0.1593
   75loPI    C1 1185  14.406  10.374  10.328  0.0211  0.0425  0.0397
   75loPI    C2 1186  14.357  10.515  10.699 -0.1020  0.0084  0.0367
   75loPI    C3 1187  14.685  10.306  10.607  0.1299  0.3730  0.0154
   75loPI   PO4 1188  14.437  10.552  10.115 -0.3023  0.3062 -0.0436
   75loPI   GL1 1189  14.299  10.467   9.723 -0.2071 -0.2819 -0.1607
   75loPI   GL2 1190  14.256  10.172   9.788 -0.0647  0.0079  0.1523
   75loPI   C1A 1191  14.301  10.838   9.531 -0.0049  0.0534 -0.1151
   75loPI   C2A 1192  14.330  11.149   9.183  0.0197  0.1156  0.2317
   75loPI   C3A 1193  14.153  11.289   8.651  0.0819  0.1646 -0.0492
   75loPI   C4A 1194  14.182  11.154   8.274 -0.0495  0.0282  0.0690
   75loPI   C5A 1195  13.952  10.899   7.950 -0.1527  0.0833 -0.0844
   75loPI   C6A 1196  13.882  10.652   7.646 -0.0581  0.2381 -0.0205
   75loPI   C1B 1197  14.611   9.997   9.475 -0.1378  0.0207 -0.0825
   75loPI   C2B 1198  14.929   9.841   9.192  0.1027 -0.1017 -0.2649
   75loPI   C3B 1199  15.406   9.722   9.066 -0.3864  0.1562 -0.1638
   75loPI   C4B 1200  15.914   9.610   9.165 -0.0610 -0.1864 -0.0240
   76loPI    C1 1201  13.322  18.531   9.310 -0.0023 -0.1117  0.0156
   76loPI    C2 1202  13.595  18.380   9.560 -0.0288  0.1292  0.1933
   76loPI    C3 1203  13.464  18.755   9.610 -0.1983  0.1042 -0.0496
   76loPI   PO4 1204  13.099  18.288   9.262 -0.1934  0.0138 -0.1074
   76loPI   GL1 1205  13.289  17.878   9.112  0.4229 -0.2778  0.0730
   76loPI   GL2 1206  13.515  18.008   9.185 -0.1237 -0.2090  0.2454
   76loPI   C1A 1207  13.310  17.935   8.670  0.0213 -0.0146  0.0689
   76loPI   C2A 1208  13.520  17.697   8.357 -0.0404 -0.0001  0.2212
   76loPI   C3A 1209  13.651  17.795   7.978  0.3215  0.1968  0.0928
   76loPI   C4A 1210  14.115  17.585   7.757  0.0499  0.1431 -0.0042
   76loPI   C5A 1211  14.493  17.558   7.532  0.2586 -0.1893 -0.2674
   76loPI   C6A 1212  14.692  17.456   7.112 -0.4195 -0.2040 -0.2917
   76loPI   C1B 1213  13.803  17.850   8.873 -0.1677  0.0484  0.0590
   76loPI   C2B 1214  13.950  17.977   8.376 -0.1996  0.0065  0.1714
   76loPI   C3B 1215  14.039  18.087   7.961  0.3187 -0.2772  0.1981
   76loPI   C4B 1216  14.275  18.130   7.724 -0.0954  0.1503  0.1901
   77loPI    C1 1217   9.660  11.830   9.746 -0.0393  0.0228  0.0153
   77loPI    C2 1218   9.939  12.051   9.927  0.0673 -0.1243  0.0329
   77loPI    C3 1219   9.594  12.219   9.813  0.1942  0.0773 -0.0614
   77loPI   PO4 1220   9.791  11.764   9.509  0.1264  0.2521 -0.0866
   77loPI   GL1 1221  10.018  11.780   9.175 -0.2796 -0.0980  0.0850
   77loPI   GL2 1222   9.944  12.105   9.107  0.1257  0.1203  0.5105
   77loPI   C1A 1223  10.141  11.759   8.782 -0.0032  0.2181  0.0041
   77loPI   C2A 1224  10.237  11.594   8.447  0.1158 -0.0060  0.1432
   77loPI   C3A 1225  10.218  11.654   8.062 -0.2752 -0.0336  0.0554
   77loPI   C4A 1226  10.028  11.594   7.602  0.2570  0.1279 -0.3977
   77loPI   C5A 1227   9.821  11.374   7.340 -0.1609 -0.2032  0.0210
   77loPI   C6A 1228   9.705  11.141   7.024 -0.2268  0.0090  0.1002
   77loPI   C1B 1229   9.823  12.248   8.686 -0.1073  0.0080 -0.0475
   77loPI   C2B 1230   9.750  12.528   8.436  0.3698 -0.0724  0.2177
   77loPI   C3B 1231   9.607  12.652   8.070 -0.1484 -0.0424  0.0067
   77loPI   C4B 1232   9.159  12.544   7.928 -0.1825  0.3805 -0.3062
   78loPI    C1 1233   7.135   0.197   9.393 -0.1930 -0.1292  0.0498
   78loPI    C2 1234   7.412  -0.065   9.514 -0.0392  0.0309  0.0489
   78loPI    C3 1235   7.080  -0.010   9.731 -0.0918 -0.1935  0.0273
   78loPI   PO4 1236   7.153   0.230   9.113  0.1105 -0.3399  0.0908
   78loPI   GL1 1237   7.086   0.454   8.737 -0.2263 -0.0177 -0.1448
   78loPI   GL2 1238   7.278   0.142   8.655 -0.0354 -0.1210  0.0373
   78loPI   C1A 1239   6.975   0.385   8.287 -0.0959 -0.1048 -0.1523
   78loPI   C2A 1240   6.867   0.216   7.834  0.0179  0.0650 -0.1289
   78loPI   C3A 1241   6.747   0.055   7.354  0.1486 -0.1363 -0.1600
   78loPI   C4A 1242   6.659   0.324   7.055 -0.0610 -0.0168  0.3191
   78loPI   C5A 1243   6.504   0.666   6.872  0.2270  0.0856  0.4108
   78loPI   C6A 1244   6.004   0.795   6.824 -0.3863  0.0929 -0.1504
   78loPI   C1B 1245   7.366   0.097   8.209 -0.1395  0.1288  0.1114
   78loPI   C2B 1246   7.459   0.130   7.706 -0.0760 -0.3894 -0.1787
   78loPI   C3B 1247   7.357   0.049   7.360 -0.0065  0.0627  0.2833
   78loPI   C4B 1248   7.548  -0.037   6.813  0.0167  0.1163  0.3135
   79loPI    C1 1249  18.862   6.198   9.983  0.0072  0.0399 -0.0327
   79loPI    C2 1250  18.581   6.011  10.198  0.0469  0.1253  0.0946
   79loPI    C3 1251  18.783   6.318  10.356  0.0195  0.2424 -0.0945
   79loPI   PO4 1252  18.824   5.982   9.706 -0.0454  0.5286  0.0000
   79loPI   GL1 1253  18.928   6.045   9.340  0.1884 -0.0139 -0.0065
   79loPI   GL2 1254  19.087   5.845   9.260 -0.3015 -0.1718 -0.1684
   79loPI   C1A 1255  19.027   6.171   8.870  0.3717 -0.2281 -0.1249
   79loPI   C2A 1256  18.959   6.198   8.405 -0.0545 -0.0391 -0.3427
   79loPI   C3A 1257  18.952   6.526   8.044  0.2271  0.2327  0.1359
   79loPI   C4A 1258  18.816   6.708   7.726 -0.1003  0.0723  0.2168
   79loPI   C5A 1259  18.498   6.818   7.471 -0.1794 -0.2401 -0.2225
   79loPI   C6A 1260  18.567   7.033   7.051 -0.0372 -0.0862 -0.1035
   79loPI   C1B 1261  19.244   5.569   8.920 -0.0258 -0.2924 -0.1874
   79loPI   C2B 1262  19.346   5.414   8.489 -0.2284  0.3978 -0.0112
   79loPI   C3B 1263  19.292   5.350   8.100 -0.1985  0.2523  0.3386
   79loPI   C4B 1264  19.232   5.231   7.709  0.0343  0.0316 -0.3846
   80loPI    C1 1265   0.781   4.695   9.885  0.0102  0.1539  0.2111
   80loPI    C2 1266   1.017   4.872   9.616  0.0667  0.0265  0.1763
   80loPI    C3 1267   1.156   4.568   9.835 -0.1681 -0.2790 -0.0887
   80loPI   PO4 1268   0.514   4.797   9.757 -0.2375 -0.0043  0.0780
   80loPI   GL1 1269   0.597   4.946   9.330 -0.0588 -0.1986 -0.0688
   80loPI   GL2 1270   0.345   4.654   9.298 -0.3886 -0.1791 -0.3599
   80loPI   C1A 1271   0.554   4.912   8.883  0.4437 -0.0544  0.1744
   80loPI   C2A 1272   0.236   4.991   8.684  0.2450  0.1544  0.2583
   80loPI   C3A 1273   0.144   5.047   8.194  0.2584 -0.1196 -0.3094
   80loPI   C4A 1274   0.208   4.904   7.814  0.0276  0.1327 -0.4609
   80loPI   C5A 1275  -0.005   4.933   7.446 -0.3786  0.0496  0.3270
   80loPI   C6A 1276  -0.120   4.812   7.012 -0.2383 -0.1746 -0.2010
   80loPI   C1B 1277   0.388   4.458   9.033  0.3752  0.1745  0.3033
   80loPI   C2B 1278   0.553   4.130   8.788  0.2365 -0.0016  0.1732
   80loPI   C3B 1279   0.407   4.137   8.395  0.0017 -0.1639  0.0421
   80loPI   C4B 1280   0.318   4.425   7.889  0.0033  0.2991  0.1711
   81loPI    C1 1281  11.077  16.098   9.638 -0.1180  0.1050  0.1949
   81loPI    C2 1282  10.872  16.414   9.504  0.0113  0.1569  0.1172
   81loPI    C3 1283  10.750  16.220   9.833 -0.2934  0.0452 -0.0575
   81loPI   PO4 1284  11.144  15.944   9.414  0.0304 -0.3238 -0.1034
   81loPI   GL1 1285  11.186  16.153   8.988 -0.0702  0.1151  0.3157
   81loPI   GL2 1286  10.917  15.998   8.974  0.2126  0.0945 -0.1474
   81loPI   C1A 1287  11.243  16.005   8.601  0.1666  0.0483  0.0450
   81loPI   C2A 1288  11.205  16.054   8.147  0.0843 -0.0841  0.0715
   81loPI   C3A 1289  10.956  16.181   7.801 -0.2454  0.0255 -0.0662
   81loPI   C4A 1290  10.676  16.256   7.373  0.3019 -0.0185 -0.1114
   81loPI   C5A 1291  10.469  16.580   7.163 -0.2003  0.1009  0.3811
   81loPI   C6A 1292  10.576  16.731   6.788  0.2572 -0.1066 -0.1908
   81loPI   C1B 1293  10.736  15.864   8.711 -0.1657 -0.0807 -0.0117
   81loPI   C2B 1294  10.688  15.730   8.413 -0.2911  0.2432 -0.1344
   81loPI   C3B 1295  10.815  15.630   8.020  0.0300 -0.1762 -0.2524
   81loPI   C4B 1296  10.875  15.686   7.621 -0.0622 -0.0497  0.3171
   82loPI    C1 1297  10.284   4.382   9.922  0.0726  0.1887  0.1818
   82loPI    C2 1298  10.056   4.594   9.672  0.0317 -0.0646  0.0002
   82loPI    C3 1299  10.002   4.199   9.706  0.1005 -0.0479  0.3406
   82loPI   PO4 1300  10.531   4.598   9.865  0.4550 -0.1774 -0.1664
   82loPI   GL1 1301  10.370   4.994   9.689 -0.1304 -0.0958  0.3115
   82loPI   GL2 1302  10.765   4.983   9.586 -0.0061  0.1962  0.1360
   82loPI   C1A 1303  10.305   4.778   9.233 -0.2203  0.0054 -0.0071
   82loPI   C2A 1304  10.299   4.668   8.856 -0.3864 -0.0088 -0.3325
   82loPI   C3A 1305  10.329   4.618   8.473 -0.0562  0.1793 -0.0627
   82loPI   C4A 1306  10.670   4.686   8.273 -0.1787 -0.1388 -0.2050
   82loPI   C5A 1307  10.461   4.649   7.856  0.0464  0.0190  0.2725
   82loPI   C6A 1308  10.252   4.618   7.421  0.0343  0.0902 -0.0910
   82loPI   C1B 1309  10.955   5.020   9.220 -0.0335  0.2261  0.2832
   82loPI   C2B 1310  11.082   5.357   8.954 -0.3786 -0.3817  0.1022
   82loPI   C3B 1311  11.337   5.557   8.688  0.0883 -0.2347 -0.0564
   82loPI   C4B 1312  11.325   5.706   8.246 -0.1144 -0.1229 -0.2165
   83loPI    C1 1313  15.136  10.351   9.905 -0.1438 -0.3315 -0.0077
   83loPI    C2 1314  14.830  10.579   9.783  0.1717  0.1205  0.0218
   83loPI    C3 1315  14.761  10.213   9.929 -0.3390  0.1597 -0.1027
   83loPI   PO4 1316  15.231  10.253   9.687  0.0597 -0.1399  0.1719
   83loPI   GL1 1317  15.058  10.420   9.314 -0.0873 -0.2072  0.0277
   83loPI   GL2 1318  15.221  10.459   8.999 -0.0012  0.0492  0.3342
   83loPI   C1A 1319  14.679  10.485   9.351 -0.2410  0.2131  0.2322
   83loPI   C2A 1320  14.369  10.702   8.919  0.1835  0.0458  0.0143
   83loPI   C3A 1321  14.267  10.747   8.513 -0.0785  0.0081  0.3023
   83loPI   C4A 1322  14.418  10.693   8.092  0.2621  0.0976  0.0407
   83loPI   C5A 1323  14.357  10.504   7.705 -0.2797  0.1095  0.1015
   83loPI   C6A 1324  14.475  10.108   7.469  0.2717  0.1119 -0.0365
   83loPI   C1B 1325  15.360  10.682   8.693  0.2062  0.2421 -0.1043
   83loPI   C2B 1326  15.430  10.574   8.308  0.0152 -0.0151  0.0808
   83loPI   C3B 1327  15.595  10.613   7.845 -0.2343 -0.1637  0.1075
   83loPI   C4B 1328  15.779  10.613   7.442 -0.0407 -0.1066  0.0473
   84loPI    C1 1329   1.752  18.936   9.304  0.0921  0.0731 -0.2997
   84loPI    C2 1330   1.622  18.589   9.455 -0.2177  0.2536 -0.1411
   84loPI    C3 1331   1.697  18.898   9.699  0.5459  0.1524 -0.2234
   84loPI   PO4 1332   1.600  19.103   9.080  0.0503 -0.1122  0.1823
   84loPI   GL1 1333   1.675  19.390   8.794 -0.0444 -0.3778 -0.0884
   84loPI   GL2 1334   1.574  19.621   8.835  0.0390 -0.2372 -0.0826
   84loPI   C1A 1335   1.408  19.506   8.441 -0.0327  0.0255 -0.0411
   84loPI   C2A 1336   1.265  19.802   8.146  0.0905  0.2377 -0.0572
   84loPI   C3A 1337   1.278  19.752   7.685  0.1801  0.0593 -0.2744
   84loPI   C4A 1338   1.198  19.756   7.274 -0.2578 -0.0955 -0.0437
   84loPI   C5A 1339   1.484  19.738   6.986 -0.0983  0.0359 -0.0876
   84loPI   C6A 1340   1.500  19.648   6.529  0.1654 -0.0822 -0.0029
   84loPI   C1B 1341   1.649  19.997   8.450 -0.2673  0.1613 -0.0035
   84loPI   C2B 1342   1.798  19.896   8.051 -0.2441  0.0824 -0.2308
   84loPI   C3B 1343   2.022  20.147   7.810  0.0774 -0.0267  0.0852
   84loPI   C4B 1344   1.755  20.303   7.495 -0.4476  0.5222  0.0844
   85loPI    C1 1345   8.487   1.188   9.482 -0.1585  0.2121  0.1982
   85loPI    C2 1346   8.179   0.949   9.570 -0.0487 -0.1034 -0.2421
   85loPI    C3 1347   8.554   0.823   9.631  0.0086 -0.0200 -0.4155
   85loPI   PO4 1348   8.351   1.276   9.207 -0.1704  0.0841  0.0112
   85loPI   GL1 1349   8.465   1.491   8.712  0.0594 -0.3074  0.0340
   85loPI   GL2 1350   8.883   1.452   8.842 -0.0158 -0.0387  0.2090
   85loPI   C1A 1351   8.483   1.478   8.323  0.2146 -0.0910 -0.1732
   85loPI   C2A 1352   8.579   1.485   7.816 -0.3875  0.3135  0.0041
   85loPI   C3A 1353   8.563   1.531   7.372 -0.0625 -0.0394  0.0898
   85loPI   C4A 1354   8.355   1.698   7.056  0.0741  0.4320  0.2222
   85loPI   C5A 1355   8.499   1.859   6.710  0.1732  0.1972 -0.0715
   85loPI   C6A 1356   8.611   1.754   6.276 -0.1682  0.2868 -0.2354
   85loPI   C1B 1357   8.798   1.051   8.684  0.1262  0.1113  0.3327
   85loPI   C2B 1358   8.770   1.040   8.204  0.0021  0.0296  0.1034
   85loPI   C3B 1359   8.699   0.893   7.855  0.1497 -0.0558  0.2399
   85loPI   C4B 1360   8.821   0.750   7.442 -0.0950  0.1260  0.3496
   86loPI    C1 1361   5.672   0.602   9.260  0.1009  0.1718 -0.0146
   86loPI    C2 1362   5.318   0.464   9.385  0.0925  0.1680 -0.0424
   86loPI    C3 1363   5.641   0.430   9.619  0.0641  0.2167  0.0040
   86loPI   PO4 1364   5.753   0.466   9.081 -0.1974 -0.1796 -0.0656
   86loPI   GL1 1365   5.749   0.445   8.691  0.1284  0.0334 -0.3420
   86loPI   GL2 1366   5.534   0.195   8.702 -0.0435 -0.2295  0.1851
   86loPI   C1A 1367   5.581   0.743   8.483  0.0205 -0.2374 -0.3490
   86loPI   C2A 1368   5.228   0.784   8.299  0.0127  0.1965 -0.2296
   86loPI   C3A 1369   5.040   0.868   7.865 -0.0403 -0.0360 -0.0579
   86loPI   C4A 1370   4.985   0.990   7.512  0.0674 -0.0871 -0.1835
   86loPI   C5A 1371   5.108   1.303   7.038 -0.1947  0.1051 -0.1653
   86loPI   C6A 1372   5.013   1.542   6.807  0.0174 -0.2128 -0.0554
   86loPI   C1B 1373   5.657   0.086   8.317  0.0247 -0.0649  0.1311
   86loPI   C2B 1374   5.492   0.456   8.064 -0.1855  0.1729  0.0353
   86loPI   C3B 1375   5.589   0.841   7.932 -0.1964  0.0834 -0.1595
   86loPI   C4B 1376   5.872   1.185   8.063  0.0773  0.2299  0.2851
   87loPI    C1 1377  10.776   8.825   9.885 -0.0910 -0.0154 -0.2348
   87loPI    C2 1378  10.427   9.008   9.954  0.0451  0.1350  0.0742
   87loPI    C3 1379  10.543   8.705  10.187  0.0790  0.0229 -0.0868
   87loPI   PO4 1380  10.716   8.808   9.527 -0.1888  0.0734  0.0460
   87loPI   GL1 1381  10.533   8.623   9.316  0.1748 -0.2424 -0.0059
   87loPI   GL2 1382  10.386   8.595   9.031  0.0607 -0.2072  0.0582
   87loPI   C1A 1383  10.838   8.743   8.907  0.2548 -0.2929 -0.0778
   87loPI   C2A 1384  10.678   8.758   8.505 -0.1857 -0.0763  0.0833
   87loPI   C3A 1385  10.313   8.718   8.273  0.1084  0.1206  0.1568
   87loPI   C4A 1386  10.141   8.625   7.835  0.1393 -0.1249  0.2207
   87loPI   C5A 1387   9.966   8.422   7.432 -0.0866 -0.0711  0.1785
   87loPI   C6A 1388  10.019   8.007   7.120  0.1083  0.0717 -0.0367
   87loPI   C1B 1389  10.240   8.887   8.736  0.1337 -0.2420 -0.0448
   87loPI   C2B 1390   9.842   8.719   8.517  0.1552 -0.3621 -0.1577
   87loPI   C3B 1391   9.789   8.425   8.111 -0.2354  0.1475 -0.1313
   87loPI   C4B 1392   9.720   8.118   7.805  0.0115  0.0738 -0.1369
   88loPI    C1 1393   7.110  16.837   9.426 -0.0085 -0.1844  0.0273
   88loPI    C2 1394   6.883  16.790   9.752 -0.0482  0.4098  0.0953
   88loPI    C3 1395   7.282  16.784   9.783 -0.0502  0.1020  0.0918
   88loPI   PO4 1396   6.896  16.950   9.242 -0.1485  0.1524  0.0687
   88loPI   GL1 1397   6.847  16.967   8.839 -0.4904 -0.0231  0.0441
   88loPI   GL2 1398   6.833  16.629   8.690 -0.1021 -0.0661  0.2956
   88loPI   C1A 1399   6.725  17.082   8.513  0.0303 -0.1051 -0.2837
   88loPI   C2A 1400   6.807  17.166   8.097  0.0451 -0.0801  0.1385
   88loPI   C3A 1401   6.955  17.211   7.612  0.2073 -0.0315 -0.0969
   88loPI   C4A 1402   6.999  16.946   7.120  0.0028  0.0122  0.0201
   88loPI   C5A 1403   6.999  16.708   6.697  0.0683 -0.3080 -0.2132
   88loPI   C6A 1404   7.308  16.611   6.326  0.0246 -0.0625 -0.2035
   88loPI   C1B 1405   6.879  16.696   8.189 -0.1383  0.1526 -0.1618
   88loPI   C2B 1406   6.856  16.729   7.812 -0.2669  0.0887  0.4832
   88loPI   C3B 1407   7.268  16.749   7.529 -0.0739 -0.1664 -0.1154
   88loPI   C4B 1408   7.547  16.651   7.222  0.0619  0.1779 -0.1732
   89loPI    C1 1409   1.584  16.150   9.090  0.0826 -0.0041  0.0394
   89loPI    C2 1410   1.369  15.869   9.275 -0.1950  0.1640 -0.0219
   89loPI    C3 1411   1.328  16.253   9.379 -0.1315  0.2276 -0.2264
   89loPI   PO4 1412   1.542  16.103   8.867 -0.0165  0.0312 -0.0272
   89loPI   GL1 1413   1.414  15.725   8.718 -0.3112  0.0911 -0.1113
   89loPI   GL2 1414   1.175  15.563   8.776  0.3102 -0.1356 -0.4478
   89loPI   C1A 1415   1.332  15.718   8.194 -0.2421  0.0371  0.2200
   89loPI   C2A 1416   1.330  15.977   7.816  0.0479  0.0328 -0.1127
   89loPI   C3A 1417   1.628  16.135   7.417 -0.0983 -0.4191 -0.1097
   89loPI   C4A 1418   1.481  16.145   6.987  0.1555  0.1072 -0.0108
   89loPI   C5A 1419   1.411  16.281   6.476  0.0199  0.3932  0.1145
   89loPI   C6A 1420   1.398  16.673   6.227 -0.0626  0.0339  0.0086
   89loPI   C1B 1421   1.042  15.389   8.483  0.1070  0.1135  0.1278
   89loPI   C2B 1422   1.127  15.299   7.973 -0.2604 -0.0201 -0.0444
   89loPI   C3B 1423   1.390  15.453   7.596  0.0692 -0.0294  0.0675
   89loPI   C4B 1424   1.468  15.683   7.257  0.1310  0.0442 -0.1802
   90loPI    C1 1425  13.226   5.273   9.933 -0.0246 -0.2435  0.1771
   90loPI    C2 1426  13.478   4.971  10.004  0.3123 -0.0378 -0.1106
   90loPI    C3 1427  13.524   5.198   9.678 -0.0646  0.1955 -0.0080
   90loPI   PO4 1428  12.937   5.134   9.910  0.0973 -0.0018  0.1700
   90loPI   GL1 1429  12.790   4.932   9.570  0.0264  0.1795  0.0945
   90loPI   GL2 1430  13.161   4.834   9.487 -0.0743  0.2365  0.1196
   90loPI   C1A 1431  12.820   4.791   9.115  0.1124 -0.1713  0.2234
   90loPI   C2A 1432  12.859   4.977   8.704  0.0657 -0.0918 -0.1725
   90loPI   C3A 1433  12.999   5.231   8.338  0.1299 -0.1364  0.0884
   90loPI   C4A 1434  13.106   5.604   8.000 -0.0993  0.0404  0.0208
   90loPI   C5A 1435  13.324   5.702   7.649  0.1843 -0.2138  0.0864
   90loPI   C6A 1436  13.766   5.729   7.568  0.2426  0.4003 -0.0040
   90loPI   C1B 1437  13.227   5.144   9.095  0.1985 -0.1236 -0.1842
   90loPI   C2B 1438  13.401   5.244   8.718 -0.6488  0.2742 -0.2702
   90loPI   C3B 1439  13.465   5.297   8.239 -0.2962 -0.1618 -0.1400
   90loPI   C4B 1440  13.701   5.545   8.000 -0.1583  0.0434  0.0039
   91loPI    C1 1441  10.187  16.579   9.742 -0.2073 -0.0291 -0.1619
   91loPI    C2 1442  10.373  16.549  10.095 -0.1862 -0.2253 -0.1888
   91loPI    C3 1443   9.973  16.540  10.077 -0.1995  0.1274 -0.1379
   91loPI   PO4 1444  10.349  16.403   9.459  0.1942 -0.0512 -0.0447
   91loPI   GL1 1445  10.562  16.317   9.026  0.1960  0.3157 -0.1120
   91loPI   GL2 1446  10.812  16.559   8.971 -0.0814  0.1191  0.3010
   91loPI   C1A 1447  10.392  16.170   8.650  0.3035  0.0826 -0.0053
   91loPI   C2A 1448  10.227  15.956   8.318  0.1162  0.0256  0.0139
   91loPI   C3A 1449   9.976  15.929   8.057  0.0901  0.1710 -0.1402
   91loPI   C4A 1450   9.802  15.738   7.773  0.1274 -0.0456 -0.0057
   91loPI   C5A 1451   9.357  15.600   7.534 -0.0670 -0.0735 -0.0441
   91loPI   C6A 1452   8.846  15.513   7.479  0.1049 -0.0417 -0.1560
   91loPI   C1B 1453  10.803  16.462   8.492 -0.1679 -0.3185  0.1534
   91loPI   C2B 1454  10.669  16.216   8.206  0.0929 -0.0562 -0.3783
   91loPI   C3B 1455  10.462  15.981   7.853 -0.1017 -0.1759 -0.1568
   91loPI   C4B 1456  10.253  16.029   7.470  0.1720  0.1166  0.1459
   92loPI    C1 1457   2.026   6.610   9.931  0.3285 -0.2971 -0.1569
   92loPI    C2 1458   1.786   6.395  10.168  0.0621  0.0669 -0.0864
   92loPI    C3 1459   2.183   6.377  10.215  0.0309 -0.1947  0.0978
   92loPI   PO4 1460   2.062   6.642   9.725  0.3948  0.3315  0.4675
   92loPI   GL1 1461   1.790   6.632   9.366 -0.0731 -0.0421  0.2203
   92loPI   GL2 1462   1.913   6.969   9.351  0.2408 -0.2743  0.1623
   92loPI   C1A 1463   1.689   6.380   8.951 -0.1920 -0.1157  0.1392
   92loPI   C2A 1464   1.863   6.218   8.530  0.0674  0.0860 -0.1516
   92loPI   C3A 1465   1.762   6.365   8.126 -0.3438 -0.3592 -0.0072
   92loPI   C4A 1466   1.684   6.414   7.617  0.0424  0.1816  0.3934
   92loPI   C5A 1467   1.413   6.704   7.428 -0.2655 -0.0845  0.0745
   92loPI   C6A 1468   1.250   6.634   6.976 -0.2514 -0.0023  0.0345
   92loPI   C1B 1469   1.920   6.914   8.853 -0.0998 -0.1392 -0.1559
   92loPI   C2B 1470   1.872   6.761   8.519 -0.1754 -0.1691  0.0529
   92loPI   C3B 1471   1.678   6.869   8.121  0.0630  0.2454 -0.0738
   92loPI   C4B 1472   1.968   6.768   7.846 -0.0499  0.0019  0.0807
   93loPI    C1 1473  14.894   9.125  10.184  0.0995  0.0665 -0.3278
   93loPI    C2 1474  14.557   9.328  10.258  0.1376  0.1202 -0.3015
   93loPI    C3 1475  14.687   9.054  10.519  0.0761  0.0486 -0.3460
   93loPI   PO4 1476  15.006   9.354  10.079  0.1637 -0.4094 -0.2405
   93loPI   GL1 1477  14.837   9.541   9.748 -0.0669  0.2241 -0.1850
   93loPI   GL2 1478  14.584   9.699   9.934  0.1639  0.0551 -0.2822
   93loPI   C1A 1479  14.625   9.344   9.380  0.0264 -0.3790  0.0571
   93loPI   C2A 1480  14.576   9.350   8.938  0.1651  0.2238 -0.0766
   93loPI   C3A 1481  14.727   9.412   8.450  0.1604 -0.2104 -0.3068
   93loPI   C4A 1482  14.539   9.466   7.976  0.3211  0.0553  0.0857
   93loPI   C5A 1483  14.552   9.611   7.584 -0.0269 -0.0281  0.1743
   93loPI   C6A 1484  14.442   9.606   7.057 -0.2054 -0.0411 -0.1718
   93loPI   C1B 1485  14.275   9.619   9.544 -0.1838 -0.1421  0.1791
   93loPI   C2B 1486  14.163   9.673   9.156  0.0286  0.1799 -0.2431
   93loPI   C3B 1487  14.360   9.729   8.768 -0.1057  0.0972  0.2304
   93loPI   C4B 1488  14.196   9.554   8.369  0.0646 -0.0449 -0.2105
   94loPI    C1 1489  19.100   8.624  10.469  0.1699  0.2313  0.0538
   94loPI    C2 1490  18.948   8.305  10.656 -0.0548  0.1459 -0.2659
   94loPI    C3 1491  18.951   8.661  10.838  0.2531 -0.0445  0.1176
   94loPI   PO4 1492  19.034   8.564  10.161 -0.0686 -0.1087  0.1152
   94loPI   GL1 1493  19.173   8.182   9.882  0.1187 -0.4017  0.1687
   94loPI   GL2 1494  18.905   7.982   9.893 -0.0837 -0.0030 -0.1376
   94loPI   C1A 1495  19.147   8.328   9.429  0.1344  0.2004  0.2605
   94loPI   C2A 1496  19.102   8.306   9.108 -0.2169  0.1288 -0.0315
   94loPI   C3A 1497  18.982   8.432   8.679 -0.0946  0.2389  0.0748
   94loPI   C4A 1498  18.923   8.535   8.309  0.1867  0.1734 -0.4575
   94loPI   C5A 1499  18.872   8.627   7.960 -0.0467 -0.1117 -0.1451
   94loPI   C6A 1500  19.155   8.773   7.652 -0.0840 -0.2915 -0.0175
   94loPI   C1B 1501  18.892   7.854   9.506 -0.1863 -0.1222  0.0158
   94loPI   C2B 1502  18.992   7.818   9.071 -0.1343  0.0367 -0.1087
   94loPI   C3B 1503  18.666   7.750   8.856  0.0327 -0.1695 -0.5206
   94loPI   C4B 1504  18.318   7.856   8.745 -0.0248 -0.3003 -0.1390
   95loPI    C1 1505   1.432   9.263  10.039 -0.0185  0.1104 -0.0735
   95loPI    C2 1506   1.546   9.540  10.303  0.2408 -0.1862  0.1338
   95loPI    C3 1507   1.372   9.203  10.430  0.0610 -0.1847 -0.1034
   95loPI   PO4 1508   1.328   9.404   9.817  0.2580 -0.5625 -0.2647
   95loPI   GL1 1509   1.199   9.436   9.405 -0.2548 -0.0658  0.2811
   95loPI   GL2 1510   1.504   9.661   9.365 -0.2247  0.1224 -0.0156
   95loPI   C1A 1511   1.403   9.229   8.959 -0.0356  0.1349  0.2685
   95loPI   C2A 1512   1.312   9.265   8.568 -0.1965  0.3370  0.1903
   95loPI   C3A 1513   1.124   9.217   8.117 -0.4793 -0.2736  0.2672
   95loPI   C4A 1514   0.937   9.051   7.844  0.0520 -0.1425  0.2647
   95loPI   C5A 1515   0.861   9.197   7.423 -0.0253 -0.0728  0.1427
   95loPI   C6A 1516   0.696   9.303   7.043  0.1862  0.2497 -0.2627
   95loPI   C1B 1517   1.521   9.696   8.994  0.1767  0.0031  0.1512
   95loPI   C2B 1518   1.416   9.726   8.568  0.0720 -0.0097  0.0573
   95loPI   C3B 1519   1.355   9.637   8.189 -0.0253 -0.0021  0.0280
   95loPI   C4B 1520   1.103   9.599   7.789 -0.0950  0.3994 -0.0382
   96loPI    C1 1521  15.381   6.071   9.691 -0.1985 -0.0796 -0.0937
   96loPI    C2 1522  15.101   5.925   9.936 -0.0140 -0.1704  0.0653
   96loPI    C3 1523  15.383   6.170  10.078 -0.0779  0.0115 -0.1171
   96loPI   PO4 1524  15.537   5.807   9.510  0.2430 -0.2851 -0.0435
   96loPI   GL1 1525  15.677   5.387   9.407 -0.0029  0.0666  0.0330
   96loPI   GL2 1526  15.331   5.263   9.292  0.0286  0.1970  0.1647
   96loPI   C1A 1527  15.761   5.406   8.938 -0.0232 -0.1341  0.1643
   96loPI   C2A 1528  15.585   5.293   8.550  0.3563 -0.0233  0.4588
   96loPI   C3A 1529  15.800   5.268   8.123  0.1635 -0.0719 -0.0661
   96loPI   C4A 1530  15.955   5.403   7.758  0.4909 -0.0670  0.0473
   96loPI   C5A 1531  15.905   5.600   7.323 -0.1421 -0.0346  0.0922
   96loPI   C6A 1532  15.902   6.084   7.177  0.1681  0.0496 -0.0170
   96loPI   C1B 1533  15.347   5.088   8.915 -0.1045 -0.0427  0.1079
   96loPI   C2B 1534  15.649   4.787   8.636  0.1570 -0.0736 -0.2922
   96loPI   C3B 1535  15.807   4.568   8.283  0.1644 -0.0961 -0.1663
   96loPI   C4B 1536  15.767   4.223   8.148  0.4730 -0.0902 -0.0353
   97loPI    C1 1537  12.147  14.694  10.017 -0.0372 -0.2535 -0.0703
   97loPI    C2 1538  11.959  14.491  10.306 -0.1342 -0.1733 -0.0768
   97loPI    C3 1539  12.354  14.450  10.258 -0.1392 -0.2917 -0.0210
   97loPI   PO4 1540  11.974  14.649   9.682  0.3599  0.2356 -0.2143
   97loPI   GL1 1541  11.900  14.505   9.211 -0.1102  0.3946  0.2702
   97loPI   GL2 1542  11.642  14.666   9.269 -0.1998  0.0212 -0.1883
   97loPI   C1A 1543  12.078  14.256   8.896  0.1806 -0.2758  0.2746
   97loPI   C2A 1544  12.337  13.975   8.814  0.2021 -0.0953 -0.2469
   97loPI   C3A 1545  12.569  13.823   8.473  0.2919  0.0518  0.3698
   97loPI   C4A 1546  12.548  13.844   8.045  0.1627 -0.1253  0.1641
   97loPI   C5A 1547  12.564  14.033   7.655 -0.0542  0.3814  0.1301
   97loPI   C6A 1548  12.675  14.385   7.478  0.4783  0.1596  0.1625
   97loPI   C1B 1549  11.686  14.785   8.822  0.1059  0.0999 -0.0791
   97loPI   C2B 1550  11.774  14.512   8.608  0.3616 -0.0816 -0.2381
   97loPI   C3B 1551  11.580  14.485   8.193 -0.0007  0.4175 -0.1520
   97loPI   C4B 1552  11.545  14.287   7.759  0.0225  0.1975 -0.0809
   98loPI    C1 1553   3.588  11.772  10.052 -0.1300 -0.3595 -0.0413
   98loPI    C2 1554   3.578  11.486  10.331  0.1539 -0.0502  0.2967
   98loPI    C3 1555   3.506  11.866  10.432 -0.3505 -0.0084 -0.1695
   98loPI   PO4 1556   3.421  11.681   9.841 -0.2346 -0.1875  0.4505
   98loPI   GL1 1557   3.373  11.329   9.424 -0.0149  0.0062 -0.1455
   98loPI   GL2 1558   3.414  11.612   9.325  0.2313  0.0721  0.1009
   98loPI   C1A 1559   3.365  11.335   8.956  0.2604 -0.1409  0.0056
   98loPI   C2A 1560   3.445  11.428   8.644  0.1173  0.0583  0.0285
   98loPI   C3A 1561   3.398  11.527   8.154  0.0539  0.1885  0.2883
   98loPI   C4A 1562   3.356  11.582   7.701 -0.2899  0.2238  0.0432
   98loPI   C5A 1563   3.259  11.314   7.377  0.3380  0.1830  0.0101
   98loPI   C6A 1564   2.999  11.262   6.948 -0.2011 -0.0149 -0.1504
   98loPI   C1B 1565   3.242  11.824   8.890 -0.1704  0.0306  0.1148
   98loPI   C2B 1566   3.356  11.947   8.483 -0.0366 -0.1602 -0.0773
   98loPI   C3B 1567   3.140  12.044   8.069  0.0484  0.0587  0.1172
   98loPI   C4B 1568   2.986  12.199   7.662 -0.1744 -0.3689 -0.0235
   99loPI    C1 1569   5.558  11.965   9.361 -0.0998  0.0019 -0.0367
   99loPI    C2 1570   5.789  12.285   9.424 -0.0899 -0.0425  0.1582
   99loPI    C3 1571   5.956  11.934   9.332 -0.0910 -0.0303  0.1099
   99loPI   PO4 1572   5.352  12.183   9.173  0.2300 -0.0808 -0.2304
   99loPI   GL1 1573   5.542  12.431   8.954  0.0175 -0.0412 -0.0776
   99loPI   GL2 1574   5.850  12.305   8.934 -0.1081 -0.1977 -0.4372
   99loPI   C1A 1575   5.347  12.546   8.516  0.1489  0.3033  0.1225
   99loPI   C2A 1576   5.254  12.644   8.035  0.1572 -0.0246 -0.0362
   99loPI   C3A 1577   5.185  12.761   7.491  0.4353  0.0784 -0.1407
   99loPI   C4A 1578   5.424  12.709   7.128 -0.0026  0.1659 -0.0749
   99loPI   C5A 1579   5.354  12.711   6.660  0.0357 -0.1770  0.1098
   99loPI   C6A 1580   5.161  12.663   6.259 -0.0850 -0.1548 -0.2478
   99loPI   C1B 1581   6.185  12.209   8.612 -0.2309  0.2334 -0.0414
   99loPI   C2B 1582   6.331  11.960   8.248 -0.1475  0.2237 -0.1133
   99loPI   C3B 1583   6.184  11.897   7.828  0.1655 -0.0511  0.2575
   99loPI   C4B 1584   6.105  11.735   7.417 -0.0085 -0.0824  0.0714
  100loPI    C1 1585  12.357   8.755  10.195  0.0787  0.2282  0.2389
  100loPI    C2 1586  12.217   8.886  10.546 -0.0051  0.1657  0.2293
  100loPI    C3 1587  12.181   8.500  10.448  0.0293  0.1805  0.1571
  100loPI   PO4 1588  12.203   8.788   9.929  0.3965 -0.1770  0.1055
  100loPI   GL1 1589  12.222   8.544   9.666  0.0712 -0.0433  0.1232
  100loPI   GL2 1590  12.073   8.375   9.726 -0.0043 -0.1729  0.0596
  100loPI   C1A 1591  12.269   8.608   9.246 -0.2235  0.2429 -0.1883
  100loPI   C2A 1592  12.399   8.860   8.902  0.2142  0.0942 -0.1924
  100loPI   C3A 1593  12.440   8.870   8.375 -0.1422  0.0003 -0.2009
  100loPI   C4A 1594  12.480   8.819   7.929  0.1037 -0.0756  0.2026
  100loPI   C5A 1595  12.740   8.610   7.620  0.0808  0.2287 -0.0894
  100loPI   C6A 1596  13.064   8.579   7.408  0.2750 -0.1034  0.0940
  100loPI   C1B 1597  11.855   8.402   9.343  0.1377 -0.0684 -0.1394
  100loPI   C2B 1598  11.891   8.484   8.965 -0.0925  0.1039 -0.1179
  100loPI   C3B 1599  12.171   8.480   8.669  0.1545  0.5535 -0.0530
  100loPI   C4B 1600  12.112   8.448   8.343  0.0161  0.2324  0.2112
  101loPI    C1 1601  13.280   4.337   9.783  0.2138  0.1567  0.1620
  101loPI    C2 1602  12.939   4.538   9.837  0.1772  0.2265 -0.2872
  101loPI    C3 1603  13.228   4.556  10.113 -0.1883  0.1448  0.1106
  101loPI   PO4 1604  13.298   4.233   9.509 -0.1904  0.1077  0.0053
  101loPI   GL1 1605  12.972   4.273   9.223 -0.4978  0.2758 -0.0015
  101loPI   GL2 1606  12.695   4.331   9.224 -0.0821 -0.3046  0.2762
  101loPI   C1A 1607  12.873   4.000   8.839 -0.2899 -0.0834 -0.2009
  101loPI   C2A 1608  12.786   4.114   8.443  0.0049 -0.1752  0.1229
  101loPI   C3A 1609  13.025   3.751   8.238  0.1703  0.5041  0.1000
  101loPI   C4A 1610  13.137   3.426   7.925 -0.0156 -0.3920 -0.2448
  101loPI   C5A 1611  13.312   3.403   7.558 -0.1709  0.0002 -0.0213
  101loPI   C6A 1612  13.324   3.293   7.105  0.0956  0.0659  0.1021
  101loPI   C1B 1613  12.801   4.470   8.762  0.1789 -0.0696  0.0694
  101loPI   C2B 1614  12.749   4.593   8.291 -0.2037  0.2593  0.1132
  101loPI   C3B 1615  12.865   4.886   8.030  0.1666  0.3271 -0.1924
  101loPI   C4B 1616  13.006   5.179   7.717 -0.0904  0.0796  0.1370
  102loPI    C1 1617   5.640   0.016   9.385  0.3091 -0.2822  0.3615
  102loPI    C2 1618   5.394  -0.299   9.366 -0.1930  0.1052  0.2063
  102loPI    C3 1619   5.411  -0.078   9.699 -0.0813  0.1038  0.2022
  102loPI   PO4 1620   5.738  -0.021   9.087 -0.1015  0.0526 -0.0980
  102loPI   GL1 1621   5.951  -0.103   8.656 -0.0274  0.1063  0.0750
  102loPI   GL2 1622   5.881  -0.520   8.496  0.0151 -0.1231  0.1344
  102loPI   C1A 1623   6.180   0.229   8.454  0.0081 -0.2439  0.0480
  102loPI   C2A 1624   6.471   0.407   8.127 -0.0857  0.1464  0.0427
  102loPI   C3A 1625   6.516   0.571   7.689 -0.0660 -0.0139  0.2230
  102loPI   C4A 1626   6.348   0.701   7.340  0.0831 -0.1081  0.0248
  102loPI   C5A 1627   6.268   1.070   7.220  0.1193 -0.1181 -0.2319
  102loPI   C6A 1628   5.965   1.279   6.912 -0.1310 -0.0380  0.0004
  102loPI   C1B 1629   5.654  -0.398   8.183 -0.3590  0.0695  0.0195
  102loPI   C2B 1630   5.530  -0.160   7.791  0.1331  0.0182 -0.0498
  102loPI   C3B 1631   5.636   0.179   7.612 -0.1659 -0.3950  0.0035
  102loPI   C4B 1632   5.422   0.720   7.488  0.0132 -0.0400  0.0213
  103loPI    C1 1633  12.591   2.131   9.861  0.1297  0.1920  0.3238
  103loPI    C2 1634  12.305   1.934  10.060  0.1136  0.0486  0.1613
  103loPI    C3 1635  12.423   2.296  10.185 -0.0899  0.0792  0.2693
  103loPI   PO4 1636  12.605   2.053   9.640  0.0858  0.3088  0.1564
  103loPI   GL1 1637  12.328   2.104   9.304 -0.0744  0.2475  0.0104
  103loPI   GL2 1638  12.514   2.393   9.242  0.2595  0.2082 -0.3661
  103loPI   C1A 1639  12.209   1.900   8.953 -0.1942  0.0132  0.0159
  103loPI   C2A 1640  12.308   1.928   8.552  0.0576  0.0049 -0.2579
  103loPI   C3A 1641  12.309   1.691   8.131 -0.1291 -0.1507  0.1507
  103loPI   C4A 1642  12.186   1.611   7.742  0.1379 -0.2404 -0.2370
  103loPI   C5A 1643  12.253   1.557   7.327  0.2934 -0.0120  0.2734
  103loPI   C6A 1644  12.041   1.798   6.964 -0.0971  0.3587 -0.0113
  103loPI   C1B 1645  12.131   2.393   8.965  0.2068 -0.2037 -0.0082
  103loPI   C2B 1646  11.772   2.495   8.737  0.1477  0.1317 -0.3781
  103loPI   C3B 1647  11.717   2.506   8.293  0.0616 -0.0847 -0.1249
  103loPI   C4B 1648  11.841   2.378   7.833 -0.0564 -0.1144  0.1542
  104loPI    C1 1649  18.859   1.753   9.741  0.1749 -0.0927  0.0078
  104loPI    C2 1650  18.831   1.533  10.073 -0.0142 -0.0144  0.0454
  104loPI    C3 1651  18.512   1.731   9.937  0.1418  0.2016 -0.0123
  104loPI   PO4 1652  18.958   1.559   9.569  0.1540  0.0875  0.0416
  104loPI   GL1 1653  18.918   1.409   9.115 -0.0972  0.1129  0.0850
  104loPI   GL2 1654  18.614   1.404   8.938 -0.2330 -0.1809  0.1343
  104loPI   C1A 1655  19.115   1.300   8.627  0.1183 -0.3754 -0.0339
  104loPI   C2A 1656  19.015   1.370   8.124  0.1601 -0.3230  0.0158
  104loPI   C3A 1657  19.097   1.279   7.858  0.0811  0.1385  0.2149
  104loPI   C4A 1658  19.225   1.394   7.442  0.1162 -0.1061 -0.1581
  104loPI   C5A 1659  19.031   1.681   7.222 -0.1475  0.1787  0.0579
  104loPI   C6A 1660  18.686   1.870   7.149  0.1862 -0.1139 -0.0989
  104loPI   C1B 1661  18.565   1.391   8.490 -0.2517  0.0806 -0.0514
  104loPI   C2B 1662  18.602   1.577   8.080  0.1770  0.0002  0.0554
  104loPI   C3B 1663  18.704   1.536   7.626  0.2107 -0.0493 -0.0905
  104loPI   C4B 1664  18.505   1.384   7.241 -0.0718  0.1129 -0.0361
  105loPI    C1 1665   3.356   8.199   9.841  0.2211  0.0335 -0.0338
  105loPI    C2 1666   3.160   8.373  10.144  0.0154 -0.0338 -0.1267
  105loPI    C3 1667   3.554   8.312  10.170  0.0279  0.1169  0.0559
  105loPI   PO4 1668   3.137   7.974   9.760 -0.4213  0.0131 -0.0814
  105loPI   GL1 1669   2.779   8.031   9.408  0.0367 -0.2767  0.0716
  105loPI   GL2 1670   2.608   7.939   9.326  0.2481  0.0611 -0.0782
  105loPI   C1A 1671   2.981   8.038   9.009 -0.0090 -0.1279 -0.2067
  105loPI   C2A 1672   3.185   8.096   8.698 -0.0781 -0.0426 -0.0419
  105loPI   C3A 1673   3.314   7.992   8.381 -0.2233  0.2872  0.0294
  105loPI   C4A 1674   3.503   7.880   7.951  0.2245 -0.3227  0.0159
  105loPI   C5A 1675   3.811   7.581   7.747  0.1198 -0.0851 -0.1277
  105loPI   C6A 1676   4.003   7.429   7.977  0.3259 -0.0614  0.0834
  105loPI   C1B 1677   2.340   7.869   8.971 -0.1123  0.0802  0.0800
  105loPI   C2B 1678   2.116   8.133   8.640 -0.1270  0.1850 -0.1718
  105loPI   C3B 1679   2.147   8.524   8.374 -0.0526 -0.1749 -0.0618
  105loPI   C4B 1680   2.228   9.040   8.330 -0.3807 -0.0873  0.0329
  106loPI    C1 1681   8.121   0.424   9.598  0.2025  0.3238 -0.1274
  106loPI    C2 1682   8.355   0.484   9.917  0.0785 -0.1470  0.0601
  106loPI    C3 1683   7.989   0.645   9.903  0.2108  0.1548  0.0001
  106loPI   PO4 1684   8.302   0.471   9.382  0.2466  0.0874  0.4551
  106loPI   GL1 1685   8.351   0.417   8.914 -0.0187 -0.3183  0.0855
  106loPI   GL2 1686   8.095   0.571   8.659 -0.0551 -0.1648 -0.1608
  106loPI   C1A 1687   8.669   0.419   8.557 -0.2934  0.1139 -0.0163
  106loPI   C2A 1688   8.838   0.536   8.142 -0.1196 -0.0806 -0.2971
  106loPI   C3A 1689   8.885   0.435   7.776 -0.0060  0.1627  0.0833
  106loPI   C4A 1690   9.179   0.339   7.418 -0.1652  0.0782  0.2294
  106loPI   C5A 1691   9.157   0.409   7.009 -0.0074 -0.0801 -0.2417
  106loPI   C6A 1692   8.937   0.776   6.966 -0.1509 -0.6617  0.3030
  106loPI   C1B 1693   8.330   0.626   8.211  0.3093  0.1878 -0.1865
  106loPI   C2B 1694   8.359   0.562   7.705  0.1246  0.1930 -0.3382
  106loPI   C3B 1695   8.381   0.596   7.220 -0.1974 -0.1696  0.1054
  106loPI   C4B 1696   7.999   0.422   6.996  0.2168 -0.0437  0.1007
  107loPI    C1 1697   1.999   2.453   9.729 -0.0749 -0.0085  0.3122
  107loPI    C2 1698   2.354   2.524   9.559 -0.1674  0.1573  0.1853
  107loPI    C3 1699   2.198   2.789   9.816 -0.1946  0.0792  0.2496
  107loPI   PO4 1700   1.825   2.391   9.514 -0.2585 -0.0215  0.0844
  107loPI   GL1 1701   1.991   2.439   9.012 -0.0526 -0.0108  0.2321
  107loPI   GL2 1702   1.669   2.493   9.070 -0.3025  0.1104 -0.2946
  107loPI   C1A 1703   2.205   2.633   8.650 -0.3341  0.2653  0.1764
  107loPI   C2A 1704   2.356   2.758   8.234  0.1055 -0.1177 -0.3559
  107loPI   C3A 1705   2.679   2.589   7.970 -0.2344  0.1184  0.0554
  107loPI   C4A 1706   3.013   2.718   7.648  0.2939  0.2629  0.1886
  107loPI   C5A 1707   3.266   2.653   7.254 -0.0218 -0.1575  0.2104
  107loPI   C6A 1708   3.472   3.032   6.908  0.1094  0.0433  0.2624
  107loPI   C1B 1709   1.796   2.868   8.879 -0.2017 -0.0922  0.2856
  107loPI   C2B 1710   1.647   2.926   8.430 -0.0115 -0.0425 -0.0648
  107loPI   C3B 1711   1.697   3.038   8.106  0.2807  0.1374  0.0431
  107loPI   C4B 1712   1.516   3.019   7.648  0.0398 -0.0290 -0.1481
  108loPI    C1 1713   5.998   7.067   9.953 -0.2887  0.2999  0.0938
  108loPI    C2 1714   6.286   7.259  10.154 -0.0426  0.1507 -0.1093
  108loPI    C3 1715   6.159   6.901  10.280  0.0806  0.0768 -0.1939
  108loPI   PO4 1716   5.976   7.133   9.769  0.2544 -0.0890 -0.0589
  108loPI   GL1 1717   5.885   6.895   9.331 -0.3117 -0.2883  0.0132
  108loPI   GL2 1718   5.885   6.675   9.281  0.1770 -0.2327  0.0241
  108loPI   C1A 1719   6.075   7.061   8.940  0.0202 -0.3647 -0.2210
  108loPI   C2A 1720   6.087   7.038   8.498 -0.1695 -0.0105  0.2261
  108loPI   C3A 1721   5.867   6.977   8.031 -0.0056 -0.0143 -0.1584
  108loPI   C4A 1722   5.669   6.900   7.710  0.1912 -0.1664 -0.2038
  108loPI   C5A 1723   5.419   6.961   7.386  0.1824  0.4022  0.2442
  108loPI   C6A 1724   5.243   6.730   6.996 -0.1221  0.0712 -0.2836
  108loPI   C1B 1725   5.962   6.574   8.815 -0.1885 -0.0249  0.1663
  108loPI   C2B 1726   6.002   6.511   8.437 -0.2488 -0.0097 -0.1415
  108loPI   C3B 1727   5.950   6.487   8.113  0.3213 -0.0742  0.3269
  108loPI   C4B 1728   5.763   6.411   7.800 -0.3079 -0.1048  0.0492
  109loPI    C1 1729  19.016   7.486  10.368 -0.1801 -0.1034  0.2209
  109loPI    C2 1730  19.330   7.536  10.611  0.0464 -0.2093 -0.0447
  109loPI    C3 1731  18.987   7.729  10.684  0.1735 -0.0883  0.2449
  109loPI   PO4 1732  19.138   7.505  10.112  0.1182 -0.0349  0.2619
  109loPI   GL1 1733  19.405   7.747   9.854  0.1245  0.0379 -0.0354
  109loPI   GL2 1734  19.483   7.913   9.599  0.3363  0.3346 -0.1645
  109loPI   C1A 1735  19.226   7.466   9.456  0.0139  0.2416 -0.0042
  109loPI   C2A 1736  19.473   7.420   9.104  0.0762 -0.0695  0.1332
  109loPI   C3A 1737  19.542   7.151   8.801  0.1355  0.0269 -0.3838
  109loPI   C4A 1738  19.815   7.220   8.553  0.1058  0.0086  0.1134
  109loPI   C5A 1739  20.213   7.086   8.480  0.0863 -0.2316  0.0977
  109loPI   C6A 1740  20.367   6.805   8.331  0.2184  0.0462  0.1729
  109loPI   C1B 1741  19.558   8.008   9.187  0.3069  0.0675  0.2278
  109loPI   C2B 1742  19.320   8.008   8.787 -0.2144  0.0174  0.1638
  109loPI   C3B 1743  19.021   7.913   8.494  0.1008  0.0260 -0.0566
  109loPI   C4B 1744  18.906   8.049   8.111 -0.0521 -0.2596  0.7441
  110loPI    C1 1745   0.598  19.506   9.172 -0.0035 -0.0229  0.1423
  110loPI    C2 1746   0.590  19.112   9.105 -0.3378 -0.0537  0.3426
  110loPI    C3 1747   0.875  19.269   9.337  0.2641 -0.0675 -0.3538
  110loPI   PO4 1748   0.605  19.573   8.953  0.2430  0.0607  0.3213
  110loPI   GL1 1749   0.331  19.588   8.674 -0.1353  0.1217 -0.0014
  110loPI   GL2 1750   0.377  19.968   8.706  0.0218 -0.0789  0.1733
  110loPI   C1A 1751   0.388  19.507   8.348 -0.0427  0.1105 -0.3155
  110loPI   C2A 1752   0.321  19.210   8.001 -0.2728 -0.0046 -0.0712
  110loPI   C3A 1753   0.286  19.112   7.610 -0.2118 -0.1654  0.0164
  110loPI   C4A 1754   0.174  19.077   7.200  0.1574  0.1314 -0.3313
  110loPI   C5A 1755   0.171  18.916   6.810 -0.1889 -0.4304  0.3040
  110loPI   C6A 1756   0.147  18.796   6.381 -0.0620 -0.2108 -0.0047
  110loPI   C1B 1757   0.339  20.019   8.247  0.1429 -0.0456  0.1460
  110loPI   C2B 1758   0.101  19.916   7.872  0.0461  0.0022  0.3533
  110loPI   C3B 1759  -0.194  19.915   7.556  0.0980 -0.1205 -0.2808
  110loPI   C4B 1760  -0.499  19.693   7.504  0.2813  0.0275  0.2231
  111loPI    C1 1761  10.124   8.563   9.910  0.1038  0.0276 -0.0726
  111loPI    C2 1762   9.801   8.482  10.132  0.1300 -0.0766 -0.0721
  111loPI    C3 1763  10.049   8.775  10.241  0.1714 -0.1625  0.0666
  111loPI   PO4 1764  10.093   8.582   9.702  0.2420 -0.0278  0.1722
  111loPI   GL1 1765   9.894   8.558   9.268 -0.1374 -0.1313  0.0423
  111loPI   GL2 1766   9.908   8.884   9.122  0.1664 -0.3399  0.0267
  111loPI   C1A 1767   9.813   8.435   8.881 -0.2010  0.0949  0.1303
  111loPI   C2A 1768   9.676   8.241   8.590 -0.1662 -0.0174  0.3720
  111loPI   C3A 1769   9.451   8.074   8.293  0.2300  0.1859  0.0432
  111loPI   C4A 1770   9.275   8.252   7.887  0.1310  0.2439  0.2403
  111loPI   C5A 1771   9.284   8.047   7.518  0.0218  0.0458  0.2187
  111loPI   C6A 1772   9.515   8.217   7.211  0.1627 -0.2547  0.1898
  111loPI   C1B 1773   9.618   8.920   8.929  0.2105  0.1680 -0.0112
  111loPI   C2B 1774   9.518   9.193   8.484  0.0848  0.1339  0.0296
  111loPI   C3B 1775   9.572   9.459   8.087 -0.0685 -0.0827  0.2060
  111loPI   C4B 1776   9.737   9.745   7.711  0.1068  0.4427 -0.3321
  112loPI    C1 1777   9.285   7.577   9.903  0.1471  0.2177  0.0012
  112loPI    C2 1778   9.611   7.352   9.846  0.0659  0.1413 -0.1703
  112loPI    C3 1779   9.550   7.531  10.198  0.0283 -0.2741  0.0410
  112loPI   PO4 1780   9.099   7.497   9.656 -0.1664 -0.5184 -0.0177
  112loPI   GL1 1781   9.259   7.339   9.268 -0.2533  0.1050 -0.0975
  112loPI   GL2 1782   9.150   7.627   9.115 -0.1333  0.1139  0.0242
  112loPI   C1A 1783   9.166   7.105   8.933  0.4334 -0.0233 -0.0277
  112loPI   C2A 1784   9.346   7.066   8.595  0.2045 -0.2182  0.0464
  112loPI   C3A 1785   9.668   7.011   8.340 -0.1031  0.1020 -0.0210
  112loPI   C4A 1786   9.798   6.670   8.097  0.1209 -0.2394 -0.4412
  112loPI   C5A 1787   9.824   6.656   7.605 -0.0926  0.0784  0.2739
  112loPI   C6A 1788   9.692   6.410   7.309 -0.0513 -0.4351  0.0936
  112loPI   C1B 1789   8.846   7.615   8.735 -0.1200  0.0789 -0.3249
  112loPI   C2B 1790   8.932   7.505   8.351 -0.3184 -0.2345  0.0674
  112loPI   C3B 1791   9.045   7.716   7.989 -0.1614  0.0258  0.0324
  112loPI   C4B 1792   9.445   7.657   7.792  0.2941  0.1211  0.0107
  113loPI    C1 1793   2.350  18.450   9.009  0.1334 -0.0279  0.0910
  113loPI    C2 1794   2.003  18.377   9.194 -0.0729  0.2330 -0.1826
  113loPI    C3 1795   2.237  18.677   9.318  0.1831 -0.0979  0.1610
  113loPI   PO4 1796   2.231  18.379   8.772 -0.3835  0.2636  0.2044
  113loPI   GL1 1797   1.856  18.221   8.500 -0.0315  0.1414 -0.0101
  113loPI   GL2 1798   1.736  18.498   8.407  0.0411 -0.0430  0.1124
  113loPI   C1A 1799   1.674  18.136   8.059 -0.1458 -0.0921  0.2411
  113loPI   C2A 1800   1.728  18.349   7.735 -0.0931 -0.1014 -0.0434
  113loPI   C3A 1801   1.439  18.295   7.406  0.0721 -0.0613  0.1635
  113loPI   C4A 1802   1.002  18.083   7.376  0.3731  0.1104 -0.1209
  113loPI   C5A 1803   0.690  17.969   7.034 -0.0595 -0.0718  0.3095
  113loPI   C6A 1804   0.400  18.026   6.750 -0.0610 -0.2058  0.1516
  113loPI   C1B 1805   1.590  18.645   8.124 -0.0298  0.0193  0.3801
  113loPI   C2B 1806   1.329  18.785   7.940 -0.1519 -0.1135  0.1415
  113loPI   C3B 1807   1.260  18.723   7.543 -0.3200  0.1400 -0.2020
  113loPI   C4B 1808   1.171  18.577   7.084 -0.0454  0.1996  0.3266
  114loPI    C1 1809  12.262   8.061  10.630 -0.0633 -0.0705  0.0434
  114loPI    C2 1810  11.977   7.801  10.734 -0.0908  0.0334  0.2325
  114loPI    C3 1811  11.886   8.187  10.680 -0.0329  0.0215  0.0431
  114loPI   PO4 1812  12.396   7.964  10.441 -0.1560 -0.1041 -0.1119
  114loPI   GL1 1813  12.444   8.160  10.038 -0.0832 -0.0218  0.0780
  114loPI   GL2 1814  12.641   8.330   9.861  0.3840 -0.1307  0.4616
  114loPI   C1A 1815  12.322   8.000   9.520 -0.2234  0.0825  0.1841
  114loPI   C2A 1816  11.985   7.958   9.406  0.0144  0.1390  0.0640
  114loPI   C3A 1817  11.752   7.929   9.016 -0.1500 -0.1284  0.1325
  114loPI   C4A 1818  11.633   8.238   8.622  0.1277 -0.4721  0.0350
  114loPI   C5A 1819  11.668   8.451   8.101 -0.2500 -0.1401 -0.0780
  114loPI   C6A 1820  11.776   8.440   7.718 -0.3130 -0.0657 -0.0396
  114loPI   C1B 1821  12.676   8.390   9.420 -0.1707 -0.2472 -0.0810
  114loPI   C2B 1822  12.437   8.215   9.089  0.1829  0.1263  0.1322
  114loPI   C3B 1823  12.321   7.927   8.804 -0.2277  0.1273  0.3265
  114loPI   C4B 1824  12.332   8.014   8.457  0.0417 -0.1104 -0.0784
  115loPI    C1 1825   7.229  14.218   9.598 -0.1196 -0.0949  0.1118
  115loPI    C2 1826   7.477  13.995   9.821  0.1718 -0.0293 -0.1399
  115loPI    C3 1827   7.278  14.300   9.987  0.2189 -0.1144  0.0764
  115loPI   PO4 1828   7.345  14.272   9.357 -0.2669 -0.1082 -0.0803
  115loPI   GL1 1829   7.329  14.506   8.955  0.0209 -0.1849 -0.1512
  115loPI   GL2 1830   7.718  14.703   8.831  0.0640  0.1149 -0.0579
  115loPI   C1A 1831   7.327  14.274   8.595  0.0195 -0.4087  0.1745
  115loPI   C2A 1832   7.549  14.022   8.318 -0.2249  0.2768 -0.3988
  115loPI   C3A 1833   7.807  13.979   7.896 -0.3214 -0.0636 -0.2988
  115loPI   C4A 1834   8.129  13.713   7.695 -0.2022 -0.0131  0.2734
  115loPI   C5A 1835   8.354  13.776   7.343 -0.0196  0.5930 -0.1326
  115loPI   C6A 1836   8.570  13.452   7.043 -0.1010 -0.1218  0.0572
  115loPI   C1B 1837   7.614  14.808   8.425  0.0285  0.1908 -0.1036
  115loPI   C2B 1838   7.459  14.909   8.013  0.1535  0.2833 -0.1101
  115loPI   C3B 1839   7.152  14.901   7.599 -0.1498 -0.2106 -0.1216
  115loPI   C4B 1840   7.097  14.966   7.122  0.5053  0.0153  0.2144
  116loPI    C1 1841  15.598  11.983  10.080 -0.1690 -0.1666 -0.2940
  116loPI    C2 1842  15.793  11.642  10.154 -0.1165 -0.0681  0.0383
  116loPI    C3 1843  15.464  11.733  10.362  0.0557  0.2350  0.1849
  116loPI   PO4 1844  15.558  12.026   9.841  0.0779  0.0155 -0.1473
  116loPI   GL1 1845  15.306  11.979   9.497  0.1357 -0.1504  0.2696
  116loPI   GL2 1846  15.737  12.094   9.426  0.4009  0.0620  0.5216
  116loPI   C1A 1847  15.148  11.845   9.091 -0.0114  0.0235  0.3205
  116loPI   C2A 1848  15.352  11.692   8.717  0.1266 -0.1283 -0.1503
  116loPI   C3A 1849  15.445  11.479   8.408  0.1414  0.0834 -0.1502
  116loPI   C4A 1850  15.298  11.420   8.011  0.2036  0.0466  0.0326
  116loPI   C5A 1851  15.059  11.364   7.698  0.1136 -0.1182 -0.0520
  116loPI   C6A 1852  14.813  11.317   7.481  0.3693  0.1172 -0.0799
  116loPI   C1B 1853  15.605  12.149   9.075 -0.1825 -0.1789 -0.0457
  116loPI   C2B 1854  15.439  12.160   8.694  0.1819 -0.0175  0.0021
  116loPI   C3B 1855  15.507  11.947   8.259 -0.3127  0.0524 -0.2089
  116loPI   C4B 1856  15.180  11.939   7.916  0.0160  0.0350  0.0440
  117loPI    C1 1857  16.370   3.943  10.048  0.2496 -0.1948 -0.2336
  117loPI    C2 1858  16.730   3.803   9.943  0.2676 -0.4310  0.1263
  117loPI    C3 1859  16.676   3.968  10.304  0.0863 -0.1077 -0.0440
  117loPI   PO4 1860  16.227   3.937   9.834  0.1732 -0.1065  0.1931
  117loPI   GL1 1861  16.026   4.220   9.501 -0.1302 -0.1799 -0.0133
  117loPI   GL2 1862  15.613   4.229   9.580 -0.0265 -0.0447 -0.1176
  117loPI   C1A 1863  16.089   4.420   9.008 -0.0304 -0.1554  0.1975
  117loPI   C2A 1864  16.200   4.585   8.592 -0.0368  0.1121 -0.2950
  117loPI   C3A 1865  16.287   4.863   8.240  0.1872  0.2186 -0.2196
  117loPI   C4A 1866  16.290   4.913   7.776  0.0172  0.1575  0.0071
  117loPI   C5A 1867  16.465   5.152   7.547  0.0386 -0.0974 -0.4874
  117loPI   C6A 1868  16.834   5.317   7.294 -0.0028  0.2020 -0.1761
  117loPI   C1B 1869  15.687   3.985   9.087  0.1350  0.0677  0.3269
  117loPI   C2B 1870  16.109   3.906   9.066  0.0851 -0.0864  0.1894
  117loPI   C3B 1871  16.490   3.651   9.020 -0.1360 -0.3530 -0.1315
  117loPI   C4B 1872  16.988   3.573   9.158  0.1892 -0.0080 -0.1059
  118loPI    C1 1873   1.930   8.276   9.608  0.1292  0.0864  0.0887
  118loPI    C2 1874   2.114   7.970   9.427 -0.2705  0.0344 -0.2439
  118loPI    C3 1875   2.284   8.333   9.429  0.0376 -0.1070 -0.1601
  118loPI   PO4 1876   1.733   8.329   9.499  0.0689 -0.1720 -0.2981
  118loPI   GL1 1877   1.632   7.970   9.207  0.2453 -0.3578 -0.1195
  118loPI   GL2 1878   1.837   8.230   9.062  0.1668 -0.0069  0.1806
  118loPI   C1A 1879   1.801   7.720   8.893  0.0391  0.5246 -0.2457
  118loPI   C2A 1880   1.747   7.819   8.473 -0.3559 -0.1168 -0.1748
  118loPI   C3A 1881   1.685   7.897   7.954  0.0884 -0.1686  0.1848
  118loPI   C4A 1882   1.849   7.943   7.487  0.5157  0.2982 -0.2307
  118loPI   C5A 1883   1.961   8.018   7.093 -0.3519  0.0187  0.2437
  118loPI   C6A 1884   1.874   8.424   6.874  0.0971 -0.2115  0.2339
  118loPI   C1B 1885   1.698   8.291   8.655  0.1821 -0.4285 -0.1535
  118loPI   C2B 1886   1.736   8.296   8.293  0.1892 -0.1384 -0.0531
  118loPI   C3B 1887   1.721   8.373   7.757 -0.2060 -0.1367  0.0880
  118loPI   C4B 1888   2.099   8.394   7.434 -0.2902  0.3075 -0.1087
  119loPI    C1 1889   3.255  17.666   9.327 -0.0477  0.2184  0.1411
  119loPI    C2 1890   3.460  18.009   9.329 -0.0411  0.2148  0.0605
  119loPI    C3 1891   3.316  17.861   9.671 -0.0758  0.3171  0.0906
  119loPI   PO4 1892   3.143  17.654   9.103 -0.0481 -0.2994  0.3143
  119loPI   GL1 1893   3.179  17.741   8.732 -0.0883 -0.0389 -0.0264
  119loPI   GL2 1894   3.142  17.378   8.644 -0.2718 -0.3580  0.1988
  119loPI   C1A 1895   2.963  17.813   8.332 -0.0091  0.0588 -0.3641
  119loPI   C2A 1896   3.034  17.823   7.891 -0.1985  0.1534 -0.3562
  119loPI   C3A 1897   2.838  18.120   7.571 -0.2047  0.1717 -0.1022
  119loPI   C4A 1898   2.695  18.387   7.319 -0.3050 -0.2094  0.1024
  119loPI   C5A 1899   2.368  18.178   7.133 -0.1649 -0.1736 -0.1933
  119loPI   C6A 1900   2.388  18.045   6.745 -0.0995  0.0002  0.1598
  119loPI   C1B 1901   2.960  17.344   8.275 -0.0149 -0.0714  0.0273
  119loPI   C2B 1902   2.949  17.318   7.751  0.0654  0.0635 -0.0753
  119loPI   C3B 1903   2.875  17.571   7.460 -0.2665  0.0576  0.0196
  119loPI   C4B 1904   3.144  17.784   7.301  0.1483  0.1548 -0.0488
  120loPI    C1 1905   9.013  19.581   9.666 -0.1297 -0.2514 -0.0275
  120loPI    C2 1906   8.720  19.854   9.676  0.0217 -0.0906  0.0783
  120loPI    C3 1907   8.877  19.716  10.017  0.0994 -0.1435  0.0216
  120loPI   PO4 1908   9.171  19.643   9.420 -0.5816 -0.1050  0.1296
  120loPI   GL1 1909   9.178  19.329   9.116  0.2051  0.1581  0.0254
  120loPI   GL2 1910   8.898  19.176   8.936 -0.1997 -0.1593  0.2579
  120loPI   C1A 1911   9.243  19.631   8.771  0.3894 -0.2978 -0.1755
  120loPI   C2A 1912   9.333  19.973   8.516  0.0866 -0.0923  0.1160
  120loPI   C3A 1913   9.331  20.124   8.005  0.0118  0.2941 -0.1108
  120loPI   C4A 1914   9.346  20.363   7.605 -0.1164  0.1412 -0.1940
  120loPI   C5A 1915   9.393  20.419   7.163 -0.3098 -0.0607 -0.1154
  120loPI   C6A 1916   9.621  20.776   6.967  0.0048  0.0069  0.3534
  120loPI   C1B 1917   9.321  19.198   8.631 -0.2818  0.1611  0.1168
  120loPI   C2B 1918   9.792  19.227   8.470  0.0781 -0.2524 -0.0934
  120loPI   C3B 1919   9.906  19.139   8.152  0.0061  0.1168  0.1436
  120loPI   C4B 1920   9.711  18.940   7.682 -0.0095 -0.0638 -0.3575
  121loPI    C1 1921  10.634   2.768   9.684 -0.1700  0.0227  0.0150
  121loPI    C2 1922  10.338   2.513   9.767  0.0048 -0.1550  0.1005
  121loPI    C3 1923  10.694   2.374   9.649  0.0036  0.0636 -0.1701
  121loPI   PO4 1924  10.527   2.980   9.486 -0.2626  0.2012  0.1238
  121loPI   GL1 1925  10.530   3.220   9.255 -0.1918 -0.0142  0.2003
  121loPI   GL2 1926  10.483   3.563   9.279 -0.0727  0.0389 -0.0869
  121loPI   C1A 1927  10.703   3.325   8.801 -0.0258  0.0164 -0.0640
  121loPI   C2A 1928  10.766   3.184   8.380  0.0839 -0.1861 -0.1965
  121loPI   C3A 1929  10.827   3.256   8.059 -0.0027 -0.2882  0.2406
  121loPI   C4A 1930  10.789   3.101   7.618 -0.2750 -0.0340  0.1029
  121loPI   C5A 1931  10.930   3.174   7.230  0.4097  0.0051 -0.1163
  121loPI   C6A 1932  11.103   3.455   6.934  0.0157  0.0171 -0.1484
  121loPI   C1B 1933  10.469   3.802   8.951  0.0702 -0.3442  0.1704
  121loPI   C2B 1934  10.497   3.762   8.544 -0.0390  0.1222  0.2659
  121loPI   C3B 1935  10.399   3.711   8.076 -0.1260  0.0101  0.1117
  121loPI   C4B 1936  10.401   3.550   7.641 -0.0356  0.0901  0.1036
  122loPI    C1 1937  14.306   4.195   9.792  0.0795  0.0685 -0.1158
  122loPI    C2 1938  14.022   4.462   9.881  0.1693  0.0864  0.1233
  122loPI    C3 1939  14.364   4.458  10.088  0.3018 -0.0028 -0.0944
  122loPI   PO4 1940  14.346   4.203   9.519  0.1984  0.2025  0.1624
  122loPI   GL1 1941  14.521   4.441   9.207  0.1158 -0.1180 -0.2227
  122loPI   GL2 1942  14.764   4.579   9.185  0.0657 -0.1698 -0.5088
  122loPI   C1A 1943  14.270   4.618   8.855  0.0610 -0.0692 -0.1071
  122loPI   C2A 1944  14.247   4.769   8.454 -0.1591  0.2940 -0.0547
  122loPI   C3A 1945  14.414   4.949   8.062  0.1848 -0.1935  0.1487
  122loPI   C4A 1946  14.368   5.011   7.667  0.0107  0.0449  0.0812
  122loPI   C5A 1947  14.282   4.978   7.173 -0.2222 -0.1646  0.0322
  122loPI   C6A 1948  14.048   4.741   6.875 -0.1996  0.0821  0.1438
  122loPI   C1B 1949  15.047   4.715   8.907  0.3068  0.5568 -0.0624
  122loPI   C2B 1950  15.207   4.590   8.629  0.2532 -0.0264 -0.1510
  122loPI   C3B 1951  15.276   4.406   8.247  0.0666 -0.1479 -0.5308
  122loPI   C4B 1952  15.454   4.375   7.772  0.1256  0.2324  0.1116
  123loPI    C1 1953  12.288   7.248  10.064  0.3409 -0.0619  0.1406
  123loPI    C2 1954  12.370   7.637  10.021 -0.4165  0.1110  0.1123
  123loPI    C3 1955  12.516   7.435  10.335 -0.0200  0.4110  0.1292
  123loPI   PO4 1956  12.334   7.105   9.843  0.1297 -0.0623  0.2921
  123loPI   GL1 1957  12.217   7.265   9.412  0.2103 -0.1688 -0.0265
  123loPI   GL2 1958  12.532   7.459   9.482  0.1033  0.2693 -0.0870
  123loPI   C1A 1959  11.973   7.462   9.070  0.3053  0.3965 -0.1178
  123loPI   C2A 1960  11.862   7.584   8.637 -0.1907  0.0510  0.1412
  123loPI   C3A 1961  11.795   7.967   8.270  0.0810  0.0840 -0.1074
  123loPI   C4A 1962  12.123   8.136   7.955 -0.1858 -0.1514 -0.2180
  123loPI   C5A 1963  12.570   8.351   7.994  0.0105  0.1710  0.1910
  123loPI   C6A 1964  12.803   8.550   8.197  0.3842 -0.3045 -0.0771
  123loPI   C1B 1965  12.472   7.512   9.061  0.2416  0.0649 -0.0791
  123loPI   C2B 1966  12.332   7.409   8.652  0.0811  0.0906 -0.1512
  123loPI   C3B 1967  12.147   7.566   8.226  0.2222  0.0077  0.0610
  123loPI   C4B 1968  11.879   7.561   7.898  0.1132 -0.2714 -0.0328
  124loPI    C1 1969   3.513  16.537   9.410  0.0362  0.0323  0.1242
  124loPI    C2 1970   3.790  16.391   9.660  0.0446 -0.0713  0.0550
  124loPI    C3 1971   3.743  16.787   9.622  0.1925 -0.0533  0.0571
  124loPI   PO4 1972   3.532  16.395   9.205  0.0772 -0.2546  0.1852
  124loPI   GL1 1973   3.262  16.327   8.871 -0.3383 -0.3236 -0.2621
  124loPI   GL2 1974   3.329  15.993   8.736  0.0273 -0.1513  0.1761
  124loPI   C1A 1975   3.256  16.437   8.488 -0.1104  0.0708  0.2344
  124loPI   C2A 1976   3.312  16.492   8.079  0.0914  0.3439 -0.0364
  124loPI   C3A 1977   3.424  16.434   7.611 -0.4583  0.1932  0.4792
  124loPI   C4A 1978   3.434  16.367   7.245  0.1468  0.0777  0.1546
  124loPI   C5A 1979   3.130  16.605   6.974  0.0665  0.2866  0.0042
  124loPI   C6A 1980   2.666  16.590   6.859 -0.1197 -0.0788  0.0460
  124loPI   C1B 1981   3.331  15.952   8.264 -0.0046  0.1500 -0.0895
  124loPI   C2B 1982   3.233  16.017   7.882  0.3028 -0.4252  0.0725
  124loPI   C3B 1983   3.271  15.913   7.495  0.2870 -0.0669  0.1544
  124loPI   C4B 1984   3.324  15.743   7.119  0.1243  0.3049 -0.2759
  125loPI    C1 1985  11.912  16.326   9.428 -0.1769  0.1771 -0.2086
  125loPI    C2 1986  11.542  16.259   9.565 -0.0658  0.1144  0.0690
  125loPI    C3 1987  11.793  15.952   9.505 -0.0216  0.1658 -0.0118
  125loPI   PO4 1988  11.976  16.542   9.319  0.1119  0.0467 -0.2206
  125loPI   GL1 1989  11.995  16.857   8.977  0.2882  0.0365  0.1163
  125loPI   GL2 1990  11.941  17.224   8.866  0.0588  0.1861 -0.0613
  125loPI   C1A 1991  12.136  16.908   8.500  0.1800 -0.1171 -0.0765
  125loPI   C2A 1992  12.095  16.573   8.237 -0.1306  0.0127 -0.2682
  125loPI   C3A 1993  11.746  16.524   8.019  0.0236 -0.1187  0.3112
  125loPI   C4A 1994  11.424  16.384   7.754 -0.0872  0.1836  0.0057
  125loPI   C5A 1995  11.283  15.942   7.539 -0.2096 -0.0101 -0.3337
  125loPI   C6A 1996  11.107  15.935   7.191  0.2172  0.2192  0.1633
  125loPI   C1B 1997  12.053  17.466   8.544  0.0772 -0.0742  0.1497
  125loPI   C2B 1998  11.945  17.268   8.217 -0.2406  0.3052  0.0856
  125loPI   C3B 1999  11.877  16.999   7.873  0.2738 -0.1337  0.0816
  125loPI   C4B 2000  11.435  16.854   7.816 -0.1996 -0.1227  0.2906
  126loPI    C1 2001  12.755   4.127   9.663 -0.1978 -0.3151  0.0774
  126loPI    C2 2002  12.462   4.398   9.692  0.1486  0.0976 -0.1539
  126loPI    C3 2003  12.593   4.209  10.020 -0.2352  0.0542 -0.0205
  126loPI   PO4 2004  12.616   3.839   9.526  0.3676  0.1014  0.2031
  126loPI   GL1 2005  12.482   3.803   9.175  0.3552 -0.1273 -0.1949
  126loPI   GL2 2006  12.230   4.052   9.251 -0.1390 -0.0465  0.2567
  126loPI   C1A 2007  12.364   4.052   8.794  0.0141 -0.0624  0.0206
  126loPI   C2A 2008  12.259   4.255   8.436 -0.3003 -0.1453  0.1904
  126loPI   C3A 2009  12.296   4.271   8.087 -0.0074  0.1951  0.2040
  126loPI   C4A 2010  12.156   4.330   7.663 -0.1330  0.0292  0.3278
  126loPI   C5A 2011  12.158   4.694   7.410  0.0549  0.1127  0.2450
  126loPI   C6A 2012  12.449   4.880   7.093 -0.1049  0.0494  0.0832
  126loPI   C1B 2013  11.866   4.150   8.946 -0.0307 -0.2458 -0.1783
  126loPI   C2B 2014  11.671   4.070   8.648  0.1971 -0.0341 -0.1506
  126loPI   C3B 2015  11.426   3.887   8.405 -0.1301 -0.3184  0.1460
  126loPI   C4B 2016  11.386   3.805   7.931 -0.3356  0.0810 -0.0939
  127loPI    C1 2017  10.937   3.354   9.874  0.0436 -0.2149  0.1593
  127loPI    C2 2018  10.715   3.133  10.123  0.2476 -0.3562  0.2184
  127loPI    C3 2019  11.051   3.307  10.254 -0.0667  0.2509  0.2567
  127loPI   PO4 2020  10.940   3.305   9.537 -0.0464 -0.1753 -0.0105
  127loPI   GL1 2021  11.018   3.126   9.205 -0.0548 -0.3444 -0.1687
  127loPI   GL2 2022  10.868   2.720   9.268 -0.1034 -0.1682 -0.0101
  127loPI   C1A 2023  11.174   3.249   8.883  0.0962  0.0531  0.2409
  127loPI   C2A 2024  11.218   3.383   8.457  0.2674  0.0260  0.2512
  127loPI   C3A 2025  11.263   3.320   7.933  0.2753  0.1134 -0.1234
  127loPI   C4A 2026  11.255   2.965   7.610  0.0583  0.2041  0.0256
  127loPI   C5A 2027  11.356   2.913   7.162 -0.1275 -0.1714  0.2071
  127loPI   C6A 2028  11.159   2.968   6.780 -0.2377  0.2981  0.2474
  127loPI   C1B 2029  10.903   2.848   8.764  0.1973  0.2865 -0.1524
  127loPI   C2B 2030  10.707   2.642   8.373 -0.1806 -0.0000 -0.0393
  127loPI   C3B 2031  10.493   2.694   7.949  0.0072 -0.0481 -0.0756
  127loPI   C4B 2032  10.318   2.278   7.683  0.0324 -0.1738 -0.0717
  128loPI    C1 2033  11.959  15.536   9.726 -0.2480 -0.1144 -0.0132
  128loPI    C2 2034  12.024  15.266  10.014 -0.0917 -0.2080 -0.1340
  128loPI    C3 2035  11.706  15.509  10.034  0.0931  0.0089  0.2850
  128loPI   PO4 2036  12.147  15.508   9.559  0.2348  0.1485  0.1347
  128loPI   GL1 2037  12.235  15.272   9.244 -0.1806  0.1940 -0.0876
  128loPI   GL2 2038  12.159  14.906   9.187 -0.0207 -0.0477 -0.1131
  128loPI   C1A 2039  12.225  15.423   8.867 -0.0557  0.0522  0.0184
  128loPI   C2A 2040  12.341  15.779   8.674  0.0736  0.0742 -0.1021
  128loPI   C3A 2041  12.442  15.830   8.313 -0.0512 -0.1253  0.0221
  128loPI   C4A 2042  12.347  15.684   7.938  0.0490 -0.1441 -0.2037
  128loPI   C5A 2043  12.138  15.501   7.556  0.0298 -0.1052 -0.0048
  128loPI   C6A 2044  12.495  15.329   7.228  0.1906 -0.1238 -0.3135
  128loPI   C1B 2045  12.159  14.860   8.754  0.0422  0.0793  0.3786
  128loPI   C2B 2046  12.217  14.660   8.389 -0.0825  0.0750 -0.2653
  128loPI   C3B 2047  12.084  14.258   8.282  0.0731  0.1859  0.1312
  128loPI   C4B 2048  11.992  14.126   7.889 -0.2213  0.0695  0.0037
  129loPI    C1 2049   5.684  15.890   9.646 -0.4192  0.0736  0.1093
  129loPI    C2 2050   5.601  16.154   9.935 -0.4832  0.1518  0.0198
  129loPI    C3 2051   5.676  15.773  10.029 -0.0467  0.2725  0.1820
  129loPI   PO4 2052   5.801  15.954   9.312 -0.0345  0.0110  0.2977
  129loPI   GL1 2053   5.885  16.098   8.947  0.0906  0.0872 -0.0048
  129loPI   GL2 2054   5.804  15.696   8.856 -0.2365  0.3072 -0.2232
  129loPI   C1A 2055   5.935  16.523   8.647 -0.3858 -0.0996 -0.0564
  129loPI   C2A 2056   5.930  16.722   8.215 -0.0822 -0.3142  0.1071
  129loPI   C3A 2057   5.757  16.674   7.726  0.2373  0.2075 -0.2850
  129loPI   C4A 2058   5.513  16.810   7.450 -0.3103 -0.0925  0.2920
  129loPI   C5A 2059   5.518  16.530   7.094  0.1343 -0.2990 -0.1650
  129loPI   C6A 2060   5.740  16.298   6.716 -0.1796  0.0446 -0.0232
  129loPI   C1B 2061   5.930  15.745   8.383 -0.1412 -0.4524  0.1447
  129loPI   C2B 2062   6.012  15.712   7.970  0.1228  0.1097 -0.1663
  129loPI   C3B 2063   5.965  15.591   7.604 -0.0521 -0.0121  0.1269
  129loPI   C4B 2064   5.934  15.617   7.188  0.0316  0.0559  0.0705
  130loPI    C1 2065  16.176   7.162   9.650  0.0097  0.0262 -0.1031
  130loPI    C2 2066  15.922   7.286   9.934 -0.0309  0.2192 -0.2221
  130loPI    C3 2067  16.044   6.905   9.928 -0.0483  0.2074  0.0391
  130loPI   PO4 2068  16.068   7.336   9.442 -0.1612  0.1050 -0.3106
  130loPI   GL1 2069  15.848   7.162   9.089 -0.2448  0.2196 -0.0822
  130loPI   GL2 2070  15.686   6.892   9.019 -0.3862 -0.2082 -0.1633
  130loPI   C1A 2071  15.682   7.379   8.691  0.3009 -0.2099  0.1758
  130loPI   C2A 2072  15.884   7.369   8.243  0.1170 -0.3856 -0.1217
  130loPI   C3A 2073  16.019   7.667   7.806 -0.0072  0.1201  0.0489
  130loPI   C4A 2074  16.245   7.792   7.434 -0.0530 -0.3123  0.2428
  130loPI   C5A 2075  16.291   8.210   7.147 -0.2762  0.0618 -0.2248
  130loPI   C6A 2076  16.035   8.620   7.031  0.2917  0.2976 -0.1385
  130loPI   C1B 2077  15.496   6.849   8.680 -0.3180 -0.6264 -0.0380
  130loPI   C2B 2078  15.699   6.882   8.351 -0.3772 -0.1815 -0.1084
  130loPI   C3B 2079  16.137   6.799   8.148  0.1611 -0.1584  0.3097
  130loPI   C4B 2080  16.369   6.479   8.130 -0.1008  0.0499 -0.1677
  131loPI    C1 2081  10.327  18.545   9.704 -0.1695 -0.0453  0.2774
  131loPI    C2 2082   9.987  18.565   9.914 -0.2976  0.0207  0.0667
  131loPI    C3 2083  10.211  18.893   9.865 -0.1917 -0.0273  0.2224
  131loPI   PO4 2084  10.257  18.476   9.480  0.4002  0.0261 -0.3335
  131loPI   GL1 2085  10.346  18.559   9.099 -0.1684 -0.1755 -0.4514
  131loPI   GL2 2086  10.603  18.359   9.109  0.1274  0.0351  0.1957
  131loPI   C1A 2087  10.463  18.831   8.865  0.2385  0.1094  0.0815
  131loPI   C2A 2088  10.501  18.964   8.462  0.3052  0.0638 -0.0158
  131loPI   C3A 2089  10.459  19.124   8.077 -0.3949 -0.0484 -0.1419
  131loPI   C4A 2090  10.372  19.139   7.666 -0.0075  0.2192 -0.1366
  131loPI   C5A 2091  10.295  19.141   7.293  0.2312 -0.0206  0.0591
  131loPI   C6A 2092  10.254  19.287   6.872  0.1730 -0.0837  0.0899
  131loPI   C1B 2093  10.817  18.441   8.800 -0.2130 -0.2545  0.1113
  131loPI   C2B 2094  10.774  18.566   8.396 -0.0914  0.1219  0.0500
  131loPI   C3B 2095  10.702  18.696   7.995  0.1488 -0.0163  0.3657
  131loPI   C4B 2096  10.604  18.517   7.569  0.1061 -0.0527  0.2161
  132loPI    C1 2097  19.316  15.126   9.356 -0.0657  0.1389  0.0390
  132loPI    C2 2098  19.012  14.962   9.558  0.0795  0.0094  0.1556
  132loPI    C3 2099  19.331  15.101   9.755  0.3825 -0.4417 -0.0012
  132loPI   PO4 2100  19.253  14.966   9.076 -0.0705 -0.1662 -0.0897
  132loPI   GL1 2101  19.397  14.725   8.720  0.2728 -0.0968 -0.4220
  132loPI   GL2 2102  19.559  14.494   8.747  0.0589  0.3429 -0.0236
  132loPI   C1A 2103  19.643  14.917   8.478 -0.0679  0.0402  0.0633
  132loPI   C2A 2104  19.739  15.280   8.238  0.2734 -0.3122 -0.3083
  132loPI   C3A 2105  19.762  15.226   7.853 -0.0300  0.2541  0.1711
  132loPI   C4A 2106  19.637  15.460   7.487  0.0277  0.0083  0.2766
  132loPI   C5A 2107  19.370  15.872   7.383  0.1547 -0.0587  0.1092
  132loPI   C6A 2108  19.142  16.223   7.446 -0.1464  0.0474  0.0716
  132loPI   C1B 2109  19.205  14.299   8.482  0.1448 -0.1009  0.0979
  132loPI   C2B 2110  19.113  14.207   8.097  0.0640 -0.1268 -0.0487
  132loPI   C3B 2111  19.008  13.990   7.716 -0.1062 -0.0630 -0.0909
  132loPI   C4B 2112  19.008  13.915   7.325 -0.1853 -0.2333  0.1316
  133loPI    C1 2113   5.199   0.963   9.265  0.2706 -0.0782 -0.1500
  133loPI    C2 2114   4.871   0.734   9.246  0.0849  0.1586  0.1177
  133loPI    C3 2115   5.017   0.845   9.601  0.3045  0.2703 -0.0053
  133loPI   PO4 2116   5.123   1.179   9.069  0.1331 -0.1210  0.4096
  133loPI   GL1 2117   5.076   1.155   8.678  0.2477 -0.0826 -0.0965
  133loPI   GL2 2118   5.463   1.280   8.621  0.3423 -0.3170  0.3739
  133loPI   C1A 2119   4.851   1.118   8.293  0.0570 -0.1623 -0.1190
  133loPI   C2A 2120   4.827   1.317   7.824  0.0737  0.0243  0.1134
  133loPI   C3A 2121   4.887   1.488   7.413 -0.1131  0.1593 -0.3708
  133loPI   C4A 2122   5.030   1.878   7.201 -0.3230 -0.1046 -0.2234
  133loPI   C5A 2123   4.807   2.113   7.025 -0.0717 -0.1349 -0.0379
  133loPI   C6A 2124   4.835   2.468   6.677  0.0509  0.1102  0.0130
  133loPI   C1B 2125   5.346   1.244   8.124 -0.0023 -0.1199 -0.3388
  133loPI   C2B 2126   5.411   1.325   7.681 -0.0006  0.0128  0.1682
  133loPI   C3B 2127   5.452   1.511   7.297 -0.3327  0.2668 -0.1869
  133loPI   C4B 2128   5.480   1.815   7.051 -0.2864  0.2380 -0.0949
  134loPI    C1 2129   8.821  10.575   9.976 -0.0919 -0.1265  0.0033
  134loPI    C2 2130   8.836  10.333  10.294 -0.0099 -0.2086 -0.0626
  134loPI    C3 2131   8.884  10.727  10.341 -0.0064 -0.2195  0.0278
  134loPI   PO4 2132   8.899  10.429   9.809  0.0555  0.1538  0.1965
  134loPI   GL1 2133   8.909  10.423   9.386 -0.3028  0.0647  0.2058
  134loPI   GL2 2134   9.163  10.214   9.443 -0.1281 -0.0671  0.2350
  134loPI   C1A 2135   8.799  10.447   8.882 -0.1744  0.1829 -0.1452
  134loPI   C2A 2136   8.770  10.563   8.428 -0.0541 -0.3818  0.1526
  134loPI   C3A 2137   8.791  10.597   7.994 -0.0340 -0.0994  0.0314
  134loPI   C4A 2138   8.895  10.924   7.802 -0.1752  0.1782  0.0088
  134loPI   C5A 2139   8.577  11.266   7.613 -0.2335 -0.0383 -0.1041
  134loPI   C6A 2140   8.229  11.566   7.497 -0.0552  0.3095  0.2380
  134loPI   C1B 2141   9.188  10.137   9.072  0.1217 -0.1003 -0.0288
  134loPI   C2B 2142   9.487   9.968   8.689 -0.2710  0.2175  0.2354
  134loPI   C3B 2143   9.841   9.751   8.424 -0.0987  0.0984  0.0242
  134loPI   C4B 2144  10.089   9.577   8.049  0.1159 -0.1527  0.2280
  135loPI    C1 2145  16.526   6.186   9.678 -0.1573 -0.1085  0.0533
  135loPI    C2 2146  16.601   6.535   9.859  0.2320 -0.0680 -0.1746
  135loPI    C3 2147  16.790   6.204   9.978  0.0733 -0.1484 -0.1440
  135loPI   PO4 2148  16.561   6.282   9.439  0.2631  0.3113 -0.2466
  135loPI   GL1 2149  16.390   6.308   9.074  0.1497 -0.1097  0.0475
  135loPI   GL2 2150  16.105   6.502   9.071 -0.4021  0.0802  0.1281
  135loPI   C1A 2151  16.508   6.287   8.664 -0.2626 -0.0936  0.0840
  135loPI   C2A 2152  16.911   6.300   8.265  0.0141  0.0132 -0.1908
  135loPI   C3A 2153  16.970   6.439   7.876 -0.1249 -0.0596  0.3611
  135loPI   C4A 2154  17.033   6.773   7.472 -0.0379 -0.0112  0.0164
  135loPI   C5A 2155  16.944   6.993   7.179 -0.2272  0.1744 -0.2529
  135loPI   C6A 2156  16.818   7.227   6.679 -0.2666 -0.0131  0.2711
  135loPI   C1B 2157  16.079   6.833   8.702  0.0825 -0.2118  0.1407
  135loPI   C2B 2158  16.181   7.279   8.681  0.0902  0.1119  0.1091
  135loPI   C3B 2159  16.412   7.326   8.423 -0.0550 -0.0310 -0.0988
  135loPI   C4B 2160  16.350   7.218   8.000 -0.1100  0.1018  0.1561
  136loPI    C1 2161   6.020   5.111  10.028  0.2246  0.0502  0.1189
  136loPI    C2 2162   5.628   5.144   9.955  0.2456 -0.2012 -0.1234
  136loPI    C3 2163   5.778   5.273  10.303 -0.0478 -0.0867 -0.0363
  136loPI   PO4 2164   6.024   4.813   9.811  0.0626 -0.0377 -0.0002
  136loPI   GL1 2165   6.096   4.694   9.397  0.0608 -0.1040  0.0651
  136loPI   GL2 2166   6.243   4.490   9.235  0.0418 -0.0803 -0.2211
  136loPI   C1A 2167   5.918   4.898   9.049 -0.0337 -0.0638  0.1343
  136loPI   C2A 2168   5.599   4.932   8.633  0.0381  0.1133 -0.1951
  136loPI   C3A 2169   5.384   4.859   8.235 -0.0082 -0.2523  0.2024
  136loPI   C4A 2170   5.438   4.783   7.706  0.1316 -0.0793 -0.1081
  136loPI   C5A 2171   5.211   4.828   7.505 -0.0135  0.0156  0.0500
  136loPI   C6A 2172   5.175   4.759   7.152  0.0486  0.0839 -0.0165
  136loPI   C1B 2173   6.305   4.303   8.804  0.0616 -0.0286 -0.2700
  136loPI   C2B 2174   6.365   4.155   8.386  0.0626 -0.0462 -0.1592
  136loPI   C3B 2175   6.296   4.094   7.974 -0.1605  0.1399  0.3575
  136loPI   C4B 2176   6.254   3.721   7.644  0.1151 -0.3196 -0.0068
  137loPI    C1 2177  14.508   2.953   9.630 -0.0849 -0.2207  0.3329
  137loPI    C2 2178  14.598   2.738   9.305 -0.1760 -0.0102  0.1663
  137loPI    C3 2179  14.780   2.660   9.653  0.0700 -0.1058  0.0189
  137loPI   PO4 2180  14.607   3.199   9.546 -0.3538  0.1642  0.2446
  137loPI   GL1 2181  14.736   3.393   9.246 -0.1389 -0.1187 -0.1176
  137loPI   GL2 2182  14.925   3.168   9.062 -0.0567  0.0700 -0.2762
  137loPI   C1A 2183  14.576   3.526   8.872 -0.0110  0.4804 -0.1287
  137loPI   C2A 2184  14.678   3.805   8.506  0.1315 -0.1436 -0.2329
  137loPI   C3A 2185  14.578   3.754   8.053  0.2233 -0.0182  0.1638
  137loPI   C4A 2186  14.729   3.865   7.639  0.1883  0.1389 -0.0732
  137loPI   C5A 2187  14.916   4.107   7.338 -0.0756  0.0593  0.0719
  137loPI   C6A 2188  15.088   4.372   7.215  0.0585 -0.2798 -0.3364
  137loPI   C1B 2189  15.136   3.076   8.633  0.1177  0.2223 -0.0249
  137loPI   C2B 2190  15.027   3.055   8.174 -0.1705  0.1537 -0.1370
  137loPI   C3B 2191  15.128   2.983   7.782  0.2333 -0.0002  0.2166
  137loPI   C4B 2192  15.232   2.836   7.467  0.4139 -0.0799  0.2773
  138loPI    C1 2193  18.097  16.748   9.833  0.0728  0.0820 -0.0348
  138loPI    C2 2194  18.393  16.491   9.754  0.1439  0.2240 -0.2419
  138loPI    C3 2195  18.059  16.363   9.932  0.2115  0.0057 -0.2691
  138loPI   PO4 2196  18.093  16.861   9.566 -0.4205 -0.1099  0.2031
  138loPI   GL1 2197  18.370  17.117   9.227 -0.0404  0.0427  0.3211
  138loPI   GL2 2198  18.049  17.293   9.136 -0.3106 -0.2060  0.0706
  138loPI   C1A 2199  18.484  17.286   8.853 -0.1508  0.1535 -0.2067
  138loPI   C2A 2200  18.350  17.508   8.585  0.1194  0.1653 -0.2327
  138loPI   C3A 2201  18.512  17.826   8.384 -0.3221 -0.2232  0.2838
  138loPI   C4A 2202  18.460  17.993   8.034 -0.2067 -0.1344  0.1860
  138loPI   C5A 2203  18.455  18.175   7.681 -0.0502 -0.2190  0.3210
  138loPI   C6A 2204  18.339  18.010   7.334 -0.0649  0.1166  0.1458
  138loPI   C1B 2205  17.877  17.415   8.674  0.2393  0.1058 -0.2053
  138loPI   C2B 2206  17.736  17.401   8.247  0.0717  0.4125 -0.1409
  138loPI   C3B 2207  17.369  17.338   8.012 -0.0820  0.1452  0.3213
  138loPI   C4B 2208  16.954  17.289   7.725 -0.0649 -0.0833 -0.0195
  139loPI    C1 2209   4.976  19.083   9.108 -0.1323  0.1854 -0.0295
  139loPI    C2 2210   4.688  19.252   9.327  0.0166  0.2641  0.1081
  139loPI    C3 2211   4.930  18.980   9.492 -0.1698 -0.0274 -0.0893
  139loPI   PO4 2212   4.988  19.212   8.884 -0.0672  0.0725 -0.0910
  139loPI   GL1 2213   4.664  19.173   8.481 -0.0002 -0.0185  0.0619
  139loPI   GL2 2214   4.729  18.882   8.341  0.0621 -0.1788 -0.0438
  139loPI   C1A 2215   4.644  19.665   8.259  0.1267 -0.0137  0.2755
  139loPI   C2A 2216   4.472  19.840   7.820 -0.1501  0.4353 -0.0183
  139loPI   C3A 2217   4.681  20.104   7.512 -0.0901  0.0383 -0.0141
  139loPI   C4A 2218   4.935  20.081   7.231 -0.1901 -0.0677  0.0581
  139loPI   C5A 2219   5.033  19.954   6.767 -0.1500  0.1508 -0.1326
  139loPI   C6A 2220   5.250  20.097   6.387  0.1624 -0.0708 -0.1212
  139loPI   C1B 2221   4.749  18.849   7.917 -0.0513  0.0711 -0.1633
  139loPI   C2B 2222   4.863  18.737   7.567 -0.2063 -0.1055 -0.0869
  139loPI   C3B 2223   4.968  18.372   7.302 -0.1615  0.0174 -0.1320
  139loPI   C4B 2224   5.357  18.318   7.087  0.2000  0.0851 -0.0991
  140loPI    C1 2225  12.150  11.075  10.266  0.6184  0.1188  0.1276
  140loPI    C2 2226  11.915  11.370  10.129  0.0218 -0.3332  0.1358
  140loPI    C3 2227  12.115  11.416  10.473  0.0720  0.1184  0.0522
  140loPI   PO4 2228  11.955  10.847  10.079 -0.1181 -0.4120 -0.1707
  140loPI   GL1 2229  11.809  10.873   9.617 -0.2841  0.1900  0.0145
  140loPI   GL2 2230  11.506  10.906   9.453  0.0614 -0.0264 -0.0825
  140loPI   C1A 2231  11.860  10.601   9.179 -0.0312  0.0342  0.0825
  140loPI   C2A 2232  11.905  10.303   8.833 -0.0378  0.0280  0.1968
  140loPI   C3A 2233  11.933  10.078   8.500 -0.1222  0.3022 -0.4451
  140loPI   C4A 2234  12.062   9.922   8.092  0.0960 -0.0892 -0.1997
  140loPI   C5A 2235  12.435   9.853   7.914 -0.0939  0.0877  0.1364
  140loPI   C6A 2236  12.780   9.697   7.517 -0.3056  0.0679  0.1579
  140loPI   C1B 2237  11.491  10.840   9.003  0.0961  0.0935  0.6299
  140loPI   C2B 2238  11.678  10.719   8.586 -0.0425 -0.5049  0.0191
  140loPI   C3B 2239  11.881  10.538   8.259 -0.0483  0.1138  0.1340
  140loPI   C4B 2240  11.823  10.319   7.929 -0.1641  0.1425 -0.0984
  141loPI    C1 2241   6.352   3.042   9.736 -0.1780  0.0882  0.2344
  141loPI    C2 2242   6.322   2.826  10.071  0.3895 -0.0915  0.1812
  141loPI    C3 2243   6.682   2.902   9.914  0.1417  0.1270 -0.3039
  141loPI   PO4 2244   6.142   3.010   9.624 -0.0359  0.1912 -0.0319
  141loPI   GL1 2245   6.222   2.854   9.183  0.1485 -0.0541  0.3381
  141loPI   GL2 2246   5.955   3.100   9.109  0.3976  0.2352  0.2213
  141loPI   C1A 2247   6.433   3.075   8.900  0.0102 -0.2315 -0.2728
  141loPI   C2A 2248   6.618   3.153   8.537  0.4107 -0.1471  0.0505
  141loPI   C3A 2249   6.698   3.137   8.162  0.2015  0.0916 -0.1659
  141loPI   C4A 2250   6.521   3.039   7.854 -0.0188 -0.1664 -0.1536
  141loPI   C5A 2251   6.467   2.794   7.325 -0.2887  0.0801 -0.0146
  141loPI   C6A 2252   6.054   2.840   7.195 -0.3552 -0.0038 -0.1652
  141loPI   C1B 2253   6.110   3.388   8.709  0.0832  0.2218 -0.0512
  141loPI   C2B 2254   5.921   3.508   8.412  0.2383 -0.1327  0.0707
  141loPI   C3B 2255   5.915   3.458   8.031 -0.0574 -0.2571 -0.0917
  141loPI   C4B 2256   5.804   3.554   7.635 -0.3269 -0.2260  0.0409
  142loPI    C1 2257  18.846  11.833  10.059  0.0590  0.0319 -0.0946
  142loPI    C2 2258  18.789  12.191  10.229 -0.2983 -0.0831  0.0363
  142loPI    C3 2259  18.476  11.954  10.152 -0.1178 -0.1516 -0.5316
  142loPI   PO4 2260  18.950  11.901   9.773  0.0263  0.4080  0.1898
  142loPI   GL1 2261  19.091  11.686   9.382  0.0788  0.2504 -0.0925
  142loPI   GL2 2262  19.116  11.250   9.330  0.1841  0.0070 -0.1804
  142loPI   C1A 2263  19.211  11.967   9.130 -0.1180 -0.1065  0.4663
  142loPI   C2A 2264  19.317  12.242   8.824 -0.0166  0.0855  0.1035
  142loPI   C3A 2265  19.239  12.385   8.448 -0.3904  0.2391 -0.1106
  142loPI   C4A 2266  19.352  12.569   8.162  0.1197  0.1352  0.1986
  142loPI   C5A 2267  19.418  12.510   7.686 -0.0355  0.0740  0.1567
  142loPI   C6A 2268  19.425  12.205   7.491  0.2193  0.2170  0.1237
  142loPI   C1B 2269  19.234  11.333   8.961 -0.1403  0.0552 -0.0359
  142loPI   C2B 2270  19.263  11.459   8.527 -0.0509 -0.1786 -0.1809
  142loPI   C3B 2271  19.201  11.555   8.088 -0.0884  0.1142  0.2186
  142loPI   C4B 2272  19.353  11.694   7.722 -0.2341 -0.0368  0.0312
  143loPI    C1 2273   5.217   9.016  10.172  0.0459  0.0093 -0.0072
  143loPI    C2 2274   5.200   8.623  10.102 -0.0894  0.0042  0.0511
  143loPI    C3 2275   4.969   8.785  10.385 -0.1508  0.1496 -0.0810
  143loPI   PO4 2276   5.236   9.119   9.793  0.0416  0.1411  0.4012
  143loPI   GL1 2277   5.460   9.111   9.418 -0.2238 -0.3038  0.0620
  143loPI   GL2 2278   5.380   9.401   9.238 -0.0133  0.1195 -0.1065
  143loPI   C1A 2279   5.561   8.980   8.963  0.1321  0.1346 -0.2523
  143loPI   C2A 2280   5.787   8.858   8.553 -0.2224  0.1241 -0.2549
  143loPI   C3A 2281   5.843   8.500   8.241  0.2210 -0.2453  0.2149
  143loPI   C4A 2282   5.934   8.494   7.920 -0.0355 -0.2057  0.0999
  143loPI   C5A 2283   5.995   8.624   7.510 -0.2055  0.0771  0.1989
  143loPI   C6A 2284   6.046   8.638   7.072 -0.0816 -0.1386 -0.0852
  143loPI   C1B 2285   5.280   9.383   8.784  0.2857 -0.2048  0.0014
  143loPI   C2B 2286   5.248   9.195   8.434 -0.0740 -0.3859 -0.1629
  143loPI   C3B 2287   5.381   8.902   8.236  0.2276  0.1766 -0.0616
  143loPI   C4B 2288   5.471   8.654   7.919  0.2349  0.0290  0.1385
  144loPI    C1 2289  10.150   6.958  10.012  0.0665  0.1859 -0.2641
  144loPI    C2 2290   9.769   6.940  10.130  0.1093  0.1392 -0.1311
  144loPI    C3 2291  10.003   7.239  10.256  0.2052 -0.0116  0.0529
  144loPI   PO4 2292  10.126   6.929   9.816 -0.1452 -0.0270  0.0493
  144loPI   GL1 2293   9.986   6.646   9.523 -0.1287 -0.1125 -0.1963
  144loPI   GL2 2294  10.276   6.416   9.639 -0.1396  0.0324  0.0562
  144loPI   C1A 2295  10.083   6.688   9.137  0.3874 -0.0551 -0.0759
  144loPI   C2A 2296  10.149   6.388   8.863 -0.5053  0.1935 -0.0761
  144loPI   C3A 2297  10.030   6.158   8.558 -0.0461 -0.2637  0.0114
  144loPI   C4A 2298   9.868   6.211   8.215  0.1430 -0.2407  0.1500
  144loPI   C5A 2299   9.689   6.202   7.782  0.0095  0.0526  0.0035
  144loPI   C6A 2300   9.275   6.213   7.558 -0.4391 -0.3035 -0.0723
  144loPI   C1B 2301  10.530   6.423   9.291 -0.0167  0.0401 -0.1150
  144loPI   C2B 2302  10.628   6.204   8.828 -0.2467  0.1637  0.1876
  144loPI   C3B 2303  10.702   6.137   8.457 -0.0822  0.4311  0.4263
  144loPI   C4B 2304  10.993   6.067   8.213  0.0682 -0.4274  0.1138
  145loPI    C1 2305   1.724  13.345   9.353 -0.2675 -0.0262 -0.0017
  145loPI    C2 2306   1.799  12.987   9.515 -0.3021  0.0380  0.1575
  145loPI    C3 2307   1.791  13.314   9.746 -0.0604  0.1724 -0.0193
  145loPI   PO4 2308   1.903  13.335   9.198  0.5777  0.4242  0.1590
  145loPI   GL1 2309   1.887  13.095   8.923 -0.0561  0.1447  0.1432
  145loPI   GL2 2310   1.994  12.723   8.922 -0.1840 -0.0056  0.2153
  145loPI   C1A 2311   1.930  13.256   8.517  0.0252  0.0171 -0.3925
  145loPI   C2A 2312   2.021  13.159   8.113 -0.1693 -0.0233 -0.1687
  145loPI   C3A 2313   2.119  12.953   7.713 -0.2743  0.0188 -0.0647
  145loPI   C4A 2314   2.321  12.834   7.288  0.1701  0.3727  0.3151
  145loPI   C5A 2315   2.392  12.568   7.067 -0.2469 -0.0532 -0.1758
  145loPI   C6A 2316   2.565  12.173   7.283  0.3164  0.0287 -0.0661
  145loPI   C1B 2317   1.939  12.621   8.487 -0.1453 -0.2809 -0.2490
  145loPI   C2B 2318   1.865  12.666   8.046 -0.0758 -0.0731 -0.0968
  145loPI   C3B 2319   1.696  12.619   7.651 -0.0192  0.2467  0.1599
  145loPI   C4B 2320   1.787  12.687   7.198 -0.0167 -0.1792  0.0481
  146loPI    C1 2321   1.275   7.397  10.258  0.0190  0.0277 -0.2600
  146loPI    C2 2322   1.658   7.412  10.372 -0.0222 -0.1316 -0.0962
  146loPI    C3 2323   1.399   7.182  10.571 -0.2888  0.2764  0.0392
  146loPI   PO4 2324   1.358   7.453   9.941  0.2220  0.2156 -0.2451
  146loPI   GL1 2325   1.351   7.423   9.548  0.0568 -0.0673 -0.0803
  146loPI   GL2 2326   1.125   7.587   9.522 -0.1504  0.0865 -0.0826
  146loPI   C1A 2327   1.594   7.320   9.231  0.2699 -0.0106  0.2012
  146loPI   C2A 2328   1.600   7.233   8.802  0.0742 -0.2825 -0.0637
  146loPI   C3A 2329   1.680   7.267   8.422  0.1408  0.3589 -0.1314
  146loPI   C4A 2330   2.033   7.475   8.110 -0.1725  0.0817 -0.0891
  146loPI   C5A 2331   2.073   7.393   7.654  0.0669  0.1647 -0.4112
  146loPI   C6A 2332   2.503   7.293   7.515 -0.0929  0.0557 -0.6402
  146loPI   C1B 2333   1.104   7.637   9.058  0.0984  0.1454  0.1510
  146loPI   C2B 2334   1.204   7.631   8.603 -0.0291 -0.3132 -0.2697
  146loPI   C3B 2335   1.325   7.546   8.179  0.1164 -0.0626  0.0135
  146loPI   C4B 2336   1.601   7.354   7.876 -0.1492 -0.0485 -0.0836
  147loPI    C1 2337  15.376   3.835   9.792  0.0360  0.1950  0.1182
  147loPI    C2 2338  15.767   3.807   9.713  0.0310 -0.0424  0.1703
  147loPI    C3 2339  15.637   3.778  10.090 -0.0745 -0.4290  0.1077
  147loPI   PO4 2340  15.217   4.007   9.703  0.1218  0.1761 -0.2426
  147loPI   GL1 2341  14.866   3.944   9.435  0.3624  0.1191 -0.1468
  147loPI   GL2 2342  14.587   3.981   9.089 -0.0464 -0.0495 -0.3235
  147loPI   C1A 2343  15.106   4.131   9.046 -0.1550  0.0119 -0.0410
  147loPI   C2A 2344  15.148   4.037   8.606  0.1035  0.2430  0.1222
  147loPI   C3A 2345  14.857   4.198   8.223  0.1028  0.0275 -0.1230
  147loPI   C4A 2346  14.955   4.391   7.901  0.1264  0.0993 -0.1903
  147loPI   C5A 2347  14.665   4.456   7.581 -0.0087  0.0879  0.0751
  147loPI   C6A 2348  14.503   4.486   7.152 -0.1029 -0.0520 -0.3334
  147loPI   C1B 2349  14.714   4.359   8.715  0.0708  0.1739 -0.3005
  147loPI   C2B 2350  14.756   4.668   8.388  0.0031 -0.0762  0.3529
  147loPI   C3B 2351  14.920   4.916   7.955 -0.0104  0.1184 -0.2133
  147loPI   C4B 2352  14.863   4.960   7.474  0.1966 -0.0421 -0.1620
  148loPI    C1 2353   9.818  19.016   9.582  0.0403  0.0891  0.2095
  148loPI    C2 2354   9.468  18.844   9.492  0.0354  0.1607  0.0899
  148loPI    C3 2355   9.499  19.243   9.503  0.2350  0.1656 -0.4107
  148loPI   PO4 2356   9.969  18.879   9.400 -0.0054 -0.2445 -0.0821
  148loPI   GL1 2357  10.103  19.201   9.092  0.2853  0.1637  0.0618
  148loPI   GL2 2358   9.854  19.195   9.000  0.0714  0.1099  0.1907
  148loPI   C1A 2359  10.270  19.346   8.763 -0.0278  0.1884 -0.1857
  148loPI   C2A 2360  10.171  19.496   8.389  0.2098  0.0994 -0.2830
  148loPI   C3A 2361  10.263  19.666   7.954 -0.2548  0.1885 -0.2124
  148loPI   C4A 2362  10.160  19.665   7.533 -0.0552  0.2225 -0.0685
  148loPI   C5A 2363   9.923  19.468   7.255  0.1825 -0.2330  0.4368
  148loPI   C6A 2364   9.841  19.103   7.100  0.1511 -0.0947  0.0107
  148loPI   C1B 2365   9.880  19.569   8.831 -0.1392  0.0350  0.1764
  148loPI   C2B 2366   9.935  19.952   9.045 -0.0917  0.1872  0.2815
  148loPI   C3B 2367  10.186  20.394   8.921 -0.2139  0.2621 -0.1414
  148loPI   C4B 2368  10.161  20.500   8.462 -0.0108 -0.4161 -0.1796
  149loPI    C1 2369  17.435  15.473   9.677 -0.0673 -0.0758  0.0536
  149loPI    C2 2370  17.787  15.478   9.487 -0.0186 -0.0690  0.1436
  149loPI    C3 2371  17.729  15.228   9.793 -0.0533  0.0105  0.2022
  149loPI   PO4 2372  17.294  15.732   9.618 -0.2809 -0.2548  0.3200
  149loPI   GL1 2373  17.556  16.014   9.355 -0.1404  0.1615 -0.1508
  149loPI   GL2 2374  17.725  15.819   9.158 -0.0653 -0.0792 -0.1895
  149loPI   C1A 2375  17.263  15.958   8.962 -0.3080 -0.0517 -0.3575
  149loPI   C2A 2376  17.299  15.885   8.623  0.0698  0.1488  0.0383
  149loPI   C3A 2377  17.142  15.982   8.194 -0.2380  0.5504  0.0154
  149loPI   C4A 2378  17.041  15.796   7.810 -0.1181  0.0499  0.1536
  149loPI   C5A 2379  16.860  15.950   7.447  0.0727 -0.0059  0.2477
  149loPI   C6A 2380  16.646  15.806   7.008  0.1574 -0.1944  0.2110
  149loPI   C1B 2381  17.804  15.994   8.691  0.1681 -0.3006 -0.1287
  149loPI   C2B 2382  17.836  16.205   8.169  0.1765 -0.2763 -0.1151
  149loPI   C3B 2383  17.985  16.243   7.672  0.2853  0.2799  0.0128
  149loPI   C4B 2384  18.284  16.294   7.323  0.1374  0.2286 -0.0301
  150loPI    C1 2385  17.961  15.902   9.869  0.1181  0.2239  0.2516
  150loPI    C2 2386  17.572  15.993   9.878 -0.0019 -0.2328  0.0044
  150loPI    C3 2387  17.706  15.671  10.074  0.3373  0.1873  0.4893
  150loPI   PO4 2388  18.036  16.005   9.506  0.1844  0.3303 -0.0494
  150loPI   GL1 2389  18.253  16.137   9.321 -0.1365  0.0530  0.0443
  150loPI   GL2 2390  18.233  16.435   9.286 -0.2972  0.1185 -0.2050
  150loPI   C1A 2391  18.602  16.275   8.989  0.0350 -0.1014 -0.0546
  150loPI   C2A 2392  18.861  16.398   8.573  0.1218  0.0177 -0.2279
  150loPI   C3A 2393  18.878  16.614   8.191 -0.1194 -0.0182  0.1826
  150loPI   C4A 2394  18.777  16.522   7.877  0.2727  0.1098  0.2896
  150loPI   C5A 2395  18.732  16.479   7.489  0.0568 -0.1404 -0.0168
  150loPI   C6A 2396  18.735  16.445   7.056  0.2053 -0.0830 -0.2294
  150loPI   C1B 2397  18.103  16.350   8.864 -0.3150 -0.2286  0.1705
  150loPI   C2B 2398  18.175  16.414   8.489 -0.2020  0.1616 -0.1442
  150loPI   C3B 2399  17.919  16.683   8.233 -0.0634  0.2661  0.1275
  150loPI   C4B 2400  17.692  16.965   8.416 -0.1243  0.2143 -0.0918
  151loPI    C1 2401   2.233   9.062   9.728  0.0169 -0.0016  0.2354
  151loPI    C2 2402   2.491   8.759   9.694 -0.0090 -0.0007  0.0140
  151loPI    C3 2403   2.619   9.118   9.815  0.0638 -0.0410  0.0571
  151loPI   PO4 2404   2.104   9.045   9.493 -0.1317  0.3705  0.3647
  151loPI   GL1 2405   1.954   8.748   9.247  0.1416 -0.0036 -0.2288
  151loPI   GL2 2406   1.731   8.859   8.922 -0.1575 -0.1494  0.1107
  151loPI   C1A 2407   2.210   8.577   8.940  0.3886  0.0307  0.0832
  151loPI   C2A 2408   2.443   8.763   8.684 -0.2620 -0.0777  0.0265
  151loPI   C3A 2409   2.684   8.749   8.346 -0.0735  0.3212  0.1158
  151loPI   C4A 2410   2.881   8.763   7.982  0.2298 -0.2598 -0.0876
  151loPI   C5A 2411   3.031   8.923   7.560  0.2328  0.1372 -0.2083
  151loPI   C6A 2412   2.897   9.384   7.489 -0.0191  0.1580  0.1759
  151loPI   C1B 2413   1.679   8.902   8.489 -0.2035  0.0417  0.2076
  151loPI   C2B 2414   1.825   8.788   8.113  0.0363  0.0192 -0.1108
  151loPI   C3B 2415   1.969   8.838   7.729  0.0373 -0.2161 -0.1422
  151loPI   C4B 2416   1.905   8.986   7.363 -0.0665 -0.0840  0.2054
  152loPI    C1 2417  18.431  14.115   9.971 -0.0010 -0.0444 -0.1108
  152loPI    C2 2418  18.822  14.146  10.053 -0.0037  0.4434 -0.2496
  152loPI    C3 2419  18.551  14.278  10.317 -0.0850 -0.0168 -0.0945
  152loPI   PO4 2420  18.445  14.197   9.782 -0.2816  0.4081  0.0216
  152loPI   GL1 2421  18.233  14.150   9.340 -0.3549 -0.4752  0.0622
  152loPI   GL2 2422  18.512  14.175   9.239  0.2456 -0.1597 -0.2595
  152loPI   C1A 2423  18.211  14.433   8.915 -0.3818 -0.3168 -0.0708
  152loPI   C2A 2424  18.131  14.512   8.570  0.2584 -0.0123 -0.0265
  152loPI   C3A 2425  17.895  14.590   8.167  0.5547  0.0945 -0.0715
  152loPI   C4A 2426  17.725  14.473   7.746 -0.1048  0.2258 -0.2108
  152loPI   C5A 2427  17.879  14.600   7.400 -0.0314 -0.3078 -0.1835
  152loPI   C6A 2428  18.267  14.691   7.190  0.2697 -0.2679  0.1766
  152loPI   C1B 2429  18.650  14.257   8.756  0.0518 -0.0953 -0.1223
  152loPI   C2B 2430  18.636  14.437   8.434  0.0564  0.1878 -0.1809
  152loPI   C3B 2431  18.353  14.738   8.171  0.0978 -0.0057  0.2691
  152loPI   C4B 2432  18.207  15.009   8.303  0.2269 -0.0660  0.2903
  153loPI    C1 2433   4.076  14.570   9.155 -0.0228 -0.1360  0.0676
  153loPI    C2 2434   4.389  14.351   9.275 -0.0809 -0.2229  0.0623
  153loPI    C3 2435   4.018  14.237   9.370 -0.1207 -0.2200 -0.0868
  153loPI   PO4 2436   4.219  14.668   8.873 -0.1398 -0.1707 -0.0536
  153loPI   GL1 2437   4.345  14.745   8.506 -0.1171 -0.0930  0.1489
  153loPI   GL2 2438   4.441  15.125   8.706  0.2857  0.0116  0.0834
  153loPI   C1A 2439   4.474  14.366   8.258 -0.3367  0.1115 -0.2458
  153loPI   C2A 2440   4.852  14.256   7.980 -0.2540  0.1754  0.0169
  153loPI   C3A 2441   4.758  14.049   7.606 -0.0399 -0.0896 -0.0257
  153loPI   C4A 2442   4.799  13.958   7.195  0.1143 -0.1485 -0.0494
  153loPI   C5A 2443   5.232  14.021   6.865  0.2362 -0.2661  0.1091
  153loPI   C6A 2444   5.478  14.056   6.505  0.1602 -0.2415  0.3089
  153loPI   C1B 2445   4.518  15.205   8.258 -0.1600  0.3677 -0.1532
  153loPI   C2B 2446   4.646  15.149   7.892  0.0040  0.3372  0.0872
  153loPI   C3B 2447   4.531  15.172   7.523  0.0641  0.3840  0.0124
  153loPI   C4B 2448   4.195  15.173   7.219  0.0987  0.0414 -0.0016
  154loPI    C1 2449   9.840   8.969   9.798  0.1429  0.0839 -0.0246
  154loPI    C2 2450   9.644   9.030  10.141  0.0810 -0.1467 -0.0173
  154loPI    C3 2451   9.978   9.236  10.062  0.1227 -0.1278  0.2031
  154loPI   PO4 2452   9.621   8.869   9.662  0.2940  0.0213 -0.1233
  154loPI   GL1 2453   9.282   8.855   9.369 -0.4473  0.0646 -0.2604
  154loPI   GL2 2454   9.383   8.558   9.346  0.0530 -0.1365  0.0154
  154loPI   C1A 2455   9.098   9.019   8.994  0.1320 -0.0167 -0.0154
  154loPI   C2A 2456   9.009   9.094   8.633 -0.0481  0.2081  0.0721
  154loPI   C3A 2457   9.056   9.067   8.176 -0.2422 -0.0594 -0.1224
  154loPI   C4A 2458   9.106   9.355   7.948  0.0079  0.2820 -0.1208
  154loPI   C5A 2459   9.236   9.645   7.686  0.0968 -0.0825 -0.2509
  154loPI   C6A 2460   9.057   9.934   7.509  0.2486  0.0819  0.5369
  154loPI   C1B 2461   9.315   8.567   8.785  0.1390 -0.2857 -0.2006
  154loPI   C2B 2462   9.350   8.616   8.368  0.2901  0.0734 -0.0636
  154loPI   C3B 2463   9.437   8.816   7.999  0.0087  0.0135  0.2949
  154loPI   C4B 2464   9.481   8.635   7.609 -0.1235 -0.1443 -0.0688
  155loPI    C1 2465  15.822   4.743  10.107 -0.0141 -0.0696 -0.0630
  155loPI    C2 2466  15.873   5.139  10.136 -0.0139 -0.0756  0.0203
  155loPI    C3 2467  16.163   4.891  10.255 -0.0676 -0.1029  0.0949
  155loPI   PO4 2468  15.659   4.661   9.792 -0.0334  0.1892 -0.0373
  155loPI   GL1 2469  15.856   4.723   9.377  0.1345 -0.0002  0.1107
  155loPI   GL2 2470  15.545   4.812   9.334 -0.1586  0.0836 -0.1390
  155loPI   C1A 2471  15.991   4.887   8.952  0.0204 -0.0260 -0.1372
  155loPI   C2A 2472  16.057   5.120   8.635  0.5086  0.0996  0.0445
  155loPI   C3A 2473  16.441   5.330   8.562  0.0636  0.2058  0.2057
  155loPI   C4A 2474  16.865   5.363   8.389  0.2108  0.1383 -0.1037
  155loPI   C5A 2475  17.189   5.494   8.136  0.1565 -0.0901 -0.1799
  155loPI   C6A 2476  17.528   5.621   7.799 -0.0240 -0.0496  0.0703
  155loPI   C1B 2477  15.546   4.473   9.017  0.1630 -0.1683 -0.3506
  155loPI   C2B 2478  15.678   4.257   8.639  0.2046 -0.4023 -0.1114
  155loPI   C3B 2479  15.979   3.937   8.515 -0.1790  0.0088  0.0471
  155loPI   C4B 2480  16.268   3.861   8.105 -0.1086  0.0079 -0.1351
  156loPI    C1 2481  15.670  18.583   9.734  0.0881  0.0028 -0.2138
  156loPI    C2 2482  15.721  18.852  10.025  0.2699 -0.0269 -0.2169
  156loPI    C3 2483  15.728  18.462  10.111 -0.0635 -0.0323 -0.2012
  156loPI   PO4 2484  15.558  18.762   9.535  0.1757  0.1324 -0.2354
  156loPI   GL1 2485  15.468  18.723   9.188  0.3314 -0.3414 -0.0319
  156loPI   GL2 2486  15.467  19.024   8.920  0.2100  0.0116  0.3733
  156loPI   C1A 2487  15.529  18.361   8.866 -0.2015 -0.0289  0.0429
  156loPI   C2A 2488  15.694  18.259   8.466  0.1476  0.3520  0.2231
  156loPI   C3A 2489  15.852  18.195   8.051 -0.0471 -0.2135  0.0667
  156loPI   C4A 2490  15.805  17.888   7.742  0.1877 -0.2335 -0.0539
  156loPI   C5A 2491  16.109  17.499   7.504  0.0914 -0.1807 -0.1539
  156loPI   C6A 2492  16.473  17.291   7.617  0.0764 -0.0314  0.0143
  156loPI   C1B 2493  15.311  19.101   8.545 -0.0970 -0.5149  0.1972
  156loPI   C2B 2494  15.310  19.547   8.334 -0.3107 -0.1060  0.0335
  156loPI   C3B 2495  15.295  19.970   8.174  0.3706 -0.2368  0.1420
  156loPI   C4B 2496  15.418  20.309   8.112  0.1518  0.1121  0.4489
  157loPI    C1 2497   2.381   0.370   9.372  0.1338 -0.0963 -0.0018
  157loPI    C2 2498   2.410   0.695   9.604 -0.1812 -0.0750  0.0131
  157loPI    C3 2499   2.050   0.547   9.512 -0.0526 -0.2040 -0.2972
  157loPI   PO4 2500   2.480   0.355   9.126  0.1081 -0.2066  0.0141
  157loPI   GL1 2501   2.392   0.553   8.692 -0.0860 -0.1420  0.1585
  157loPI   GL2 2502   2.623   0.275   8.611  0.1537 -0.2179  0.4458
  157loPI   C1A 2503   2.214   0.750   8.443  0.0083 -0.0761 -0.0045
  157loPI   C2A 2504   2.139   1.104   8.130  0.0941  0.1112  0.1513
  157loPI   C3A 2505   2.102   1.460   7.821  0.1841 -0.1933  0.2310
  157loPI   C4A 2506   2.267   1.415   7.388  0.2235 -0.0028  0.0783
  157loPI   C5A 2507   2.625   1.311   7.122  0.1279 -0.2460 -0.0158
  157loPI   C6A 2508   2.907   1.191   7.226  0.0503 -0.1782  0.1088
  157loPI   C1B 2509   2.937   0.324   8.393 -0.1489 -0.1404  0.0606
  157loPI   C2B 2510   3.085   0.298   8.099 -0.1901 -0.0189  0.0433
  157loPI   C3B 2511   3.122   0.378   7.632  0.2130 -0.0211  0.0354
  157loPI   C4B 2512   3.227   0.352   7.221  0.0135 -0.3342 -0.4963
  158loPI    C1 2513   2.031  10.064   9.669 -0.0480 -0.2639 -0.0456
  158loPI    C2 2514   1.848  10.215   9.991 -0.2454 -0.1520 -0.2078
  158loPI    C3 2515   2.243  10.150   9.997 -0.2513 -0.1734  0.0638
  158loPI   PO4 2516   1.908   9.992   9.488  0.1263 -0.1903 -0.4249
  158loPI   GL1 2517   1.978  10.063   9.066 -0.2904 -0.0669 -0.1885
  158loPI   GL2 2518   2.076  10.393   9.161 -0.0735  0.1442  0.0892
  158loPI   C1A 2519   1.904   9.952   8.666  0.0213 -0.2066  0.2008
  158loPI   C2A 2520   1.803   9.845   8.280  0.3707  0.1231  0.0485
  158loPI   C3A 2521   1.665   9.798   7.754  0.2477  0.1484 -0.1575
  158loPI   C4A 2522   1.533   9.965   7.394 -0.2798  0.3868  0.0277
  158loPI   C5A 2523   1.383  10.341   7.215  0.1680  0.2867 -0.2773
  158loPI   C6A 2524   0.862  10.253   7.145  0.1484  0.0135 -0.2462
  158loPI   C1B 2525   1.969  10.432   8.758  0.0592 -0.1052  0.0211
  158loPI   C2B 2526   1.689  10.365   8.425 -0.0537  0.2781 -0.1718
  158loPI   C3B 2527   1.508  10.237   8.061  0.2595  0.4178  0.2186
  158loPI   C4B 2528   1.251  10.262   7.662 -0.0200  0.0257  0.0162
  159loPI    C1 2529  12.114   9.982  10.479  0.1276 -0.0011 -0.1824
  159loPI    C2 2530  12.368   9.780  10.713  0.0827  0.3088  0.1438
  159loPI    C3 2531  11.976   9.707  10.734  0.1249 -0.0931 -0.2824
  159loPI   PO4 2532  12.151   9.992  10.198 -0.0077 -0.0441  0.0536
  159loPI   GL1 2533  11.843  10.002   9.825 -0.0826 -0.3819 -0.4607
  159loPI   GL2 2534  11.731  10.339   9.707  0.3073 -0.3168 -0.1587
  159loPI   C1A 2535  11.864  10.012   9.363  0.1127 -0.0267  0.0637
  159loPI   C2A 2536  11.690   9.894   8.962  0.0513 -0.0546  0.0511
  159loPI   C3A 2537  11.570   9.764   8.560 -0.0612 -0.2889 -0.0905
  159loPI   C4A 2538  11.157   9.771   8.396 -0.0277  0.1893 -0.2367
  159loPI   C5A 2539  11.125   9.716   8.037 -0.2790  0.0872 -0.1642
  159loPI   C6A 2540  11.050   9.720   7.562 -0.0452 -0.0861  0.1874
  159loPI   C1B 2541  12.109  10.462   9.578  0.1980 -0.1041  0.1579
  159loPI   C2B 2542  12.330  10.766   9.283  0.0414 -0.2166  0.0818
  159loPI   C3B 2543  12.514  11.067   9.073  0.1316  0.3966  0.0828
  159loPI   C4B 2544  12.804  11.388   8.880  0.1470 -0.0638 -0.0933
  160loPI    C1 2545  18.178   8.622  10.282 -0.1749  0.1555  0.2663
  160loPI    C2 2546  18.007   8.355  10.039  0.2304  0.0717  0.0634
  160loPI    C3 2547  17.853   8.423  10.402 -0.2140 -0.0108 -0.1031
  160loPI   PO4 2548  18.234   8.898  10.165  0.0468  0.1400 -0.2168
  160loPI   GL1 2549  18.356   9.007   9.675  0.1103 -0.0121  0.1710
  160loPI   GL2 2550  18.471   8.755   9.692  0.0373  0.0972  0.4076
  160loPI   C1A 2551  18.193   8.998   9.244 -0.1858  0.1713 -0.2116
  160loPI   C2A 2552  18.143   8.976   8.787  0.0179  0.6918  0.0050
  160loPI   C3A 2553  18.120   9.177   8.315 -0.0853 -0.3671  0.0054
  160loPI   C4A 2554  18.082   9.181   7.905 -0.1633  0.0691  0.0981
  160loPI   C5A 2555  18.124   8.867   7.532 -0.1277  0.1545 -0.2269
  160loPI   C6A 2556  18.177   8.516   7.330  0.1541 -0.3655 -0.0149
  160loPI   C1B 2557  18.647   8.762   9.284 -0.3313  0.0330 -0.3292
  160loPI   C2B 2558  18.547   8.708   8.827  0.2876 -0.1868  0.1690
  160loPI   C3B 2559  18.420   8.709   8.360 -0.1842 -0.1461 -0.3584
  160loPI   C4B 2560  18.416   8.807   7.957 -0.0500 -0.0841  0.1332
  161loPI    C1 2561   7.423  10.035  10.156  0.0644 -0.1242 -0.1519
  161loPI    C2 2562   7.399   9.724  10.406 -0.1102 -0.0737 -0.1040
  161loPI    C3 2563   7.542  10.075  10.536 -0.1542 -0.0616 -0.0880
  161loPI   PO4 2564   7.175  10.078  10.000 -0.0745 -0.0041 -0.2172
  161loPI   GL1 2565   7.186  10.118   9.596  0.1144 -0.1225 -0.2560
  161loPI   GL2 2566   7.408  10.334   9.371  0.1698 -0.1483 -0.1083
  161loPI   C1A 2567   6.957  10.138   9.264  0.0276  0.4710 -0.0040
  161loPI   C2A 2568   6.932  10.197   8.769 -0.1495  0.3090 -0.2411
  161loPI   C3A 2569   6.832  10.144   8.385 -0.1380  0.1472  0.1427
  161loPI   C4A 2570   6.924  10.184   8.021 -0.3909 -0.0248  0.1236
  161loPI   C5A 2571   6.995  10.199   7.566 -0.0721  0.0222 -0.0775
  161loPI   C6A 2572   6.908  10.457   7.239 -0.2538 -0.0123 -0.1018
  161loPI   C1B 2573   7.356  10.021   9.020  0.3992 -0.4683 -0.0481
  161loPI   C2B 2574   7.335   9.922   8.599 -0.2255  0.4901  0.2354
  161loPI   C3B 2575   7.216   9.776   8.351 -0.1450  0.0369 -0.1397
  161loPI   C4B 2576   7.213   9.449   7.980 -0.0307 -0.1098 -0.1419
  162loPI    C1 2577  16.683  17.646   9.487 -0.3041  0.0642 -0.0764
  162loPI    C2 2578  16.399  17.422   9.657 -0.0503 -0.0581  0.1963
  162loPI    C3 2579  16.448  17.802   9.771 -0.3596  0.0875 -0.1349
  162loPI   PO4 2580  16.755  17.499   9.277 -0.0058  0.2638  0.0183
  162loPI   GL1 2581  16.709  17.675   8.916  0.1367 -0.4942  0.1239
  162loPI   GL2 2582  16.571  18.058   8.907 -0.1070  0.3127  0.2969
  162loPI   C1A 2583  16.546  17.600   8.509 -0.4783 -0.1312  0.2155
  162loPI   C2A 2584  16.617  17.706   8.071  0.0410  0.0027 -0.0439
  162loPI   C3A 2585  16.692  17.741   7.674 -0.0445  0.1272 -0.2995
  162loPI   C4A 2586  16.720  17.528   7.227 -0.0640  0.3354 -0.2249
  162loPI   C5A 2587  16.572  17.423   6.911 -0.2369  0.0470  0.0191
  162loPI   C6A 2588  16.297  17.670   6.917  0.0539  0.0053  0.2905
  162loPI   C1B 2589  16.632  18.214   8.537  0.3354 -0.2930 -0.2070
  162loPI   C2B 2590  16.665  18.194   8.085  0.1540  0.0374 -0.0731
  162loPI   C3B 2591  16.713  18.227   7.697 -0.1000 -0.3537  0.2310
  162loPI   C4B 2592  16.878  18.535   7.388 -0.0560 -0.1141 -0.0797
  163loPI    C1 2593  16.226  16.404   9.821  0.0050  0.1567  0.2768
  163loPI    C2 2594  16.295  16.675  10.107  0.0698  0.1306  0.2859
  163loPI    C3 2595  15.919  16.577  10.011  0.0447  0.2744  0.2344
  163loPI   PO4 2596  16.313  16.442   9.597  0.0224 -0.5204 -0.4466
  163loPI   GL1 2597  16.438  16.478   9.181  0.0262 -0.0226  0.1119
  163loPI   GL2 2598  16.177  16.282   9.129 -0.0590 -0.0111  0.0098
  163loPI   C1A 2599  16.430  16.332   8.732 -0.0471  0.2582 -0.2541
  163loPI   C2A 2600  16.543  16.132   8.441 -0.0338  0.0327  0.3154
  163loPI   C3A 2601  16.560  16.098   7.951  0.2347 -0.2760 -0.3082
  163loPI   C4A 2602  16.547  16.334   7.594 -0.1055  0.1055 -0.1257
  163loPI   C5A 2603  16.728  16.406   7.306  0.2840  0.0529 -0.0985
  163loPI   C6A 2604  16.848  16.695   7.004  0.1181  0.3085  0.3637
  163loPI   C1B 2605  15.924  16.199   8.679  0.2232 -0.0179  0.0232
  163loPI   C2B 2606  15.744  16.196   8.232 -0.0380  0.2954 -0.2807
  163loPI   C3B 2607  15.559  16.232   7.763  0.3396 -0.1669  0.2109
  163loPI   C4B 2608  15.740  16.131   7.389  0.3361  0.0094  0.1558
  164loPI    C1 2609   1.532  15.515   9.582  0.2362 -0.2076  0.5232
  164loPI    C2 2610   1.164  15.573   9.730  0.0853 -0.2233  0.1635
  164loPI    C3 2611   1.458  15.831   9.817 -0.2190  0.2751 -0.2283
  164loPI   PO4 2612   1.443  15.356   9.344 -0.2701  0.2603 -0.4223
  164loPI   GL1 2613   1.455  15.170   8.963 -0.0026  0.0036  0.1670
  164loPI   GL2 2614   1.659  15.319   8.779 -0.2110 -0.2998 -0.2862
  164loPI   C1A 2615   1.468  14.927   8.565  0.1225  0.1355 -0.3600
  164loPI   C2A 2616   1.570  14.943   8.129 -0.0547  0.0682  0.1480
  164loPI   C3A 2617   1.496  14.831   7.725  0.1669  0.1721 -0.1501
  164loPI   C4A 2618   1.123  14.753   7.498  0.0920  0.1903  0.0227
  164loPI   C5A 2619   0.792  14.691   7.325 -0.0590  0.0082 -0.1613
  164loPI   C6A 2620   0.514  14.803   6.947 -0.2116 -0.0041  0.2395
  164loPI   C1B 2621   1.712  15.446   8.414  0.1589 -0.1661 -0.0465
  164loPI   C2B 2622   1.774  15.533   7.987  0.1687 -0.0912 -0.0162
  164loPI   C3B 2623   1.891  15.625   7.533  0.1103 -0.2501  0.1359
  164loPI   C4B 2624   1.934  15.897   7.158  0.3116  0.2591 -0.1936
  165loPI    C1 2625  13.961   5.017   9.919 -0.1659 -0.0774  0.0709
  165loPI    C2 2626  14.203   4.925  10.224 -0.0854 -0.2883 -0.0544
  165loPI    C3 2627  13.904   5.186  10.278 -0.0528 -0.2996  0.1955
  165loPI   PO4 2628  14.008   5.064   9.701 -0.1024  0.1194 -0.3371
  165loPI   GL1 2629  14.077   5.091   9.286 -0.0437 -0.0046  0.1911
  165loPI   GL2 2630  13.773   5.066   9.244 -0.0977 -0.0636 -0.0535
  165loPI   C1A 2631  14.147   5.279   8.930 -0.1626  0.3359  0.2233
  165loPI   C2A 2632  14.443   5.420   8.699 -0.0399 -0.2389 -0.1589
  165loPI   C3A 2633  14.587   5.352   8.295  0.0961  0.2001 -0.0365
  165loPI   C4A 2634  14.691   5.635   8.054  0.3954  0.0120 -0.2279
  165loPI   C5A 2635  14.660   5.494   7.576 -0.3633 -0.0064 -0.0803
  165loPI   C6A 2636  14.503   5.455   7.163 -0.2827 -0.1098  0.2963
  165loPI   C1B 2637  13.860   4.912   8.814 -0.1841 -0.0558 -0.2289
  165loPI   C2B 2638  13.776   4.934   8.382 -0.0230  0.1729 -0.0081
  165loPI   C3B 2639  13.847   4.968   7.929 -0.3747  0.1539 -0.1761
  165loPI   C4B 2640  13.561   5.206   7.606 -0.1311  0.3010 -0.0223
  166loPI    C1 2641   4.904  12.101   9.343 -0.0457  0.2188 -0.1250
  166loPI    C2 2642   4.604  12.262   9.553 -0.0187 -0.1230  0.1850
  166loPI    C3 2643   4.949  12.170   9.735  0.2336  0.1522 -0.1430
  166loPI   PO4 2644   4.848  12.128   9.112  0.2668  0.0378  0.2418
  166loPI   GL1 2645   4.899  11.879   8.790 -0.1581  0.1117 -0.1148
  166loPI   GL2 2646   5.150  12.131   8.727  0.4275  0.1208  0.1253
  166loPI   C1A 2647   4.708  11.663   8.474  0.0676 -0.1073 -0.0923
  166loPI   C2A 2648   4.711  11.575   8.092  0.0115  0.1687 -0.2623
  166loPI   C3A 2649   4.489  11.484   7.704 -0.2528 -0.2815  0.1317
  166loPI   C4A 2650   4.372  11.144   7.630  0.0229  0.4290 -0.1338
  166loPI   C5A 2651   4.518  10.670   7.526 -0.1155 -0.0498  0.2244
  166loPI   C6A 2652   4.938  10.545   7.528 -0.3787 -0.0132 -0.0012
  166loPI   C1B 2653   5.224  12.155   8.187  0.0694  0.0513 -0.2731
  166loPI   C2B 2654   5.232  11.734   7.955 -0.1602  0.3252  0.1073
  166loPI   C3B 2655   4.968  11.569   7.686 -0.1172  0.0373  0.1823
  166loPI   C4B 2656   4.804  11.583   7.285 -0.3012  0.0451  0.1506
  167loPI    C1 2657   0.147  15.479   9.746  0.0060 -0.2217 -0.0992
  167loPI    C2 2658   0.217  15.120   9.909  0.0882 -0.2003 -0.0867
  167loPI    C3 2659   0.037  15.405  10.124 -0.1715 -0.3019 -0.1653
  167loPI   PO4 2660   0.122  15.415   9.472 -0.2393 -0.1642 -0.0465
  167loPI   GL1 2661   0.283  15.573   9.153 -0.0775 -0.3476 -0.0926
  167loPI   GL2 2662   0.439  15.909   9.154 -0.1425 -0.0076  0.0667
  167loPI   C1A 2663   0.096  15.582   8.695 -0.3865  0.3152  0.0508
  167loPI   C2A 2664  -0.280  15.318   8.529 -0.1338 -0.1230 -0.2644
  167loPI   C3A 2665  -0.249  15.097   8.061  0.2029  0.2344 -0.1586
  167loPI   C4A 2666  -0.431  14.987   7.612 -0.1973 -0.2784 -0.1147
  167loPI   C5A 2667  -0.511  15.369   7.337  0.0145  0.1296  0.1364
  167loPI   C6A 2668  -0.798  15.631   7.563  0.0391  0.0323  0.0098
  167loPI   C1B 2669   0.201  16.109   8.842 -0.0448 -0.0086 -0.2159
  167loPI   C2B 2670   0.050  15.992   8.407 -0.0653  0.0425 -0.0371
  167loPI   C3B 2671  -0.130  15.668   8.191 -0.0987 -0.2816 -0.1103
  167loPI   C4B 2672  -0.314  15.555   7.820  0.3320 -0.2888 -0.0297
  168loPI    C1 2673  13.499  14.004   9.994  0.0622 -0.2678 -0.0398
  168loPI    C2 2674  13.802  14.007  10.255  0.1279 -0.0479 -0.1165
  168loPI    C3 2675  13.473  13.793  10.333  0.2111 -0.1094  0.0716
  168loPI   PO4 2676  13.593  13.881   9.662 -0.0569  0.1554 -0.1896
  168loPI   GL1 2677  13.748  13.806   9.301 -0.1492  0.0248  0.1433
  168loPI   GL2 2678  14.042  13.640   9.294 -0.2693 -0.0872 -0.2166
  168loPI   C1A 2679  13.795  13.724   8.852 -0.3713 -0.2588  0.1576
  168loPI   C2A 2680  14.134  13.644   8.497  0.0835  0.1242  0.2867
  168loPI   C3A 2681  14.195  13.534   8.054  0.0981 -0.0592  0.1532
  168loPI   C4A 2682  14.360  13.456   7.676  0.1933  0.0219  0.2853
  168loPI   C5A 2683  14.460  13.670   7.350  0.0404 -0.3538 -0.0270
  168loPI   C6A 2684  14.712  13.677   6.914  0.0635  0.0297  0.1518
  168loPI   C1B 2685  14.340  13.824   8.853 -0.0633  0.1712 -0.0308
  168loPI   C2B 2686  14.414  14.001   8.318 -0.1561 -0.1754 -0.0646
  168loPI   C3B 2687  14.534  14.085   7.879  0.0918 -0.1145 -0.0716
  168loPI   C4B 2688  14.959  14.199   7.674  0.3326  0.0395  0.1804
  169loPI    C1 2689   5.210  14.501   9.234 -0.0896 -0.2570  0.0511
  169loPI    C2 2690   5.250  14.642   9.606  0.0608  0.0420 -0.0743
  169loPI    C3 2691   5.522  14.388   9.457  0.1214  0.0962 -0.0565
  169loPI   PO4 2692   5.030  14.666   9.155  0.1296  0.1088 -0.0773
  169loPI   GL1 2693   4.922  15.002   8.842 -0.0123  0.0889  0.4205
  169loPI   GL2 2694   5.043  14.733   8.662 -0.0771  0.0177 -0.0150
  169loPI   C1A 2695   5.016  15.269   8.445  0.0439 -0.0026  0.0834
  169loPI   C2A 2696   4.957  15.519   8.057  0.2403  0.2569  0.1222
  169loPI   C3A 2697   4.932  15.741   7.673 -0.0613  0.1354 -0.2215
  169loPI   C4A 2698   5.006  15.771   7.174 -0.0203  0.2927  0.1437
  169loPI   C5A 2699   4.824  15.587   6.822 -0.2996 -0.0799 -0.0135
  169loPI   C6A 2700   4.910  15.544   6.484 -0.1248 -0.1087 -0.0117
  169loPI   C1B 2701   4.842  14.767   8.239  0.0268 -0.0676  0.0773
  169loPI   C2B 2702   5.058  14.726   7.849  0.1348  0.1797 -0.1832
  169loPI   C3B 2703   5.225  14.717   7.491  0.1094  0.0883 -0.1155
  169loPI   C4B 2704   5.345  14.804   7.111 -0.0857 -0.0824  0.0446
  170loPI    C1 2705  18.095  14.661   9.844  0.0879 -0.1301  0.1145
  170loPI    C2 2706  17.810  14.565  10.108  0.1042 -0.1793  0.1145
  170loPI    C3 2707  18.179  14.655  10.235  0.0187  0.1527  0.1360
  170loPI   PO4 2708  17.959  14.733   9.653  0.1389  0.3032  0.0015
  170loPI   GL1 2709  17.994  14.991   9.395 -0.0311  0.4741 -0.0183
  170loPI   GL2 2710  17.630  15.055   9.302  0.0822  0.1648  0.2751
  170loPI   C1A 2711  18.168  14.953   8.887  0.1469  0.0684  0.1071
  170loPI   C2A 2712  18.516  14.847   8.703  0.2657 -0.1938 -0.1075
  170loPI   C3A 2713  18.800  14.830   8.393 -0.1033 -0.2109 -0.1683
  170loPI   C4A 2714  19.012  14.704   7.978  0.3096 -0.4484 -0.1811
  170loPI   C5A 2715  19.118  14.458   7.632 -0.0650 -0.1990  0.1516
  170loPI   C6A 2716  19.431  14.300   7.432  0.2131 -0.1626  0.0452
  170loPI   C1B 2717  17.753  15.311   9.031 -0.0502  0.0516  0.3059
  170loPI   C2B 2718  17.703  15.531   8.658 -0.0678 -0.1522 -0.4102
  170loPI   C3B 2719  17.623  15.792   8.255  0.0282 -0.1553  0.1009
  170loPI   C4B 2720  17.605  15.940   7.864  0.0558  0.2691  0.1703
  171loPI    C1 2721  13.359   8.254  10.697 -0.1237 -0.1093 -0.0730
  171loPI    C2 2722  13.699   8.458  10.646 -0.1387 -0.0174  0.1784
  171loPI    C3 2723  13.451   8.555  10.945 -0.2587 -0.2551  0.1583
  171loPI   PO4 2724  13.224   8.264  10.519  0.2913  0.0495  0.0965
  171loPI   GL1 2725  13.136   8.323  10.122 -0.1260  0.1440 -0.2258
  171loPI   GL2 2726  13.192   8.656   9.892 -0.0241  0.0755 -0.2096
  171loPI   C1A 2727  13.122   8.155   9.650  0.0635  0.0852  0.2026
  171loPI   C2A 2728  13.362   8.346   9.253  0.0007 -0.0796 -0.3022
  171loPI   C3A 2729  13.739   8.156   8.998 -0.2114 -0.5080  0.0208
  171loPI   C4A 2730  13.730   8.211   8.558  0.3992 -0.1645 -0.0613
  171loPI   C5A 2731  13.511   8.386   8.229 -0.0839 -0.2975 -0.0569
  171loPI   C6A 2732  13.480   8.484   7.707 -0.4386 -0.1432  0.0302
  171loPI   C1B 2733  13.111   8.760   9.431  0.0160 -0.0766  0.1238
  171loPI   C2B 2734  12.898   8.588   8.978 -0.0897 -0.4423 -0.1120
  171loPI   C3B 2735  12.695   8.415   8.623 -0.0590 -0.3819  0.1480
  171loPI   C4B 2736  12.865   8.091   8.492  0.3683 -0.2076  0.1724
  172loPI    C1 2737  14.968  13.349  10.046  0.1957 -0.0069  0.1627
  172loPI    C2 2738  14.692  13.637  10.074  0.0248 -0.1548  0.0256
  172loPI    C3 2739  15.057  13.694  10.228 -0.0203  0.1171  0.0371
  172loPI   PO4 2740  14.883  13.222   9.753  0.2456 -0.0223 -0.1723
  172loPI   GL1 2741  15.263  13.269   9.418  0.0443  0.5420 -0.1256
  172loPI   GL2 2742  15.035  13.515   9.252  0.0241  0.4242  0.2848
  172loPI   C1A 2743  15.240  13.087   9.062  0.1706 -0.4299  0.3651
  172loPI   C2A 2744  15.313  13.216   8.664 -0.0171  0.0332  0.2833
  172loPI   C3A 2745  15.476  13.081   8.279 -0.3578 -0.1202  0.1293
  172loPI   C4A 2746  15.523  13.194   7.866  0.1999  0.0097 -0.0341
  172loPI   C5A 2747  15.284  13.202   7.476 -0.1464 -0.1780 -0.1062
  172loPI   C6A 2748  14.940  13.439   7.307 -0.2162 -0.2340  0.1334
  172loPI   C1B 2749  14.901  13.465   8.805  0.3528 -0.2684 -0.1099
  172loPI   C2B 2750  14.639  13.571   8.499 -0.3011  0.2678 -0.4333
  172loPI   C3B 2751  14.677  13.665   8.107 -0.0352  0.4596 -0.0198
  172loPI   C4B 2752  14.916  13.685   7.738  0.1303 -0.0204  0.3172
  173loPI    C1 2753   9.033  15.347   9.637  0.1422 -0.3154  0.2090
  173loPI    C2 2754   9.035  15.072   9.347  0.0196 -0.0762 -0.0240
  173loPI    C3 2755   9.012  14.959   9.730  0.2077 -0.3969 -0.1030
  173loPI   PO4 2756   8.875  15.594   9.541  0.0584  0.0199 -0.4878
  173loPI   GL1 2757   8.739  15.431   9.112  0.0738  0.1071 -0.1707
  173loPI   GL2 2758   8.501  15.668   9.255 -0.3886  0.0322  0.1922
  173loPI   C1A 2759   8.468  15.309   8.828  0.3845  0.1777 -0.2557
  173loPI   C2A 2760   8.489  15.093   8.468  0.3426 -0.1626 -0.3668
  173loPI   C3A 2761   8.599  15.022   8.081  0.1521  0.0346  0.0015
  173loPI   C4A 2762   8.457  15.252   7.654  0.0282 -0.1456 -0.0272
  173loPI   C5A 2763   8.196  15.241   7.304  0.0275  0.2684  0.0143
  173loPI   C6A 2764   7.826  15.132   6.960 -0.1881 -0.0863  0.2362
  173loPI   C1B 2765   8.429  16.054   8.908  0.3007 -0.0713 -0.1878
  173loPI   C2B 2766   8.431  16.001   8.451 -0.0477  0.0123  0.0792
  173loPI   C3B 2767   8.667  15.930   8.093  0.3410  0.0550 -0.4719
  173loPI   C4B 2768   9.024  15.961   7.702 -0.1918  0.1135 -0.2611
  174loPI    C1 2769   6.633   1.718   9.354  0.0921 -0.1998 -0.1476
  174loPI    C2 2770   6.708   2.087   9.219  0.0502 -0.1777 -0.1105
  174loPI    C3 2771   6.476   1.840   9.007 -0.0897 -0.1118 -0.0358
  174loPI   PO4 2772   6.843   1.519   9.370  0.0042  0.2070 -0.1219
  174loPI   GL1 2773   6.997   1.699   9.026 -0.1427 -0.1595  0.0260
  174loPI   GL2 2774   7.321   1.806   9.013 -0.1015 -0.0418  0.2605
  174loPI   C1A 2775   7.199   1.640   8.592 -0.1272  0.2353 -0.2325
  174loPI   C2A 2776   7.254   1.900   8.240 -0.1560 -0.1023 -0.2264
  174loPI   C3A 2777   7.369   2.019   7.858  0.2607  0.2143  0.1089
  174loPI   C4A 2778   7.114   2.076   7.485  0.0168  0.0717 -0.2675
  174loPI   C5A 2779   6.969   1.931   7.214 -0.1152  0.1528 -0.0460
  174loPI   C6A 2780   6.709   1.870   6.854  0.0021 -0.0118 -0.1048
  174loPI   C1B 2781   7.542   2.045   8.651 -0.0142 -0.0451 -0.0799
  174loPI   C2B 2782   7.780   2.072   8.205  0.2893 -0.0375  0.1936
  174loPI   C3B 2783   7.894   2.152   7.838 -0.1585  0.1051 -0.1573
  174loPI   C4B 2784   8.242   2.285   7.684 -0.1461 -0.0260 -0.1978
  175loPI    C1 2785   1.572   7.873   9.713 -0.0255 -0.0936 -0.1565
  175loPI    C2 2786   1.561   7.852  10.113  0.0500  0.0656 -0.1455
  175loPI    C3 2787   1.912   7.893   9.924  0.0140 -0.0049 -0.2280
  175loPI   PO4 2788   1.342   8.041   9.581  0.0709 -0.0543 -0.2079
  175loPI   GL1 2789   1.224   8.263   9.328 -0.2080  0.1562  0.0857
  175loPI   GL2 2790   0.902   8.104   9.251  0.1580  0.0309  0.1671
  175loPI   C1A 2791   1.303   8.179   8.874  0.1792 -0.2909 -0.0329
  175loPI   C2A 2792   1.302   8.125   8.398  0.0786 -0.1282  0.0448
  175loPI   C3A 2793   1.166   8.162   8.034 -0.0613 -0.1814 -0.2560
  175loPI   C4A 2794   1.311   8.151   7.581  0.3659  0.2675  0.0193
  175loPI   C5A 2795   1.302   7.952   7.160  0.1389 -0.2100  0.0904
  175loPI   C6A 2796   1.476   8.133   6.803 -0.1998 -0.1590 -0.1060
  175loPI   C1B 2797   0.872   8.014   8.665 -0.1671 -0.0669 -0.2239
  175loPI   C2B 2798   0.757   8.032   8.277  0.2398 -0.1758  0.1241
  175loPI   C3B 2799   0.838   7.901   7.787  0.0901  0.2562  0.3040
  175loPI   C4B 2800   1.154   7.669   7.655 -0.1237  0.3140 -0.1221
  176loPI    C1 2801  18.496  15.042   9.754 -0.0596  0.1165  0.0620
  176loPI    C2 2802  18.767  15.107  10.040 -0.2338 -0.2853  0.3275
  176loPI    C3 2803  18.377  15.141  10.123 -0.2754  0.2632 -0.0446
  176loPI   PO4 2804  18.514  15.168   9.476  0.0946 -0.1262 -0.1854
  176loPI   GL1 2805  18.289  15.354   9.114 -0.2199  0.2393 -0.1534
  176loPI   GL2 2806  18.233  15.614   9.315  0.4667  0.2236  0.1234
  176loPI   C1A 2807  18.317  15.355   8.663  0.0021  0.1974  0.3244
  176loPI   C2A 2808  18.736  15.294   8.521 -0.0542  0.0298 -0.2003
  176loPI   C3A 2809  18.889  15.283   8.116 -0.1441  0.0886 -0.1655
  176loPI   C4A 2810  18.737  15.081   7.786  0.1142  0.2175  0.1907
  176loPI   C5A 2811  18.753  14.795   7.425  0.3763  0.1311  0.2508
  176loPI   C6A 2812  19.126  14.724   7.178  0.0910 -0.3547  0.2181
  176loPI   C1B 2813  18.256  15.803   8.915  0.0357  0.0137 -0.2390
  176loPI   C2B 2814  18.094  15.806   8.397 -0.0494 -0.1005 -0.1534
  176loPI   C3B 2815  18.107  15.814   8.026  0.4620 -0.0553  0.1218
  176loPI   C4B 2816  18.229  15.588   7.648  0.5072  0.3602 -0.1842
  177loPI    C1 2817   3.138   7.045   9.432 -0.1515 -0.2248 -0.4319
  177loPI    C2 2818   3.168   6.743   9.692  0.0829  0.1096 -0.0594
  177loPI    C3 2819   2.894   7.029   9.748  0.1619  0.2053 -0.1560
  177loPI   PO4 2820   3.354   7.133   9.434 -0.2844  0.1401  0.2995
  177loPI   GL1 2821   3.349   7.407   9.171 -0.2871  0.4001  0.3148
  177loPI   GL2 2822   3.614   7.543   9.088  0.0503 -0.3871  0.1375
  177loPI   C1A 2823   3.416   7.392   8.680  0.3178  0.2285 -0.3587
  177loPI   C2A 2824   3.489   7.493   8.238  0.1567  0.1040 -0.4109
  177loPI   C3A 2825   3.200   7.512   7.807 -0.0038 -0.0684 -0.3746
  177loPI   C4A 2826   3.350   7.623   7.481 -0.5357  0.3018 -0.0018
  177loPI   C5A 2827   3.241   7.728   6.908  0.0189  0.3515 -0.2422
  177loPI   C6A 2828   3.161   7.801   6.470  0.1717  0.2118  0.1213
  177loPI   C1B 2829   3.663   7.859   8.777  0.3182  0.1090 -0.4314
  177loPI   C2B 2830   3.835   7.898   8.342 -0.2244  0.0445  0.0868
  177loPI   C3B 2831   4.017   7.967   7.882  0.0839 -0.0593  0.1299
  177loPI   C4B 2832   4.124   8.244   7.627  0.4256  0.3545  0.2850
  178loPI    C1 2833  18.287   3.806   9.537  0.0546  0.0494 -0.1710
  178loPI    C2 2834  18.648   3.892   9.686  0.0362  0.0828 -0.1455
  178loPI    C3 2835  18.333   3.864   9.930  0.0604 -0.1608 -0.1395
  178loPI   PO4 2836  18.341   3.666   9.277 -0.0236 -0.1015 -0.2445
  178loPI   GL1 2837  18.171   3.554   8.874  0.0383 -0.0194 -0.2311
  178loPI   GL2 2838  17.941   3.599   8.932 -0.0378  0.0014 -0.2172
  178loPI   C1A 2839  18.262   3.164   8.601  0.0468 -0.2508 -0.2397
  178loPI   C2A 2840  18.341   2.777   8.376  0.1482 -0.4064 -0.0071
  178loPI   C3A 2841  18.615   2.712   7.974 -0.3726  0.2073 -0.0861
  178loPI   C4A 2842  18.597   2.901   7.587 -0.0132  0.2649 -0.1867
  178loPI   C5A 2843  18.632   3.204   7.305 -0.1492  0.0396  0.1710
  178loPI   C6A 2844  18.677   3.606   7.118  0.2095  0.0562 -0.0760
  178loPI   C1B 2845  17.864   3.407   8.525  0.0702 -0.1473 -0.2552
  178loPI   C2B 2846  17.792   3.502   8.052  0.0744  0.1907 -0.0019
  178loPI   C3B 2847  17.576   3.564   7.613 -0.0717 -0.0660  0.0789
  178loPI   C4B 2848  17.670   3.672   7.119 -0.1120  0.0907 -0.1821
  179loPI    C1 2849   3.689  10.946   9.685  0.0587  0.1094 -0.1557
  179loPI    C2 2850   3.775  10.692   9.982 -0.0902  0.0627 -0.1517
  179loPI    C3 2851   3.725  11.081  10.060  0.1149  0.0905 -0.1543
  179loPI   PO4 2852   3.512  10.740   9.536  0.0595 -0.0206 -0.3082
  179loPI   GL1 2853   3.370  10.768   9.059 -0.0491 -0.0524  0.1070
  179loPI   GL2 2854   3.346  10.401   9.086  0.0657  0.2211 -0.3710
  179loPI   C1A 2855   3.307  10.768   8.609 -0.1604 -0.0676 -0.1101
  179loPI   C2A 2856   3.237  10.591   8.190 -0.1488 -0.2563  0.0698
  179loPI   C3A 2857   2.984  10.620   7.804 -0.2466  0.2939 -0.2229
  179loPI   C4A 2858   3.156  10.457   7.417 -0.1565  0.1583  0.0494
  179loPI   C5A 2859   3.356  10.199   7.135  0.1487  0.0182  0.1020
  179loPI   C6A 2860   3.560   9.800   7.088 -0.0278 -0.0196 -0.0067
  179loPI   C1B 2861   3.453  10.266   8.671  0.0271 -0.0031  0.3000
  179loPI   C2B 2862   3.534   9.988   8.392  0.0776 -0.1092 -0.1412
  179loPI   C3B 2863   3.541  10.125   7.987  0.1722  0.2192  0.0730
  179loPI   C4B 2864   3.619  10.062   7.584  0.1953 -0.1811  0.2409
  180loPI    C1 2865  11.648   2.691   9.957 -0.1063  0.0971  0.0809
  180loPI    C2 2866  11.920   2.609  10.239 -0.2464 -0.0817  0.1657
  180loPI    C3 2867  11.817   2.988  10.165  0.1752  0.0039 -0.0098
  180loPI   PO4 2868  11.741   2.636   9.787 -0.0631  0.0746  0.5552
  180loPI   GL1 2869  11.749   2.458   9.480 -0.1774  0.3383  0.2719
  180loPI   GL2 2870  11.868   2.632   9.329 -0.0221 -0.1824  0.2607
  180loPI   C1A 2871  11.778   2.056   9.209  0.2915 -0.0881  0.2913
  180loPI   C2A 2872  11.722   2.013   8.774  0.1819  0.3441  0.0427
  180loPI   C3A 2873  11.423   2.136   8.435 -0.0733  0.1089 -0.1272
  180loPI   C4A 2874  11.419   2.245   8.011 -0.0202  0.1068  0.0286
  180loPI   C5A 2875  11.476   1.976   7.690  0.0391 -0.2652 -0.2105
  180loPI   C6A 2876  11.283   1.918   7.305 -0.2882  0.1450 -0.1538
  180loPI   C1B 2877  11.424   2.659   9.094  0.0033  0.0023 -0.3239
  180loPI   C2B 2878  11.300   2.461   8.783 -0.2520  0.0459  0.1254
  180loPI   C3B 2879  11.230   2.581   8.405 -0.1016  0.0689  0.1181
  180loPI   C4B 2880  11.114   2.653   8.049 -0.3863  0.1356  0.1283
  181loPI    C1 2881   4.106   6.852   9.954  0.0514  0.1389  0.1229
  181loPI    C2 2882   3.721   6.900  10.050 -0.0080 -0.0381 -0.0202
  181loPI    C3 2883   3.992   7.169  10.169 -0.1859  0.1258  0.0196
  181loPI   PO4 2884   4.104   6.774   9.725  0.1520 -0.0869 -0.1111
  181loPI   GL1 2885   4.087   6.902   9.344  0.0455 -0.4301 -0.2001
  181loPI   GL2 2886   3.898   7.145   9.108  0.1968 -0.2733 -0.0506
  181loPI   C1A 2887   3.785   6.621   9.124  0.0801 -0.3834  0.1494
  181loPI   C2A 2888   3.607   6.381   8.723  0.0621 -0.5085 -0.2311
  181loPI   C3A 2889   3.314   6.534   8.402 -0.0955 -0.3931  0.1298
  181loPI   C4A 2890   3.303   6.583   7.993  0.2764  0.0955  0.2480
  181loPI   C5A 2891   3.194   6.944   7.655 -0.0515 -0.3422  0.1567
  181loPI   C6A 2892   3.022   7.258   7.376 -0.0478 -0.2433 -0.1857
  181loPI   C1B 2893   3.657   6.974   8.767 -0.4079 -0.1689  0.1945
  181loPI   C2B 2894   3.761   7.035   8.248  0.2095 -0.0738  0.0531
  181loPI   C3B 2895   3.625   7.075   7.887 -0.3878 -0.1064 -0.3879
  181loPI   C4B 2896   3.676   7.033   7.387  0.0487 -0.0832 -0.0590
  182loPI    C1 2897  14.034  12.476   9.771 -0.0315  0.0035  0.0681
  182loPI    C2 2898  13.712  12.641   9.942  0.0439  0.1400  0.0799
  182loPI    C3 2899  14.031  12.548  10.165  0.0513  0.0974  0.0519
  182loPI   PO4 2900  14.060  12.656   9.576 -0.1474  0.3546 -0.1489
  182loPI   GL1 2901  14.311  12.468   9.289  0.1296  0.0317  0.0455
  182loPI   GL2 2902  14.033  12.347   9.171 -0.0318  0.0162  0.4911
  182loPI   C1A 2903  14.426  12.635   8.855 -0.1285  0.1187 -0.0937
  182loPI   C2A 2904  14.664  12.608   8.470  0.1146  0.1736 -0.1388
  182loPI   C3A 2905  14.584  12.208   8.349 -0.1144 -0.1176 -0.2131
  182loPI   C4A 2906  14.582  12.142   7.917  0.2169 -0.1764  0.3055
  182loPI   C5A 2907  14.518  12.251   7.435 -0.1748  0.1437  0.1298
  182loPI   C6A 2908  14.435  12.634   7.264 -0.0179 -0.2312 -0.0302
  182loPI   C1B 2909  14.112  12.276   8.818 -0.2831  0.1541 -0.2104
  182loPI   C2B 2910  14.041  12.173   8.412 -0.1941  0.1157  0.2669
  182loPI   C3B 2911  14.041  12.019   8.017  0.2255  0.2058 -0.0861
  182loPI   C4B 2912  14.330  11.794   7.658  0.3936  0.2108 -0.0635
  183loPI    C1 2913   2.096  19.205   9.100  0.1344 -0.1612  0.0667
  183loPI    C2 2914   2.324  19.467   9.298 -0.1602  0.0831  0.0911
  183loPI    C3 2915   2.132  19.178   9.498 -0.2099  0.1383  0.1233
  183loPI   PO4 2916   2.296  19.102   8.957  0.1547  0.0268  0.0123
  183loPI   GL1 2917   2.280  18.894   8.564 -0.0217 -0.2271  0.0478
  183loPI   GL2 2918   2.026  19.065   8.561 -0.2463 -0.0903 -0.2336
  183loPI   C1A 2919   2.082  18.745   8.202 -0.2431  0.1905  0.1084
  183loPI   C2A 2920   1.890  18.882   7.870 -0.2439  0.2027  0.0270
  183loPI   C3A 2921   1.723  18.835   7.517 -0.2161  0.0513 -0.0750
  183loPI   C4A 2922   1.646  18.676   7.081  0.1414 -0.3426 -0.0337
  183loPI   C5A 2923   1.320  18.871   6.693  0.1057 -0.3791  0.1958
  183loPI   C6A 2924   0.875  18.804   6.529 -0.0382  0.1717 -0.5497
  183loPI   C1B 2925   1.824  19.310   8.164  0.0128  0.0366  0.4663
  183loPI   C2B 2926   1.656  19.464   7.760 -0.0937 -0.3742  0.2197
  183loPI   C3B 2927   1.716  19.630   7.409 -0.2636 -0.0290  0.0897
  183loPI   C4B 2928   2.017  19.963   7.260  0.1815  0.1234 -0.0990
  184loPI    C1 2929  18.371   7.621   9.675  0.1238 -0.0503 -0.1007
  184loPI    C2 2930  18.610   7.613   9.996 -0.1826  0.1760  0.1394
  184loPI    C3 2931  18.431   7.954   9.888 -0.0282  0.1189 -0.3184
  184loPI   PO4 2932  18.358   7.366   9.635  0.1990 -0.1866 -0.1970
  184loPI   GL1 2933  18.527   7.164   9.283 -0.3231 -0.0641 -0.1518
  184loPI   GL2 2934  18.512   7.381   9.129  0.1493  0.0128  0.0592
  184loPI   C1A 2935  18.985   7.307   9.068 -0.0814  0.1842 -0.1035
  184loPI   C2A 2936  19.031   7.427   8.631  0.0731  0.1215 -0.2629
  184loPI   C3A 2937  19.390   7.554   8.404  0.2003  0.0916  0.0809
  184loPI   C4A 2938  19.670   7.493   8.005  0.2375 -0.1874 -0.0050
  184loPI   C5A 2939  19.519   7.191   7.745  0.4046 -0.2363  0.0526
  184loPI   C6A 2940  19.217   6.921   7.901 -0.1170  0.0122  0.1951
  184loPI   C1B 2941  18.568   7.251   8.760  0.0386 -0.0140  0.0525
  184loPI   C2B 2942  18.534   7.467   8.436 -0.2268 -0.0321 -0.0557
  184loPI   C3B 2943  18.794   7.520   8.191  0.1706  0.1314 -0.0687
  184loPI   C4B 2944  19.107   7.400   7.932  0.0873 -0.0953 -0.1960
  185loPI    C1 2945   4.316   5.072  10.264  0.1162 -0.0306  0.0150
  185loPI    C2 2946   4.189   4.970  10.629  0.5004 -0.2666  0.0881
  185loPI    C3 2947   4.436   5.281  10.583 -0.0025  0.1269 -0.0423
  185loPI   PO4 2948   4.150   4.767  10.074  0.0129  0.2233 -0.1950
  185loPI   GL1 2949   4.135   4.856   9.650 -0.1141 -0.0010  0.1418
  185loPI   GL2 2950   3.816   4.996   9.762 -0.2193  0.0874  0.0889
  185loPI   C1A 2951   4.087   4.810   9.193  0.0255  0.1501  0.0787
  185loPI   C2A 2952   4.014   4.855   8.813  0.0442  0.1203  0.1272
  185loPI   C3A 2953   4.197   4.803   8.383  0.0155 -0.3366  0.0354
  185loPI   C4A 2954   4.412   4.986   8.008 -0.2252 -0.2511 -0.0447
  185loPI   C5A 2955   4.574   5.200   7.634 -0.1947 -0.2496 -0.0394
  185loPI   C6A 2956   4.827   5.057   7.213 -0.0190 -0.0830 -0.0847
  185loPI   C1B 2957   3.738   5.279   9.513 -0.1361  0.2806  0.0053
  185loPI   C2B 2958   3.816   5.355   9.117 -0.2117  0.0515  0.3141
  185loPI   C3B 2959   3.801   5.316   8.764  0.1253  0.0022  0.3696
  185loPI   C4B 2960   3.751   5.114   8.347  0.3601  0.0341  0.1787
  186loPI    C1 2961  12.103  18.188   9.549 -0.2345 -0.0282  0.1322
  186loPI    C2 2962  12.268  17.932   9.290 -0.2496  0.1809 -0.0874
  186loPI    C3 2963  12.034  17.795   9.584  0.0437 -0.0887  0.0267
  186loPI   PO4 2964  11.953  18.476   9.321 -0.1254  0.1455  0.3046
  186loPI   GL1 2965  11.961  18.237   9.002 -0.0840  0.3426  0.0010
  186loPI   GL2 2966  12.243  18.373   8.901  0.0276  0.2536 -0.1511
  186loPI   C1A 2967  11.990  18.017   8.529  0.0220 -0.1985  0.0841
  186loPI   C2A 2968  11.998  17.771   8.178 -0.2724 -0.1214  0.2343
  186loPI   C3A 2969  11.750  17.680   7.919 -0.2948  0.0222  0.1408
  186loPI   C4A 2970  11.666  17.398   7.594  0.2390 -0.1339 -0.1041
  186loPI   C5A 2971  11.870  17.198   7.309 -0.0254 -0.1506 -0.1135
  186loPI   C6A 2972  11.837  17.001   7.006 -0.1193  0.0040  0.0128
  186loPI   C1B 2973  12.427  18.284   8.441 -0.0259 -0.0739 -0.3128
  186loPI   C2B 2974  12.269  18.251   8.006 -0.2186 -0.1479  0.0055
  186loPI   C3B 2975  12.312  18.609   7.631  0.2351  0.0729 -0.2338
  186loPI   C4B 2976  12.085  18.902   7.292  0.0561  0.1470 -0.0549
  187loPI    C1 2977   6.539   1.127   9.539 -0.0752 -0.1916 -0.0790
  187loPI    C2 2978   6.593   0.767   9.704 -0.2977 -0.2138 -0.0516
  187loPI    C3 2979   6.341   1.027   9.872  0.1414  0.0988  0.1421
  187loPI   PO4 2980   6.473   1.071   9.292  0.0039 -0.2294 -0.2959
  187loPI   GL1 2981   6.293   1.008   8.877 -0.2456  0.2199  0.0374
  187loPI   GL2 2982   6.063   0.796   8.811  0.0058  0.1232 -0.1088
  187loPI   C1A 2983   6.361   1.207   8.387  0.0802 -0.2444 -0.0404
  187loPI   C2A 2984   6.549   1.393   7.913  0.2851  0.1820  0.0032
  187loPI   C3A 2985   6.561   1.554   7.562 -0.0459  0.2994  0.0148
  187loPI   C4A 2986   6.596   1.458   7.168 -0.3344 -0.0310  0.1546
  187loPI   C5A 2987   6.863   1.177   7.003  0.0723  0.0305  0.2614
  187loPI   C6A 2988   6.694   1.036   6.598  0.1862  0.2755  0.3365
  187loPI   C1B 2989   6.105   0.701   8.318  0.1073 -0.3718 -0.2451
  187loPI   C2B 2990   6.312   0.887   7.973 -0.0307  0.1328 -0.1410
  187loPI   C3B 2991   6.170   1.065   7.712 -0.1079  0.0071  0.4687
  187loPI   C4B 2992   5.840   1.094   7.540  0.2704  0.0913  0.0669
  188loPI    C1 2993   6.299  18.944   9.405 -0.0963  0.0902 -0.0146
  188loPI    C2 2994   6.284  18.676   9.702  0.1048 -0.1239 -0.1937
  188loPI    C3 2995   6.504  19.008   9.742 -0.1314  0.0098  0.0223
  188loPI   PO4 2996   6.192  18.718   9.154 -0.2535 -0.0565  0.3042
  188loPI   GL1 2997   6.300  18.735   8.728 -0.0981 -0.0647 -0.0156
  188loPI   GL2 2998   6.339  19.184   8.618 -0.1978  0.2022  0.1753
  188loPI   C1A 2999   6.350  18.794   8.341 -0.1461  0.1564  0.1909
  188loPI   C2A 3000   6.162  18.904   8.000 -0.2613  0.1199  0.2155
  188loPI   C3A 3001   6.036  19.216   7.718  0.0776 -0.1204  0.2299
  188loPI   C4A 3002   5.921  19.501   7.358 -0.1721  0.1346 -0.1210
  188loPI   C5A 3003   5.713  19.686   7.089 -0.2026 -0.2101 -0.1092
  188loPI   C6A 3004   5.428  20.024   7.081 -0.0542 -0.0187  0.1644
  188loPI   C1B 3005   6.154  19.321   8.206  0.2990 -0.1301 -0.2255
  188loPI   C2B 3006   6.021  19.667   7.926 -0.1166  0.0683  0.0349
  188loPI   C3B 3007   5.985  20.157   7.780  0.1246  0.2797 -0.1013
  188loPI   C4B 3008   5.855  20.213   7.291  0.1171  0.2590 -0.3898
  189loPI    C1 3009   5.730  18.492   8.997  0.0940 -0.2081 -0.0409
  189loPI    C2 3010   5.392  18.387   8.811 -0.0140  0.1082 -0.0286
  189loPI    C3 3011   5.463  18.261   9.184  0.0007 -0.1674 -0.1229
  189loPI   PO4 3012   5.775  18.711   8.779  0.2654  0.2074 -0.3246
  189loPI   GL1 3013   5.417  18.820   8.538  0.4301  0.1782 -0.3101
  189loPI   GL2 3014   5.211  19.081   8.439  0.0108 -0.2838  0.0211
  189loPI   C1A 3015   5.625  18.620   8.116 -0.0452  0.1619  0.0871
  189loPI   C2A 3016   5.640  18.817   7.774 -0.0097 -0.1814  0.2293
  189loPI   C3A 3017   5.676  18.958   7.399  0.0556 -0.0442  0.0738
  189loPI   C4A 3018   5.577  19.137   7.105 -0.0778 -0.4291  0.1719
  189loPI   C5A 3019   5.773  18.785   6.807  0.0503  0.1530  0.0216
  189loPI   C6A 3020   5.998  18.597   6.531 -0.0330 -0.3630 -0.2481
  189loPI   C1B 3021   5.241  19.019   7.993  0.1389  0.1715 -0.0139
  189loPI   C2B 3022   5.230  19.120   7.568 -0.2526  0.5155 -0.0801
  189loPI   C3B 3023   4.980  19.187   7.136 -0.0631  0.0753  0.0572
  189loPI   C4B 3024   4.718  19.451   6.930  0.1050  0.1409 -0.1030
  190loPI    C1 3025  13.331   5.766   9.978  0.1728 -0.2481  0.1612
  190loPI    C2 3026  13.424   5.743   9.590 -0.2354 -0.0839  0.0472
  190loPI    C3 3027  13.679   5.605   9.866  0.2729  0.2286 -0.2496
  190loPI   PO4 3028  13.206   6.036  10.005 -0.1716 -0.0570  0.3363
  190loPI   GL1 3029  13.062   6.108   9.632  0.0164  0.0986 -0.1709
  190loPI   GL2 3030  12.917   5.904   9.543  0.0363  0.2033 -0.0687
  190loPI   C1A 3031  13.329   6.204   9.278 -0.1363  0.0122  0.0028
  190loPI   C2A 3032  13.283   6.541   8.996  0.1829  0.2543  0.0207
  190loPI   C3A 3033  13.287   6.838   8.684 -0.0552 -0.0014  0.2222
  190loPI   C4A 3034  13.365   6.923   8.351 -0.0013 -0.2070  0.2240
  190loPI   C5A 3035  13.555   7.200   8.009 -0.0165  0.0261  0.0679
  190loPI   C6A 3036  13.953   7.356   7.890 -0.1024  0.1080 -0.1239
  190loPI   C1B 3037  13.095   5.684   9.148 -0.1266  0.1316  0.0437
  190loPI   C2B 3038  12.906   5.481   8.783  0.2381 -0.1980 -0.0636
  190loPI   C3B 3039  12.732   5.682   8.408 -0.2605  0.0717 -0.3524
  190loPI   C4B 3040  12.699   5.860   8.223  0.0214  0.0112  0.1194
  191loPI    C1 3041   2.337  14.579   9.279  0.1738  0.1247 -0.2213
  191loPI    C2 3042   2.054  14.748   9.506  0.1097 -0.3504  0.0648
  191loPI    C3 3043   2.441  14.806   9.591  0.0943 -0.1009 -0.0282
  191loPI   PO4 3044   2.338  14.638   9.041 -0.3072 -0.1998  0.1985
  191loPI   GL1 3045   2.197  14.717   8.735  0.1352 -0.0172 -0.0585
  191loPI   GL2 3046   2.143  14.365   8.684  0.1211 -0.2444  0.1301
  191loPI   C1A 3047   2.568  14.738   8.399  0.1380  0.6145 -0.0195
  191loPI   C2A 3048   2.673  14.655   7.979 -0.1786  0.1232 -0.0520
  191loPI   C3A 3049   2.850  14.782   7.602 -0.0302 -0.0507 -0.0919
  191loPI   C4A 3050   2.865  14.686   7.154 -0.1489  0.1568 -0.0536
  191loPI   C5A 3051   3.047  14.952   6.911 -0.0929  0.1528  0.2376
  191loPI   C6A 3052   3.345  15.115   6.649 -0.5732  0.0841  0.0947
  191loPI   C1B 3053   2.045  14.563   8.217  0.1625 -0.0458  0.0976
  191loPI   C2B 3054   2.241  14.621   7.778  0.1269 -0.0506  0.2918
  191loPI   C3B 3055   2.297  14.939   7.479  0.0586  0.7308 -0.0585
  191loPI   C4B 3056   2.700  15.123   7.251  0.0925 -0.0649 -0.1811
  192loPI    C1 3057  10.990   7.040  10.250  0.0198  0.1753  0.1073
  192loPI    C2 3058  11.366   6.937  10.341 -0.0498 -0.1137  0.0772
  192loPI    C3 3059  11.086   6.948  10.627 -0.0709 -0.1355  0.0574
  192loPI   PO4 3060  11.012   7.213  10.019  0.0249 -0.0527 -0.2807
  192loPI   GL1 3061  10.940   7.316   9.580  0.0738  0.0487 -0.2590
  192loPI   GL2 3062  11.157   7.200   9.390  0.0460  0.0971  0.0531
  192loPI   C1A 3063  11.062   7.703   9.278 -0.0235 -0.0319  0.0096
  192loPI   C2A 3064  11.172   7.841   8.857  0.2736  0.0169 -0.1604
  192loPI   C3A 3065  11.398   7.776   8.550  0.1051 -0.1978 -0.0141
  192loPI   C4A 3066  11.417   7.714   8.047  0.0358 -0.1669  0.0292
  192loPI   C5A 3067  11.384   7.769   7.651 -0.0403 -0.0050 -0.2629
  192loPI   C6A 3068  11.273   7.429   7.369 -0.1798 -0.3761  0.0429
  192loPI   C1B 3069  10.920   7.271   9.057 -0.0029 -0.3313  0.1510
  192loPI   C2B 3070  10.933   7.419   8.577 -0.2636  0.0354 -0.0711
  192loPI   C3B 3071  11.002   7.489   8.175  0.1455 -0.0149  0.0229
  192loPI   C4B 3072  10.906   7.536   7.867  0.0150  0.2296  0.2104
  193loPI    C1 3073   3.118  15.743   9.367 -0.0531 -0.0620 -0.0018
  193loPI    C2 3074   3.465  15.806   9.178 -0.0969 -0.0970 -0.0948
  193loPI    C3 3075   3.407  15.954   9.545 -0.0473  0.0555 -0.1478
  193loPI   PO4 3076   2.960  15.744   9.065  0.2534  0.4346 -0.2950
  193loPI   GL1 3077   2.946  15.689   8.608 -0.1432 -0.3495  0.2414
  193loPI   GL2 3078   2.610  15.663   8.376  0.0382  0.3035  0.0426
  193loPI   C1A 3079   3.272  15.462   8.313  0.0174  0.0114 -0.0026
  193loPI   C2A 3080   3.387  15.554   7.838 -0.0765 -0.1671 -0.0975
  193loPI   C3A 3081   3.540  15.493   7.469  0.0628 -0.2829  0.2579
  193loPI   C4A 3082   3.597  15.288   7.069  0.1602  0.1141 -0.0143
  193loPI   C5A 3083   3.691  15.688   6.809  0.3620 -0.3352  0.2941
  193loPI   C6A 3084   3.754  16.092   6.997 -0.0924  0.4713  0.0876
  193loPI   C1B 3085   2.882  15.605   8.080  0.0350  0.2216  0.2270
  193loPI   C2B 3086   2.844  15.734   7.684  0.2070 -0.0686  0.1712
  193loPI   C3B 3087   2.835  15.710   7.199 -0.2435 -0.1442  0.0872
  193loPI   C4B 3088   2.795  15.462   6.901 -0.2705 -0.0563  0.1018
  194loPI    C1 3089   8.456   8.568   9.878  0.1232 -0.1334 -0.0383
  194loPI    C2 3090   8.194   8.803  10.069  0.1059  0.0132 -0.2396
  194loPI    C3 3091   8.531   8.689  10.252 -0.0799 -0.1486  0.0086
  194loPI   PO4 3092   8.432   8.669   9.645 -0.3439 -0.3057 -0.0105
  194loPI   GL1 3093   8.223   8.741   9.257  0.2871 -0.3808 -0.2167
  194loPI   GL2 3094   7.833   8.577   9.302 -0.0851 -0.1918  0.2895
  194loPI   C1A 3095   8.412   8.557   8.868  0.3620 -0.3174 -0.1388
  194loPI   C2A 3096   8.391   8.301   8.651 -0.0589  0.0744  0.4139
  194loPI   C3A 3097   8.443   7.898   8.590  0.1123  0.1194 -0.1686
  194loPI   C4A 3098   8.550   7.758   8.096  0.1377 -0.0278 -0.0224
  194loPI   C5A 3099   8.499   7.641   7.624 -0.0282 -0.3455 -0.1936
  194loPI   C6A 3100   8.390   7.235   7.493 -0.0896  0.1580 -0.2734
  194loPI   C1B 3101   7.865   8.744   8.821  0.1262 -0.1835 -0.3572
  194loPI   C2B 3102   7.825   9.038   8.484  0.0580 -0.1936  0.2505
  194loPI   C3B 3103   7.910   9.129   8.085  0.1759 -0.1700  0.0820
  194loPI   C4B 3104   7.785   9.130   7.721  0.3518 -0.0204  0.1587
  195loPI    C1 3105   7.726   0.403   9.235 -0.1302 -0.1437 -0.0609
  195loPI    C2 3106   7.717   0.757   9.423  0.0985 -0.1355 -0.0623
  195loPI    C3 3107   7.543   0.438   9.589 -0.0238 -0.0447 -0.0146
  195loPI   PO4 3108   7.708   0.495   8.970  0.1358 -0.0077 -0.1586
  195loPI   GL1 3109   7.613   0.797   8.724  0.2295 -0.2058  0.1849
  195loPI   GL2 3110   7.385   0.702   8.409  0.1029  0.1016  0.1760
  195loPI   C1A 3111   7.849   0.734   8.218 -0.0748 -0.1289 -0.2874
  195loPI   C2A 3112   7.852   0.709   7.733  0.0814 -0.1505  0.1371
  195loPI   C3A 3113   7.607   0.558   7.311  0.1383 -0.3440  0.0690
  195loPI   C4A 3114   7.450   0.462   6.950  0.4129  0.1899 -0.0188
  195loPI   C5A 3115   7.390   0.507   6.480  0.3280  0.0894  0.0392
  195loPI   C6A 3116   7.129   0.440   6.061 -0.2515  0.2249 -0.2699
  195loPI   C1B 3117   7.395   0.537   7.985  0.0771  0.0994 -0.0233
  195loPI   C2B 3118   7.148   0.715   7.592 -0.4632  0.3068 -0.1421
  195loPI   C3B 3119   6.961   0.628   7.308 -0.0362 -0.2495 -0.0156
  195loPI   C4B 3120   6.985   0.713   6.916 -0.0046  0.1818  0.0941
  196loPI    C1 3121   7.796  18.184   9.534 -0.0988 -0.1039 -0.0496
  196loPI    C2 3122   7.613  18.489   9.717 -0.2621 -0.3031  0.1237
  196loPI    C3 3123   7.431  18.133   9.690 -0.0578 -0.3967 -0.0430
  196loPI   PO4 3124   7.900  18.229   9.283 -0.0567  0.1358  0.0731
  196loPI   GL1 3125   7.678  18.370   8.883 -0.0330  0.1561  0.1765
  196loPI   GL2 3126   7.375  18.411   8.753  0.3180  0.2534 -0.2606
  196loPI   C1A 3127   7.791  18.170   8.523  0.2557  0.3005  0.3471
  196loPI   C2A 3128   7.796  18.202   8.142 -0.0414  0.2245  0.0869
  196loPI   C3A 3129   7.828  18.456   7.995 -0.2968  0.4334  0.1783
  196loPI   C4A 3130   7.771  18.391   7.603  0.3124 -0.0144  0.0659
  196loPI   C5A 3131   7.702  18.345   7.184  0.0156 -0.0178 -0.2544
  196loPI   C6A 3132   7.867  18.611   6.980 -0.0943 -0.0627  0.2897
  196loPI   C1B 3133   7.396  18.399   8.405 -0.2010 -0.2559  0.2881
  196loPI   C2B 3134   7.256  18.505   7.939 -0.2189 -0.0273  0.0581
  196loPI   C3B 3135   7.127  18.600   7.598 -0.2323 -0.0648 -0.3631
  196loPI   C4B 3136   6.748  18.657   7.307 -0.0133 -0.1501  0.1331
  197loPI    C1 3137  15.754  10.127   9.744  0.1144 -0.2052 -0.0026
  197loPI    C2 3138  15.571  10.162  10.098  0.0439 -0.0422 -0.0539
  197loPI    C3 3139  15.727   9.810   9.986 -0.0055 -0.1149  0.1031
  197loPI   PO4 3140  15.668  10.485   9.677  0.1517 -0.0486 -0.4831
  197loPI   GL1 3141  15.340  10.860   9.633 -0.0769 -0.0506 -0.1925
  197loPI   GL2 3142  15.030  10.977   9.788  0.3762  0.2027 -0.2295
  197loPI   C1A 3143  15.358  10.882   9.215 -0.1360  0.2450 -0.3644
  197loPI   C2A 3144  15.651  11.069   8.921  0.0926 -0.1392 -0.2130
  197loPI   C3A 3145  15.778  11.107   8.465  0.1105  0.1726  0.0204
  197loPI   C4A 3146  15.669  11.087   8.071 -0.0507 -0.2176 -0.2688
  197loPI   C5A 3147  15.761  11.194   7.667  0.1252  0.0720 -0.0332
  197loPI   C6A 3148  15.812  11.096   7.305  0.0643  0.2177 -0.1355
  197loPI   C1B 3149  14.752  11.047   9.476 -0.3737 -0.0614 -0.0125
  197loPI   C2B 3150  14.877  10.930   9.119 -0.2442  0.1657 -0.2953
  197loPI   C3B 3151  14.847  10.727   8.714  0.2454  0.0137 -0.0370
  197loPI   C4B 3152  14.834  10.632   8.360 -0.0664  0.0914  0.2699
  198loPI    C1 3153  17.003   4.437  10.200 -0.0269 -0.3219 -0.0356
  198loPI    C2 3154  16.758   4.413  10.515  0.0527  0.2474  0.0821
  198loPI    C3 3155  17.153   4.375  10.566  0.0423 -0.0046 -0.0073
  198loPI   PO4 3156  16.863   4.296  10.037  0.1674 -0.1138  0.3938
  198loPI   GL1 3157  16.578   4.208   9.691  0.0941 -0.0443  0.2565
  198loPI   GL2 3158  16.704   4.511   9.600  0.2041  0.0091  0.1651
  198loPI   C1A 3159  16.447   4.215   9.263  0.0516 -0.1213 -0.0553
  198loPI   C2A 3160  16.408   4.141   8.801 -0.3163 -0.0619 -0.0018
  198loPI   C3A 3161  16.436   3.685   8.542  0.0713 -0.0342 -0.1275
  198loPI   C4A 3162  16.829   3.532   8.268  0.0433  0.1947  0.1067
  198loPI   C5A 3163  16.926   3.234   7.954 -0.1273 -0.1108  0.0747
  198loPI   C6A 3164  17.020   3.268   7.572 -0.1964 -0.1866  0.4907
  198loPI   C1B 3165  16.855   4.538   9.113 -0.2257  0.1043  0.0130
  198loPI   C2B 3166  16.836   4.354   8.719 -0.4847 -0.3164  0.0261
  198loPI   C3B 3167  16.558   4.246   8.346  0.0595 -0.0422 -0.0806
  198loPI   C4B 3168  16.194   4.380   8.025  0.1390  0.3137 -0.1627
  199loPI    C1 3169   5.614  15.327   9.374  0.0979  0.0908 -0.0734
  199loPI    C2 3170   5.399  15.470   9.680  0.0901  0.0275 -0.0493
  199loPI    C3 3171   5.480  15.079   9.658  0.1467  0.0415 -0.0932
  199loPI   PO4 3172   5.516  15.471   9.202  0.1664 -0.1777 -0.0679
  199loPI   GL1 3173   5.141  15.721   9.210 -0.1382 -0.4650 -0.1794
  199loPI   GL2 3174   5.323  16.005   9.219  0.2564  0.2193  0.3039
  199loPI   C1A 3175   5.028  15.619   8.852 -0.2661 -0.3798  0.0849
  199loPI   C2A 3176   5.320  15.646   8.477 -0.2304 -0.0218  0.0233
  199loPI   C3A 3177   5.493  15.570   8.121 -0.0991 -0.4391 -0.3962
  199loPI   C4A 3178   5.435  15.544   7.783  0.2726  0.0050  0.2372
  199loPI   C5A 3179   5.426  15.684   7.428 -0.1616  0.1403  0.0411
  199loPI   C6A 3180   5.493  15.903   7.061 -0.0492  0.0904 -0.0593
  199loPI   C1B 3181   5.423  16.034   8.752  0.1154  0.0671  0.0244
  199loPI   C2B 3182   5.466  16.295   8.347  0.1238 -0.0149 -0.0039
  199loPI   C3B 3183   5.336  16.370   7.934 -0.2270  0.0105  0.0354
  199loPI   C4B 3184   4.955  16.536   7.814  0.2880 -0.1255  0.0795
  200loPI    C1 3185   2.282   9.640   9.594  0.0974  0.0852 -0.1578
  200loPI    C2 3186   1.964   9.506   9.797  0.0837 -0.0695 -0.2789
  200loPI    C3 3187   2.324   9.515   9.972  0.0462 -0.0671 -0.2014
  200loPI   PO4 3188   2.252   9.532   9.416 -0.2861 -0.3853  0.3876
  200loPI   GL1 3189   1.914   9.421   9.145 -0.1802  0.0229 -0.1057
  200loPI   GL2 3190   2.182   9.543   8.942  0.2422  0.2095 -0.1123
  200loPI   C1A 3191   1.778   9.418   8.664 -0.2569 -0.1692 -0.1231
  200loPI   C2A 3192   1.806   9.340   8.241 -0.2871  0.0159 -0.0937
  200loPI   C3A 3193   1.727   9.233   7.856  0.2224 -0.1607 -0.0099
  200loPI   C4A 3194   1.419   9.174   7.553  0.1133  0.0500 -0.0923
  200loPI   C5A 3195   1.252   9.482   7.176 -0.2031  0.0157  0.0211
  200loPI   C6A 3196   1.213   9.842   6.985 -0.2798 -0.1351 -0.1370
  200loPI   C1B 3197   2.329   9.600   8.613 -0.0425 -0.1111  0.0632
  200loPI   C2B 3198   2.243   9.584   8.136 -0.0917  0.0451  0.0422
  200loPI   C3B 3199   2.088   9.460   7.673 -0.0586 -0.4006 -0.0537
  200loPI   C4B 3200   1.809   9.446   7.274  0.0394  0.0268  0.0830
  201loPI    C1 3201  19.378   0.434   9.468  0.1004  0.0232 -0.0615
  201loPI    C2 3202  19.367   0.402   9.867 -0.2295 -0.0186 -0.0708
  201loPI    C3 3203  19.542   0.117   9.648  0.1555  0.1163  0.0538
  201loPI   PO4 3204  19.387   0.696   9.332 -0.2378  0.1094 -0.2941
  201loPI   GL1 3205  19.574   0.690   8.918  0.0484 -0.2466 -0.2246
  201loPI   GL2 3206  19.436   0.406   8.907  0.0519 -0.0990  0.0687
  201loPI   C1A 3207  19.678   0.825   8.495  0.0400 -0.1561 -0.0438
  201loPI   C2A 3208  19.718   0.817   8.024 -0.0652  0.0941  0.0934
  201loPI   C3A 3209  19.728   0.727   7.531 -0.2092  0.0820  0.0649
  201loPI   C4A 3210  19.867   1.056   7.258  0.1064 -0.1440  0.2694
  201loPI   C5A 3211  19.952   1.163   6.897  0.0133 -0.0599  0.0335
  201loPI   C6A 3212  20.432   1.061   6.764  0.2082  0.0749 -0.1525
  201loPI   C1B 3213  19.538   0.330   8.487  0.1120  0.2352  0.0903
  201loPI   C2B 3214  19.261   0.434   8.140  0.1163  0.1486  0.0032
  201loPI   C3B 3215  19.254   0.778   7.834  0.2036  0.1780  0.1792
  201loPI   C4B 3216  19.273   0.849   7.338  0.2435 -0.0140  0.0715
  202loPI    C1 3217  15.850  13.756  10.136  0.0437  0.1357  0.1188
  202loPI    C2 3218  15.524  13.661  10.346 -0.0090  0.1691  0.0526
  202loPI    C3 3219  15.850  13.430  10.367 -0.0386  0.1328  0.1148
  202loPI   PO4 3220  15.831  13.699   9.848  0.0733  0.1467 -0.1275
  202loPI   GL1 3221  15.955  13.691   9.438 -0.1394  0.2207 -0.3375
  202loPI   GL2 3222  15.547  13.666   9.391 -0.2326  0.0653  0.2655
  202loPI   C1A 3223  15.847  13.379   9.068  0.1208  0.1420  0.1858
  202loPI   C2A 3224  15.721  13.440   8.708  0.0553  0.0620  0.0599
  202loPI   C3A 3225  15.718  13.558   8.272 -0.2350 -0.3792 -0.1576
  202loPI   C4A 3226  15.598  13.702   7.844 -0.1742  0.3467  0.1367
  202loPI   C5A 3227  15.445  13.752   7.470  0.0597  0.2675 -0.1780
  202loPI   C6A 3228  15.062  13.883   7.266 -0.1801  0.1121  0.4033
  202loPI   C1B 3229  15.445  13.763   9.039  0.2608  0.1131 -0.0493
  202loPI   C2B 3230  15.347  13.836   8.630 -0.0127 -0.2142  0.0553
  202loPI   C3B 3231  15.124  13.613   8.378  0.0530 -0.0982 -0.2165
  202loPI   C4B 3232  15.122  13.376   7.991 -0.2488  0.4103 -0.2208
  203loPI    C1 3233  12.560  11.388  10.157 -0.0682 -0.1343  0.0669
  203loPI    C2 3234  12.626  10.995  10.198  0.1729 -0.0980  0.0425
  203loPI    C3 3235  12.656  11.238  10.515  0.4114 -0.0461 -0.0178
  203loPI   PO4 3236  12.789  11.482   9.917  0.1965  0.1306  0.1189
  203loPI   GL1 3237  12.853  11.486   9.511 -0.2372  0.0554 -0.1520
  203loPI   GL2 3238  13.142  11.760   9.395 -0.2875 -0.0293 -0.1182
  203loPI   C1A 3239  12.734  11.782   9.147 -0.0950 -0.0206 -0.2339
  203loPI   C2A 3240  12.435  11.980   8.885 -0.1222 -0.0897 -0.1829
  203loPI   C3A 3241  12.254  12.179   8.564 -0.2531  0.0758 -0.0097
  203loPI   C4A 3242  11.892  12.289   8.280  0.0614  0.2050 -0.3356
  203loPI   C5A 3243  11.393  12.278   8.132 -0.2379  0.0069 -0.0828
  203loPI   C6A 3244  11.185  12.563   8.005  0.3345  0.0374  0.1426
  203loPI   C1B 3245  13.170  11.751   8.998  0.2490  0.2838  0.2239
  203loPI   C2B 3246  13.235  11.618   8.539  0.0733 -0.2561  0.0137
  203loPI   C3B 3247  12.944  11.706   8.158  0.0592  0.2856 -0.0531
  203loPI   C4B 3248  12.897  11.455   7.756  0.1744 -0.2087  0.2129
  204loPI    C1 3249  18.297   2.505   9.862 -0.4086 -0.1827 -0.1598
  204loPI    C2 3250  18.465   2.156   9.762  0.4466  0.0902  0.2250
  204loPI    C3 3251  18.328   2.213  10.133 -0.1710  0.0063  0.0216
  204loPI   PO4 3252  18.585   2.713   9.684 -0.1956 -0.1760 -0.0842
  204loPI   GL1 3253  18.621   2.867   9.261 -0.2280 -0.2298  0.3016
  204loPI   GL2 3254  18.904   3.120   9.112  0.0587 -0.3830 -0.0371
  204loPI   C1A 3255  18.597   2.890   8.833  0.1395 -0.0072  0.1328
  204loPI   C2A 3256  18.810   2.973   8.426  0.1653 -0.3534  0.1040
  204loPI   C3A 3257  19.142   2.887   8.027 -0.3718 -0.1759  0.1061
  204loPI   C4A 3258  19.049   2.723   7.706  0.0104 -0.1228  0.1407
  204loPI   C5A 3259  19.025   2.889   7.252  0.0879  0.0532  0.1395
  204loPI   C6A 3260  18.965   3.152   6.952 -0.0307 -0.2229  0.0475
  204loPI   C1B 3261  18.662   3.383   8.814 -0.3275 -0.3624 -0.0093
  204loPI   C2B 3262  18.766   3.853   8.586  0.2570  0.2260 -0.1073
  204loPI   C3B 3263  18.539   3.978   8.237 -0.0702 -0.0350 -0.2682
  204loPI   C4B 3264  18.406   4.296   7.985  0.3008 -0.2167 -0.0032
  205loPI    C1 3265   5.090   5.684   9.813  0.3590 -0.0161 -0.2454
  205loPI    C2 3266   4.964   6.031   9.657 -0.1449 -0.0880 -0.0204
  205loPI    C3 3267   5.242   6.030   9.945  0.0797  0.1041 -0.2313
  205loPI   PO4 3268   5.145   5.592   9.679  0.0169 -0.3199  0.2607
  205loPI   GL1 3269   5.112   5.661   9.278  0.0935  0.0950  0.0007
  205loPI   GL2 3270   5.177   5.981   9.175  0.0826 -0.0855 -0.1780
  205loPI   C1A 3271   4.872   5.534   8.861 -0.0910  0.0015 -0.1219
  205loPI   C2A 3272   4.864   5.463   8.479  0.0363  0.0300 -0.0166
  205loPI   C3A 3273   4.757   5.502   8.074 -0.2767  0.0388 -0.0358
  205loPI   C4A 3274   4.400   5.632   7.795 -0.1694 -0.1656 -0.1569
  205loPI   C5A 3275   4.325   5.564   7.339 -0.0454 -0.1103 -0.4887
  205loPI   C6A 3276   4.301   5.861   7.015 -0.0502  0.1122 -0.0858
  205loPI   C1B 3277   5.231   5.845   8.746 -0.1999  0.3084 -0.2412
  205loPI   C2B 3278   5.110   5.872   8.281  0.1756 -0.2103  0.1172
  205loPI   C3B 3279   4.705   6.087   7.934  0.4168  0.2742 -0.0805
  205loPI   C4B 3280   4.681   6.040   7.565  0.0925  0.1688  0.3295
  206loPI    C1 3281   7.024  18.791   9.156 -0.0157  0.0047  0.1735
  206loPI    C2 3282   6.919  19.096   9.393 -0.0460  0.1485 -0.0228
  206loPI    C3 3283   6.734  18.743   9.427  0.0024  0.1449  0.2184
  206loPI   PO4 3284   7.134  18.882   8.892 -0.0791  0.0915  0.2085
  206loPI   GL1 3285   7.025  18.677   8.564 -0.1958 -0.4249  0.0988
  206loPI   GL2 3286   6.808  18.958   8.510  0.4983 -0.3232  0.0044
  206loPI   C1A 3287   6.820  18.670   8.141  0.1605 -0.0249  0.2610
  206loPI   C2A 3288   6.601  18.503   7.793 -0.0368 -0.2165 -0.0398
  206loPI   C3A 3289   6.267  18.647   7.553 -0.2901  0.0835 -0.1486
  206loPI   C4A 3290   5.996  18.611   7.258 -0.1476  0.1580 -0.1262
  206loPI   C5A 3291   5.877  18.259   6.941  0.1235 -0.2829 -0.2407
  206loPI   C6A 3292   5.776  17.797   6.947  0.2471  0.0687  0.2047
  206loPI   C1B 3293   6.574  19.096   8.080 -0.2124 -0.2237 -0.1595
  206loPI   C2B 3294   6.518  19.096   7.596  0.2034  0.1473 -0.0305
  206loPI   C3B 3295   6.223  19.070   7.282 -0.2966  0.3133 -0.3447
  206loPI   C4B 3296   6.204  18.933   6.889 -0.1232 -0.0451  0.1956
  207loPI    C1 3297  16.425   7.459  10.153 -0.2887 -0.1341  0.2241
  207loPI    C2 3298  16.469   7.834  10.283 -0.4331 -0.0515  0.0399
  207loPI    C3 3299  16.519   7.528  10.536 -0.2607  0.0883  0.1783
  207loPI   PO4 3300  16.575   7.501   9.902  0.1257  0.1862  0.1204
  207loPI   GL1 3301  16.593   7.555   9.524 -0.0590  0.2491 -0.1907
  207loPI   GL2 3302  16.725   7.362   9.378  0.1680  0.0851 -0.1853
  207loPI   C1A 3303  16.662   7.658   9.000 -0.0104  0.2359 -0.2747
  207loPI   C2A 3304  16.639   7.786   8.585  0.1388  0.1719  0.0991
  207loPI   C3A 3305  16.741   7.864   8.252  0.1616  0.1677  0.0225
  207loPI   C4A 3306  16.825   8.173   7.970  0.0111 -0.0048 -0.0235
  207loPI   C5A 3307  16.621   8.126   7.511 -0.0987  0.0740  0.1596
  207loPI   C6A 3308  16.780   8.141   7.060  0.0282  0.0796  0.3571
  207loPI   C1B 3309  16.924   7.216   9.035 -0.2475  0.0969 -0.1501
  207loPI   C2B 3310  16.871   7.315   8.561 -0.1339 -0.1170 -0.2652
  207loPI   C3B 3311  16.873   7.396   8.092  0.1028  0.2055 -0.1265
  207loPI   C4B 3312  16.607   7.655   7.793 -0.0677 -0.0163  0.0601
  208loPI    C1 3313   6.828  13.430   9.311  0.4409  0.0745 -0.2176
  208loPI    C2 3314   6.613  13.724   9.145  0.1217  0.0632  0.1606
  208loPI    C3 3315   6.927  13.812   9.378  0.1261  0.0994  0.1412
  208loPI   PO4 3316   6.842  13.240   9.078  0.2237 -0.1661  0.1184
  208loPI   GL1 3317   7.019  13.482   8.791 -0.0526  0.0222 -0.1616
  208loPI   GL2 3318   7.206  13.178   8.749 -0.0777  0.2151  0.1342
  208loPI   C1A 3319   7.056  13.822   8.437  0.2929 -0.0302  0.0682
  208loPI   C2A 3320   7.166  13.832   7.963 -0.1390 -0.4574  0.0112
  208loPI   C3A 3321   7.103  13.851   7.447 -0.1655  0.2747 -0.1259
  208loPI   C4A 3322   6.744  13.961   7.129 -0.0795 -0.0331 -0.3084
  208loPI   C5A 3323   6.714  13.737   6.789  0.2269  0.3977  0.0695
  208loPI   C6A 3324   6.763  13.674   6.399  0.0539  0.1625  0.0251
  208loPI   C1B 3325   7.140  13.090   8.243  0.3444 -0.3137  0.0946
  208loPI   C2B 3326   7.161  13.284   7.936  0.0423  0.0939 -0.0563
  208loPI   C3B 3327   7.309  13.288   7.503  0.0237  0.3419 -0.1932
  208loPI   C4B 3328   7.554  13.368   7.188  0.0354  0.2120 -0.0532
  209loPI    C1 3329  18.536   2.333   9.299 -0.0765  0.0721  0.1172
  209loPI    C2 3330  18.888   2.474   9.173 -0.0784  0.0982  0.1407
  209loPI    C3 3331  18.875   2.211   9.474 -0.0789  0.0934  0.1366
  209loPI   PO4 3332  18.439   2.291   9.060  0.0730 -0.1548  0.1610
  209loPI   GL1 3333  18.428   2.397   8.698  0.2505  0.0685  0.2708
  209loPI   GL2 3334  18.609   2.038   8.607 -0.3590  0.0878 -0.1427
  209loPI   C1A 3335  18.459   2.276   8.214 -0.1637  0.0665 -0.0652
  209loPI   C2A 3336  18.660   2.050   7.968 -0.2878  0.0794  0.3305
  209loPI   C3A 3337  18.897   2.223   7.613 -0.4411 -0.1580  0.2498
  209loPI   C4A 3338  18.777   2.464   7.261 -0.4759  0.0036 -0.1155
  209loPI   C5A 3339  18.840   2.658   6.895 -0.1788  0.0530  0.2232
  209loPI   C6A 3340  18.793   2.851   6.505 -0.1786  0.0593  0.0241
  209loPI   C1B 3341  18.990   1.869   8.322 -0.0496 -0.2583 -0.0841
  209loPI   C2B 3342  19.083   1.759   7.884  0.2024  0.1903  0.2054
  209loPI   C3B 3343  19.473   1.613   7.811 -0.0655 -0.0183  0.0637
  209loPI   C4B 3344  19.635   1.182   7.696 -0.0617  0.1255 -0.0225
  210loPI    C1 3345  12.935   0.154   9.618 -0.0143  0.0654 -0.0408
  210loPI    C2 3346  12.581   0.080   9.446  0.0174  0.1215 -0.1311
  210loPI    C3 3347  12.601   0.165   9.837 -0.0359 -0.1929 -0.0570
  210loPI   PO4 3348  13.024   0.286   9.360  0.1791 -0.0412  0.0985
  210loPI   GL1 3349  13.099   0.371   8.930  0.0645 -0.0900  0.0234
  210loPI   GL2 3350  13.468   0.261   8.769 -0.0817  0.1545  0.1489
  210loPI   C1A 3351  12.976   0.350   8.495 -0.1808  0.0403  0.2750
  210loPI   C2A 3352  12.997   0.015   8.124  0.1498 -0.2243 -0.1301
  210loPI   C3A 3353  12.740  -0.069   7.737 -0.4185  0.1015  0.0972
  210loPI   C4A 3354  12.984  -0.096   7.327 -0.0841 -0.1958  0.0822
  210loPI   C5A 3355  12.818  -0.188   7.011 -0.0966  0.0522  0.2324
  210loPI   C6A 3356  12.432  -0.389   6.930  0.0110  0.1260  0.0154
  210loPI   C1B 3357  13.506   0.310   8.335  0.3706 -0.0555 -0.4181
  210loPI   C2B 3358  13.709   0.078   7.986  0.0847 -0.2602  0.1336
  210loPI   C3B 3359  14.019  -0.049   7.648 -0.1150 -0.2472  0.0366
  210loPI   C4B 3360  14.359  -0.115   7.289  0.3504 -0.1309 -0.0313
  211loPI    C1 3361   3.939  17.688   9.010  0.1110  0.0874  0.1398
  211loPI    C2 3362   3.810  17.538   9.357  0.1530  0.0038  0.1194
  211loPI    C3 3363   4.042  17.317   9.118 -0.0200 -0.0040 -0.0436
  211loPI   PO4 3364   3.716  17.764   8.948 -0.0092 -0.0045 -0.0776
  211loPI   GL1 3365   3.630  17.773   8.469  0.0317  0.3126  0.0304
  211loPI   GL2 3366   3.647  17.428   8.437  0.0337 -0.2335  0.0015
  211loPI   C1A 3367   3.808  17.937   8.216 -0.0308 -0.1318 -0.1616
  211loPI   C2A 3368   3.853  17.892   7.794  0.2227 -0.2005  0.1359
  211loPI   C3A 3369   4.276  17.805   7.647  0.2808  0.1154 -0.1077
  211loPI   C4A 3370   4.357  17.886   7.186 -0.3773  0.0616  0.1429
  211loPI   C5A 3371   4.139  17.971   6.814 -0.0352 -0.1499 -0.1943
  211loPI   C6A 3372   4.117  17.988   6.372  0.1804 -0.2569 -0.3173
  211loPI   C1B 3373   3.424  17.543   8.130 -0.1812  0.0607  0.1753
  211loPI   C2B 3374   3.377  17.466   7.623 -0.0849 -0.2758  0.0730
  211loPI   C3B 3375   3.271  17.177   7.282 -0.1309  0.0348 -0.0924
  211loPI   C4B 3376   3.436  16.984   6.969 -0.0096 -0.4362  0.3651
  212loPI    C1 3377   6.763  16.440   9.369  0.0355 -0.3045  0.1181
  212loPI    C2 3378   6.926  16.336   9.719  0.0017 -0.2359  0.1543
  212loPI    C3 3379   6.530  16.313   9.668 -0.0305  0.0830  0.2368
  212loPI   PO4 3380   6.934  16.403   9.108  0.1378  0.1944  0.2365
  212loPI   GL1 3381   7.102  16.119   8.791  0.1679 -0.0367 -0.1781
  212loPI   GL2 3382   7.449  16.211   8.786  0.1682 -0.3571 -0.0283
  212loPI   C1A 3383   7.243  16.520   8.454  0.2510 -0.0297  0.2411
  212loPI   C2A 3384   7.310  16.887   8.134 -0.0903 -0.1398 -0.2462
  212loPI   C3A 3385   7.388  17.171   7.863  0.0802  0.1131 -0.1154
  212loPI   C4A 3386   7.525  17.198   7.420 -0.2706  0.2763 -0.0705
  212loPI   C5A 3387   7.914  17.096   7.109  0.2780  0.1035 -0.0547
  212loPI   C6A 3388   8.065  16.989   6.804  0.0607 -0.1842  0.0138
  212loPI   C1B 3389   7.794  15.956   8.682  0.1624  0.5195  0.1860
  212loPI   C2B 3390   7.893  15.868   8.267  0.2315 -0.1855  0.1325
  212loPI   C3B 3391   7.640  15.888   7.856  0.0825 -0.1095 -0.1595
  212loPI   C4B 3392   7.765  16.075   7.429  0.3836  0.2209 -0.2337
  213loPI    C1 3393  13.559   3.804   9.817 -0.0927 -0.0782  0.0191
  213loPI    C2 3394  13.957   3.840   9.834 -0.0960  0.0145 -0.0862
  213loPI    C3 3395  13.723   4.105  10.023 -0.1063 -0.1661  0.1594
  213loPI   PO4 3396  13.519   3.791   9.566  0.1122 -0.2046 -0.1533
  213loPI   GL1 3397  13.667   3.762   9.122  0.0548 -0.0374  0.1638
  213loPI   GL2 3398  13.409   4.045   8.998  0.0237  0.1065 -0.2611
  213loPI   C1A 3399  13.767   3.880   8.709  0.0977  0.0022  0.0108
  213loPI   C2A 3400  13.907   3.984   8.213  0.0130  0.0935 -0.1424
  213loPI   C3A 3401  14.061   4.075   7.827 -0.2387  0.0778  0.0699
  213loPI   C4A 3402  14.290   4.144   7.512  0.2346  0.1126 -0.1660
  213loPI   C5A 3403  14.435   3.940   7.121 -0.2466 -0.4091 -0.1082
  213loPI   C6A 3404  14.730   3.526   7.051  0.1657  0.1900 -0.1661
  213loPI   C1B 3405  13.325   4.094   8.627 -0.0304 -0.3344  0.0935
  213loPI   C2B 3406  13.366   4.096   8.271 -0.1339 -0.0793 -0.0558
  213loPI   C3B 3407  13.098   4.304   8.059  0.0595 -0.1093 -0.0641
  213loPI   C4B 3408  12.775   4.413   7.827  0.2968  0.0389 -0.2015
  214loPI    C1 3409   4.262  11.216  10.039  0.2860  0.1765  0.3473
  214loPI    C2 3410   3.974  11.493  10.061 -0.0485 -0.1073 -0.2195
  214loPI    C3 3411   4.091  11.300  10.391 -0.2682  0.2459  0.0725
  214loPI   PO4 3412   4.193  11.081   9.860 -0.0922  0.2254 -0.0265
  214loPI   GL1 3413   4.057  10.968   9.373 -0.0929  0.1037 -0.1037
  214loPI   GL2 3414   3.794  11.079   9.187 -0.0112  0.0127 -0.0190
  214loPI   C1A 3415   4.225  10.873   8.970 -0.2699  0.1036  0.1409
  214loPI   C2A 3416   4.196  10.820   8.528 -0.0292  0.0325 -0.0562
  214loPI   C3A 3417   4.130  10.924   8.055 -0.1554 -0.0167 -0.0871
  214loPI   C4A 3418   4.079  10.751   7.640 -0.1405  0.2695  0.3897
  214loPI   C5A 3419   3.749  10.544   7.399  0.0031  0.1944 -0.0154
  214loPI   C6A 3420   3.893  10.150   7.190 -0.2010  0.0103 -0.0477
  214loPI   C1B 3421   3.769  11.084   8.747  0.0022  0.0978 -0.0695
  214loPI   C2B 3422   3.646  11.104   8.302 -0.0207  0.0059 -0.0651
  214loPI   C3B 3423   3.727  11.215   7.864 -0.0731 -0.0941  0.0889
  214loPI   C4B 3424   3.806  11.178   7.489  0.2039 -0.1403  0.0903
  215loPI    C1 3425   1.245   0.790   9.437 -0.1675 -0.0018  0.1518
  215loPI    C2 3426   1.053   0.493   9.624 -0.0124 -0.0735  0.1991
  215loPI    C3 3427   1.413   0.609   9.752  0.0521 -0.0566  0.0052
  215loPI   PO4 3428   1.201   0.754   9.222 -0.0991 -0.0748 -0.0668
  215loPI   GL1 3429   1.167   0.460   8.827 -0.0120  0.0725 -0.1763
  215loPI   GL2 3430   0.975   0.275   8.702  0.3759 -0.0083 -0.1761
  215loPI   C1A 3431   1.181   0.729   8.503 -0.0303  0.1013  0.2228
  215loPI   C2A 3432   1.229   1.009   8.170 -0.2092  0.2347  0.0111
  215loPI   C3A 3433   1.180   1.137   7.752 -0.1615  0.2022 -0.1377
  215loPI   C4A 3434   1.444   1.173   7.471  0.3548  0.3733 -0.0823
  215loPI   C5A 3435   1.859   1.124   7.220  0.3917  0.0132  0.1361
  215loPI   C6A 3436   2.257   1.029   6.888  0.0887 -0.1307 -0.3269
  215loPI   C1B 3437   0.824   0.321   8.323 -0.0195 -0.1077  0.3484
  215loPI   C2B 3438   0.865   0.429   7.806  0.1282  0.0353  0.0054
  215loPI   C3B 3439   0.606   0.362   7.491  0.4193 -0.2171  0.0860
  215loPI   C4B 3440   0.711   0.245   7.058  0.1115 -0.3198 -0.1836
  216loPI    C1 3441   9.572   8.087   9.972  0.2414 -0.0425 -0.0803
  216loPI    C2 3442   9.662   8.328   9.667  0.0335  0.0105 -0.1010
  216loPI    C3 3443   9.328   8.390   9.879  0.2302  0.0400  0.2062
  216loPI   PO4 3444   9.726   7.864   9.825  0.1498  0.0413  0.3116
  216loPI   GL1 3445   9.659   7.636   9.399  0.0241  0.0763  0.1906
  216loPI   GL2 3446   9.993   7.727   9.429 -0.0555 -0.0502  0.4449
  216loPI   C1A 3447   9.718   7.672   9.031  0.1310 -0.5159 -0.0308
  216loPI   C2A 3448   9.838   7.773   8.673 -0.1620  0.3487 -0.0958
  216loPI   C3A 3449   9.882   7.815   8.220  0.0588  0.1157 -0.2308
  216loPI   C4A 3450  10.159   7.848   7.814  0.0078 -0.0482 -0.1859
  216loPI   C5A 3451  10.476   7.725   7.541 -0.1053 -0.2472 -0.0562
  216loPI   C6A 3452  10.733   7.351   7.422  0.1322 -0.0745 -0.0456
  216loPI   C1B 3453   9.673   8.086   9.191 -0.0557  0.0685 -0.2212
  216loPI   C2B 3454   9.404   8.118   8.953 -0.0039  0.0057 -0.2624
  216loPI   C3B 3455   9.331   7.789   8.709  0.0085  0.2918  0.0902
  216loPI   C4B 3456   9.473   7.528   8.344 -0.6476  0.2544  0.0867
  217loPI    C1 3457  13.039  15.790   9.559 -0.2826  0.3135 -0.0884
  217loPI    C2 3458  13.170  15.979   9.886 -0.0294 -0.0389  0.0207
  217loPI    C3 3459  12.782  15.894   9.847 -0.0495 -0.0694  0.2704
  217loPI   PO4 3460  13.140  15.869   9.411  0.0094  0.1123  0.2091
  217loPI   GL1 3461  13.483  15.631   9.046 -0.1777 -0.0487 -0.2689
  217loPI   GL2 3462  13.260  15.593   8.988  0.0430 -0.0804  0.2486
  217loPI   C1A 3463  13.637  15.763   8.649  0.0804  0.6178 -0.1370
  217loPI   C2A 3464  13.409  15.852   8.268  0.0141 -0.0052  0.2664
  217loPI   C3A 3465  13.255  16.075   7.922 -0.0225  0.2962 -0.0488
  217loPI   C4A 3466  13.123  16.135   7.496 -0.1363 -0.0125 -0.0602
  217loPI   C5A 3467  13.085  16.551   7.237 -0.2690 -0.0386 -0.0426
  217loPI   C6A 3468  13.249  16.981   7.244 -0.1497  0.1145 -0.0933
  217loPI   C1B 3469  13.203  15.487   8.617 -0.0606 -0.1506  0.2282
  217loPI   C2B 3470  13.312  15.336   8.207  0.2020 -0.2054  0.0909
  217loPI   C3B 3471  13.032  15.180   7.995  0.2145 -0.0491  0.1144
  217loPI   C4B 3472  12.623  15.265   7.766  0.0807  0.2325  0.0226
  218loPI    C1 3473  15.157   1.110   9.702 -0.1053 -0.0220  0.1607
  218loPI    C2 3474  14.969   0.760   9.752  0.1986 -0.1967  0.1061
  218loPI    C3 3475  15.145   0.940  10.063  0.1257 -0.1396  0.1147
  218loPI   PO4 3476  15.228   1.060   9.477 -0.5192 -0.1018 -0.2210
  218loPI   GL1 3477  15.242   1.307   9.087  0.0485  0.1006  0.1137
  218loPI   GL2 3478  14.956   1.372   8.858 -0.1484  0.3048 -0.0216
  218loPI   C1A 3479  15.465   1.214   8.724 -0.0630  0.0254 -0.0119
  218loPI   C2A 3480  15.411   1.326   8.324 -0.0154 -0.0390 -0.1965
  218loPI   C3A 3481  15.329   1.231   7.955 -0.1511 -0.0919 -0.0579
  218loPI   C4A 3482  15.236   1.363   7.476  0.0784  0.0946  0.2779
  218loPI   C5A 3483  15.579   1.355   7.206 -0.2000 -0.3280 -0.4980
  218loPI   C6A 3484  15.667   1.281   6.801 -0.0252  0.2617  0.1116
  218loPI   C1B 3485  14.955   1.592   8.483  0.0388  0.1078 -0.1841
  218loPI   C2B 3486  15.056   1.870   8.034 -0.1111  0.1384  0.0635
  218loPI   C3B 3487  15.149   1.875   7.611 -0.0726  0.1165  0.0364
  218loPI   C4B 3488  14.880   1.663   7.221 -0.1821 -0.1612 -0.2108
  219loPI    C1 3489  13.964   2.937   9.769 -0.1830 -0.2559 -0.0938
  219loPI    C2 3490  13.581   3.046   9.812 -0.1209 -0.1321  0.1653
  219loPI    C3 3491  13.774   2.871  10.115  0.1522  0.1963  0.1872
  219loPI   PO4 3492  14.035   2.983   9.543  0.0910 -0.1381 -0.2773
  219loPI   GL1 3493  13.775   2.983   9.151  0.0249  0.4528 -0.1049
  219loPI   GL2 3494  13.833   3.260   9.046 -0.2437 -0.0880  0.4055
  219loPI   C1A 3495  13.551   2.921   8.731  0.2815 -0.2519  0.2374
  219loPI   C2A 3496  13.492   3.118   8.384 -0.0960  0.1472  0.0247
  219loPI   C3A 3497  13.470   3.112   8.094  0.1288  0.0774  0.2900
  219loPI   C4A 3498  13.667   3.089   7.690 -0.5356 -0.0294  0.1451
  219loPI   C5A 3499  13.838   2.729   7.495 -0.2227 -0.1680  0.1057
  219loPI   C6A 3500  14.043   2.717   7.110 -0.1523  0.2149  0.0830
  219loPI   C1B 3501  14.102   3.460   8.792 -0.2626 -0.1745  0.3619
  219loPI   C2B 3502  14.284   3.530   8.399  0.0193  0.1189 -0.0389
  219loPI   C3B 3503  14.566   3.270   8.057 -0.1635 -0.0944 -0.1654
  219loPI   C4B 3504  14.618   2.827   7.997 -0.0396 -0.1482 -0.1018
  220loPI    C1 3505  10.271  17.603   9.967 -0.4217  0.0949 -0.0214
  220loPI    C2 3506   9.943  17.428  10.114 -0.1644 -0.2313  0.1785
  220loPI    C3 3507  10.244  17.526  10.359 -0.1169  0.0831 -0.0003
  220loPI   PO4 3508  10.190  17.623   9.656 -0.0249 -0.0833 -0.1871
  220loPI   GL1 3509  10.318  17.669   9.148  0.1908  0.2218  0.1716
  220loPI   GL2 3510  10.051  17.581   9.095  0.1223  0.3079  0.0979
  220loPI   C1A 3511  10.261  17.696   8.678  0.1528  0.1271  0.0427
  220loPI   C2A 3512  10.102  17.850   8.370  0.0163 -0.1228  0.0896
  220loPI   C3A 3513   9.705  17.877   8.158  0.0712 -0.4677  0.4417
  220loPI   C4A 3514   9.449  17.705   7.765 -0.2030  0.0075 -0.0700
  220loPI   C5A 3515   9.389  17.300   7.589  0.1429  0.1458  0.3028
  220loPI   C6A 3516   9.241  16.862   7.243 -0.3358 -0.1034  0.1298
  220loPI   C1B 3517   9.658  17.501   8.865 -0.0712 -0.1265  0.1342
  220loPI   C2B 3518   9.552  17.679   8.542 -0.0590 -0.1892 -0.1261
  220loPI   C3B 3519   9.376  17.384   8.157 -0.2501  0.1008 -0.1104
  220loPI   C4B 3520   9.059  17.177   8.063 -0.0303 -0.0848  0.0585
  221loPI    C1 3521  14.614   5.877   9.725 -0.0344  0.1110  0.1122
  221loPI    C2 3522  14.558   5.886  10.121  0.0552  0.1354  0.1245
  221loPI    C3 3523  14.689   5.551   9.945 -0.0746  0.0955  0.1030
  221loPI   PO4 3524  14.436   6.113   9.609  0.3477 -0.0545  0.0105
  221loPI   GL1 3525  14.629   6.278   9.231 -0.3779 -0.0646 -0.2188
  221loPI   GL2 3526  14.277   6.378   9.160 -0.2992 -0.2099 -0.2441
  221loPI   C1A 3527  14.655   6.281   8.825 -0.0795  0.0153  0.1020
  221loPI   C2A 3528  14.877   6.287   8.403 -0.4593  0.1315  0.2234
  221loPI   C3A 3529  14.767   6.131   7.980  0.4504 -0.2113  0.2467
  221loPI   C4A 3530  14.345   5.943   7.844 -0.2307  0.0347  0.0862
  221loPI   C5A 3531  14.247   5.817   7.488  0.3406 -0.0751  0.4634
  221loPI   C6A 3532  13.901   5.978   7.175 -0.1782  0.1413  0.2433
  221loPI   C1B 3533  14.141   6.305   8.818 -0.2440 -0.2775  0.0859
  221loPI   C2B 3534  13.972   6.332   8.481 -0.0831 -0.1066  0.3625
  221loPI   C3B 3535  13.946   6.235   8.038  0.1036  0.1690 -0.0263
  221loPI   C4B 3536  13.761   6.273   7.641  0.0986  0.0830  0.0517
  222loPI    C1 3537  13.200  13.556   9.901  0.1301  0.1777 -0.0807
  222loPI    C2 3538  12.929  13.295  10.038  0.1390  0.2663  0.1095
  222loPI    C3 3539  13.268  13.356  10.241  0.2806  0.1925 -0.1015
  222loPI   PO4 3540  13.132  13.508   9.612  0.1687 -0.0190 -0.2710
  222loPI   GL1 3541  13.121  13.669   9.343 -0.2448 -0.4417  0.3004
  222loPI   GL2 3542  12.800  13.789   9.314 -0.1407  0.2379  0.0704
  222loPI   C1A 3543  13.310  13.585   9.007  0.0592 -0.2926 -0.2363
  222loPI   C2A 3544  13.423  13.516   8.532  0.0979  0.1169 -0.1715
  222loPI   C3A 3545  13.339  13.373   8.063 -0.0621 -0.0820 -0.0356
  222loPI   C4A 3546  13.319  13.387   7.673  0.1838 -0.0840 -0.1754
  222loPI   C5A 3547  13.400  13.536   7.250  0.1295  0.1653 -0.0905
  222loPI   C6A 3548  13.509  13.249   6.958  0.0176  0.4013 -0.0952
  222loPI   C1B 3549  12.838  13.971   8.882  0.0765 -0.0564  0.2939
  222loPI   C2B 3550  13.022  13.916   8.529 -0.0222 -0.0113 -0.1625
  222loPI   C3B 3551  13.108  13.943   8.088  0.1222 -0.0475  0.3892
  222loPI   C4B 3552  13.085  13.955   7.622  0.2103  0.1622  0.2579
  223loPI    C1 3553   6.409   3.938   9.738  0.0307 -0.0323 -0.0283
  223loPI    C2 3554   6.721   3.774   9.928  0.2148 -0.0728 -0.3588
  223loPI    C3 3555   6.422   3.543   9.796  0.0934 -0.0462 -0.1353
  223loPI   PO4 3556   6.571   4.180   9.619 -0.1255 -0.0036 -0.3524
  223loPI   GL1 3557   6.950   4.218   9.303  0.2774 -0.0257  0.1126
  223loPI   GL2 3558   6.774   4.427   9.140  0.1108  0.0322  0.0777
  223loPI   C1A 3559   7.032   3.907   9.044 -0.1905 -0.0636  0.1090
  223loPI   C2A 3560   6.942   3.595   8.670  0.1264 -0.0076 -0.0164
  223loPI   C3A 3561   7.096   3.478   8.288  0.3439  0.2494  0.2877
  223loPI   C4A 3562   7.117   3.464   7.925  0.4569  0.2348 -0.2600
  223loPI   C5A 3563   7.245   3.383   7.531 -0.0353 -0.0553 -0.0967
  223loPI   C6A 3564   7.183   3.596   7.180 -0.2725  0.2609  0.0851
  223loPI   C1B 3565   6.824   4.195   8.654  0.0714  0.0090  0.0223
  223loPI   C2B 3566   6.797   3.890   8.246  0.0399  0.0808 -0.3385
  223loPI   C3B 3567   6.774   3.983   7.806 -0.1016  0.4673  0.1542
  223loPI   C4B 3568   6.847   4.201   7.400  0.2065  0.0877 -0.2311
  224loPI    C1 3569  12.969   0.814   9.421  0.1099  0.0591  0.1132
  224loPI    C2 3570  13.191   0.616   9.688  0.0855 -0.2527 -0.0929
  224loPI    C3 3571  12.794   0.640   9.736  0.1187 -0.0085  0.0807
  224loPI   PO4 3572  13.069   0.788   9.210 -0.0238  0.0608 -0.1534
  224loPI   GL1 3573  13.238   0.939   8.927  0.1625 -0.0766  0.1281
  224loPI   GL2 3574  13.489   0.988   9.026  0.0893  0.1510  0.1568
  224loPI   C1A 3575  13.282   0.754   8.560 -0.0384 -0.4638  0.1327
  224loPI   C2A 3576  13.247   0.795   8.205 -0.1290  0.3054 -0.2890
  224loPI   C3A 3577  13.368   0.544   7.804 -0.3828 -0.0936 -0.3184
  224loPI   C4A 3578  13.311   0.085   7.736  0.0675 -0.2460  0.2359
  224loPI   C5A 3579  13.585  -0.137   7.400  0.0929  0.3776 -0.0161
  224loPI   C6A 3580  13.873  -0.067   7.158 -0.3345  0.0856 -0.0268
  224loPI   C1B 3581  13.625   1.066   8.598 -0.2030 -0.0868  0.1040
  224loPI   C2B 3582  13.618   1.101   8.145 -0.0885 -0.0384 -0.2898
  224loPI   C3B 3583  13.575   1.010   7.789  0.0804  0.1131 -0.0328
  224loPI   C4B 3584  13.664   0.792   7.466 -0.1183  0.0382  0.0795
  225loPI    C1 3585   0.485   8.920  10.207 -0.0965  0.2392  0.0154
  225loPI    C2 3586   0.405   8.548  10.081  0.2418  0.1914 -0.0668
  225loPI    C3 3587   0.695   8.611  10.350  0.1102  0.3860  0.0322
  225loPI   PO4 3588   0.238   8.971   9.898 -0.0271  0.2080  0.0711
  225loPI   GL1 3589   0.378   8.959   9.533  0.1178  0.2178  0.0037
  225loPI   GL2 3590   0.557   9.273   9.270  0.2631  0.0181 -0.3245
  225loPI   C1A 3591   0.222   8.909   9.046 -0.1187 -0.0988  0.0504
  225loPI   C2A 3592   0.316   8.759   8.595  0.0986 -0.0531  0.1505
  225loPI   C3A 3593   0.285   8.496   8.145  0.0307 -0.0784  0.1719
  225loPI   C4A 3594   0.429   8.386   7.779 -0.5845 -0.0152 -0.1598
  225loPI   C5A 3595   0.614   8.232   7.433 -0.2100 -0.0365  0.1607
  225loPI   C6A 3596   0.839   7.858   7.310  0.1590  0.1162 -0.1090
  225loPI   C1B 3597   0.906   9.384   8.915  0.1797 -0.0941 -0.3437
  225loPI   C2B 3598   0.901   9.476   8.503  0.0137  0.1137  0.1299
  225loPI   C3B 3599   0.780   9.550   8.163 -0.0786  0.2389  0.1066
  225loPI   C4B 3600   0.518   9.506   7.727 -0.1925  0.2173 -0.3135
  226loPI    C1 3601  13.516   6.410  10.645 -0.1970 -0.1490 -0.0598
  226loPI    C2 3602  13.574   6.096  10.886 -0.0634 -0.1202 -0.0540
  226loPI    C3 3603  13.859   6.373  10.847 -0.1873  0.0095 -0.0467
  226loPI   PO4 3604  13.377   6.442  10.305 -0.0501 -0.0918 -0.1588
  226loPI   GL1 3605  13.462   6.538   9.818 -0.0034 -0.2258  0.0877
  226loPI   GL2 3606  13.560   6.275   9.696 -0.0953 -0.3578 -0.2216
  226loPI   C1A 3607  13.152   6.633   9.561 -0.2121 -0.1750  0.2580
  226loPI   C2A 3608  12.847   6.454   9.293  0.1397  0.2963 -0.1033
  226loPI   C3A 3609  12.708   6.453   8.944 -0.0660  0.1253  0.0826
  226loPI   C4A 3610  12.586   6.287   8.517  0.0871  0.0390 -0.0391
  226loPI   C5A 3611  12.571   6.422   8.122  0.1240  0.1203  0.1812
  226loPI   C6A 3612  12.623   6.602   7.690 -0.0064 -0.0050 -0.3633
  226loPI   C1B 3613  13.723   6.573   9.340  0.1954 -0.2387  0.1829
  226loPI   C2B 3614  13.768   6.753   8.984 -0.1770 -0.0150 -0.0992
  226loPI   C3B 3615  13.766   6.804   8.597 -0.1825  0.0032 -0.1650
  226loPI   C4B 3616  13.957   6.779   8.237  0.0756 -0.4085  0.1421
  227loPI    C1 3617   1.244   2.441   9.468  0.0231 -0.1396  0.2127
  227loPI    C2 3618   1.425   2.128   9.640 -0.1143 -0.3146  0.0431
  227loPI    C3 3619   1.071   2.253   9.776 -0.0623 -0.2363  0.1068
  227loPI   PO4 3620   1.204   2.386   9.251  0.0803 -0.1499 -0.0210
  227loPI   GL1 3621   1.007   2.507   8.941 -0.0652 -0.1148 -0.0082
  227loPI   GL2 3622   0.811   2.739   8.965  0.0054  0.1547  0.3812
  227loPI   C1A 3623   1.181   2.652   8.614  0.1992 -0.1452  0.1759
  227loPI   C2A 3624   1.182   2.829   8.247  0.3810 -0.0153 -0.0425
  227loPI   C3A 3625   1.041   2.881   7.840  0.2295  0.1477  0.3613
  227loPI   C4A 3626   0.899   2.763   7.410  0.0702 -0.1555 -0.3174
  227loPI   C5A 3627   0.735   3.172   7.049  0.1510  0.3791  0.1660
  227loPI   C6A 3628   0.877   3.488   6.814  0.2402 -0.0368  0.0706
  227loPI   C1B 3629   0.806   3.041   8.595 -0.0616 -0.1201  0.0364
  227loPI   C2B 3630   0.862   3.184   8.286  0.2167 -0.1245  0.2011
  227loPI   C3B 3631   0.893   3.346   7.915  0.0338 -0.2695 -0.2124
  227loPI   C4B 3632   1.065   3.224   7.447 -0.0577 -0.0660  0.0426
  228loPI    C1 3633   4.135   1.987   9.275  0.0974 -0.0375  0.0231
  228loPI    C2 3634   3.976   1.927   9.637  0.2267  0.2368  0.1279
  228loPI    C3 3635   4.369   1.987   9.599  0.2592 -0.0882 -0.0923
  228loPI   PO4 3636   3.973   2.091   9.104  0.1316  0.0423 -0.1516
  228loPI   GL1 3637   4.150   2.427   8.978  0.1156  0.4436  0.5365
  228loPI   GL2 3638   3.855   2.567   8.866 -0.1097 -0.1134 -0.1935
  228loPI   C1A 3639   4.383   2.519   8.589  0.5371  0.1331 -0.0856
  228loPI   C2A 3640   4.338   2.299   8.179 -0.0715  0.0188  0.0090
  228loPI   C3A 3641   4.432   2.274   7.744 -0.0705 -0.0938  0.1140
  228loPI   C4A 3642   4.377   2.230   7.291 -0.3858 -0.1106 -0.0141
  228loPI   C5A 3643   4.374   2.381   6.947 -0.3233  0.2026 -0.2435
  228loPI   C6A 3644   4.480   2.766   6.838 -0.2196  0.0044  0.1782
  228loPI   C1B 3645   3.975   2.609   8.378 -0.0031 -0.0430  0.1744
  228loPI   C2B 3646   3.892   2.448   7.954 -0.0750 -0.2106  0.1914
  228loPI   C3B 3647   3.847   2.790   7.641 -0.1565  0.0149  0.4190
  228loPI   C4B 3648   3.609   3.040   7.399  0.0369  0.2413  0.0630
  229loPI    C1 3649   3.581  16.978   9.193  0.0031  0.0619  0.0323
  229loPI    C2 3650   3.544  17.306   8.968 -0.1417  0.1146  0.1314
  229loPI    C3 3651   3.225  17.155   9.155 -0.0486 -0.0054  0.1948
  229loPI   PO4 3652   3.802  16.908   9.126 -0.0116 -0.0173 -0.0390
  229loPI   GL1 3653   3.749  16.735   8.776  0.0401  0.1263  0.2198
  229loPI   GL2 3654   3.916  17.106   8.659  0.2736 -0.2816  0.2128
  229loPI   C1A 3655   4.066  16.587   8.567 -0.1423 -0.3130  0.0304
  229loPI   C2A 3656   4.046  16.508   8.144  0.1889 -0.0454  0.0940
  229loPI   C3A 3657   3.910  16.491   7.716  0.0666 -0.1661 -0.3069
  229loPI   C4A 3658   3.932  16.471   7.322  0.0956 -0.0404  0.4152
  229loPI   C5A 3659   3.804  16.658   6.900  0.0731 -0.1691 -0.1018
  229loPI   C6A 3660   3.923  16.839   6.550 -0.3014 -0.2540 -0.0409
  229loPI   C1B 3661   4.062  17.053   8.286  0.0839 -0.2488 -0.0181
  229loPI   C2B 3662   4.159  16.974   7.853  0.2072 -0.1493  0.0568
  229loPI   C3B 3663   4.201  16.956   7.351  0.3807  0.0213 -0.0704
  229loPI   C4B 3664   4.316  16.892   6.930 -0.0044  0.0050 -0.3201
  230loPI    C1 3665  19.216  13.332   9.229  0.2974 -0.0866 -0.2267
  230loPI    C2 3666  19.277  13.669   9.436 -0.0226 -0.1325 -0.0520
  230loPI    C3 3667  19.370  13.315   9.598  0.1413 -0.1414 -0.1633
  230loPI   PO4 3668  18.952  13.372   9.049 -0.3883 -0.0164  0.0136
  230loPI   GL1 3669  18.625  13.244   8.828  0.0564  0.0302  0.1462
  230loPI   GL2 3670  18.596  12.878   8.861 -0.1387 -0.1152 -0.0574
  230loPI   C1A 3671  18.760  13.166   8.400 -0.0321  0.0359  0.0303
  230loPI   C2A 3672  18.503  13.238   8.005 -0.1540  0.0775 -0.2484
  230loPI   C3A 3673  18.377  13.207   7.601 -0.2756  0.2270  0.1584
  230loPI   C4A 3674  18.318  13.098   7.218  0.3049  0.1762  0.1164
  230loPI   C5A 3675  18.166  13.354   6.856  0.0461  0.1557 -0.2392
  230loPI   C6A 3676  18.155  13.751   6.766 -0.0612 -0.0261 -0.4012
  230loPI   C1B 3677  18.453  12.637   8.600 -0.1764  0.2210 -0.0515
  230loPI   C2B 3678  18.334  12.541   8.197  0.1900  0.2478  0.0553
  230loPI   C3B 3679  18.490  12.731   7.804  0.0839 -0.1418  0.1033
  230loPI   C4B 3680  18.563  12.712   7.331 -0.4745 -0.0182 -0.2391
  231loPI    C1 3681   1.522  16.827   9.418  0.0058  0.0236  0.0114
  231loPI    C2 3682   1.142  16.704   9.437  0.0984 -0.2786 -0.0439
  231loPI    C3 3683   1.342  16.789   9.773 -0.0596  0.0173 -0.0221
  231loPI   PO4 3684   1.608  16.661   9.210 -0.3322  0.0312  0.0537
  231loPI   GL1 3685   1.812  16.525   8.887 -0.0558  0.0665 -0.2430
  231loPI   GL2 3686   1.847  16.441   8.593 -0.2515 -0.1440 -0.2525
  231loPI   C1A 3687   1.893  17.010   8.672  0.1267 -0.0818  0.1114
  231loPI   C2A 3688   1.866  17.328   8.282  0.1931 -0.3812 -0.2158
  231loPI   C3A 3689   1.939  17.261   7.813  0.3275  0.3762  0.1096
  231loPI   C4A 3690   1.828  17.100   7.365  0.0259  0.0627 -0.0614
  231loPI   C5A 3691   1.562  16.956   7.133 -0.0820  0.2636  0.1271
  231loPI   C6A 3692   1.469  17.363   6.917 -0.2348  0.2343 -0.0686
  231loPI   C1B 3693   1.937  16.489   8.243  0.1287  0.0769 -0.2022
  231loPI   C2B 3694   2.071  16.643   7.821 -0.4247  0.2907  0.0506
  231loPI   C3B 3695   2.331  16.650   7.523 -0.0380  0.1940  0.3241
  231loPI   C4B 3696   2.276  16.893   7.137  0.1740  0.2550 -0.3114
  232loPI    C1 3697   3.037   3.775   9.760  0.1338  0.0700  0.2493
  232loPI    C2 3698   3.223   3.449   9.899 -0.0834 -0.1030  0.1407
  232loPI    C3 3699   2.830   3.496   9.958 -0.0576  0.1305  0.1369
  232loPI   PO4 3700   3.121   3.824   9.484  0.2989 -0.1896  0.3053
  232loPI   GL1 3701   3.245   4.192   9.181 -0.0062 -0.0130 -0.0846
  232loPI   GL2 3702   3.016   4.243   9.165  0.0626  0.3951 -0.1461
  232loPI   C1A 3703   3.449   4.191   8.761 -0.3545  0.0045  0.2097
  232loPI   C2A 3704   3.695   4.059   8.442 -0.1876  0.0404  0.3342
  232loPI   C3A 3705   3.915   4.160   8.152 -0.0260  0.1180  0.0047
  232loPI   C4A 3706   4.168   4.196   7.785 -0.0231 -0.0313 -0.2146
  232loPI   C5A 3707   4.393   4.177   7.372  0.2276  0.0005 -0.0690
  232loPI   C6A 3708   4.748   4.152   7.086 -0.2477 -0.2294 -0.1110
  232loPI   C1B 3709   2.829   4.352   8.740 -0.1565  0.1712  0.1515
  232loPI   C2B 3710   2.763   4.572   8.353  0.0289  0.3567  0.0579
  232loPI   C3B 3711   2.666   4.588   7.910 -0.2579  0.0565 -0.0820
  232loPI   C4B 3712   2.449   4.597   7.474 -0.2765  0.1273  0.0836
  233loPI    C1 3713  11.840   0.563   9.623  0.1797  0.4138 -0.1989
  233loPI    C2 3714  12.171   0.370   9.737 -0.0545  0.0370 -0.1421
  233loPI    C3 3715  11.838   0.165   9.655 -0.3556  0.4295  0.0642
  233loPI   PO4 3716  11.913   0.714   9.419  0.0975 -0.2583  0.1302
  233loPI   GL1 3717  12.135   0.772   9.024  0.2394  0.0671  0.3184
  233loPI   GL2 3718  12.044   0.475   8.875  0.0958 -0.0929 -0.4127
  233loPI   C1A 3719  12.275   0.973   8.726 -0.0013  0.2415 -0.1669
  233loPI   C2A 3720  12.405   1.221   8.350  0.2635 -0.2810  0.1994
  233loPI   C3A 3721  12.559   1.209   8.010 -0.1902 -0.1658  0.1616
  233loPI   C4A 3722  12.620   1.286   7.658  0.1287  0.5543  0.0613
  233loPI   C5A 3723  12.849   1.431   7.433  0.4745 -0.2544 -0.2034
  233loPI   C6A 3724  13.081   1.838   7.315  0.3029 -0.0590 -0.3355
  233loPI   C1B 3725  11.635   0.574   8.733 -0.0025 -0.0885 -0.2374
  233loPI   C2B 3726  11.437   0.786   8.421  0.1749  0.1902 -0.1386
  233loPI   C3B 3727  11.544   1.003   8.020  0.1582 -0.2080 -0.1443
  233loPI   C4B 3728  11.699   1.151   7.526  0.1076  0.0103  0.2150
  234loPI    C1 3729  17.360   0.631   9.450  0.1325  0.1159 -0.3285
  234loPI    C2 3730  17.318   0.321   9.200 -0.0776 -0.0778 -0.0590
  234loPI    C3 3731  17.189   0.293   9.578  0.0770  0.2729  0.0243
  234loPI   PO4 3732  17.382   0.825   9.232 -0.6896  0.3821  0.0043
  234loPI   GL1 3733  17.220   1.118   9.034 -0.2991 -0.0977 -0.2867
  234loPI   GL2 3734  16.985   0.871   8.884 -0.1499 -0.1684  0.0218
  234loPI   C1A 3735  17.336   1.047   8.526  0.0304  0.2785  0.1914
  234loPI   C2A 3736  17.758   0.964   8.398  0.3349  0.0136  0.2658
  234loPI   C3A 3737  17.746   0.938   7.980 -0.1138  0.1650  0.2421
  234loPI   C4A 3738  17.771   0.530   7.978  0.3156  0.2846 -0.1621
  234loPI   C5A 3739  17.842   0.171   7.800 -0.0629 -0.1689  0.2030
  234loPI   C6A 3740  17.601  -0.196   7.507  0.1533  0.0540 -0.1973
  234loPI   C1B 3741  16.942   0.673   8.408 -0.0467 -0.0002  0.0144
  234loPI   C2B 3742  16.938   0.947   8.023  0.1223  0.0837 -0.0693
  234loPI   C3B 3743  17.177   1.263   8.022 -0.0827 -0.1780 -0.1065
  234loPI   C4B 3744  17.301   1.667   7.806 -0.0274 -0.2229  0.0730
  235loPI    C1 3745  12.853   3.464   9.680 -0.1254  0.0812 -0.2037
  235loPI    C2 3746  13.247   3.429   9.739 -0.1347  0.1773 -0.0813
  235loPI    C3 3747  13.048   3.736   9.898 -0.3450 -0.1365  0.2780
  235loPI   PO4 3748  12.829   3.367   9.358 -0.0958 -0.2340 -0.1821
  235loPI   GL1 3749  12.994   3.437   8.931 -0.0863  0.1523 -0.2710
  235loPI   GL2 3750  12.763   3.568   8.698 -0.1599 -0.0963  0.3262
  235loPI   C1A 3751  13.305   3.604   8.712  0.5991 -0.0107 -0.1883
  235loPI   C2A 3752  13.484   3.583   8.303 -0.1168 -0.1440 -0.1778
  235loPI   C3A 3753  13.866   3.484   8.124 -0.1894  0.0126  0.1903
  235loPI   C4A 3754  14.142   3.557   7.767  0.1971  0.1404 -0.1808
  235loPI   C5A 3755  14.409   3.445   7.495 -0.0451 -0.0779  0.0837
  235loPI   C6A 3756  14.759   3.259   7.516 -0.1079  0.1306  0.0302
  235loPI   C1B 3757  12.528   3.677   8.390 -0.2393  0.1945 -0.3189
  235loPI   C2B 3758  12.651   3.912   8.005  0.5898  0.0603 -0.0855
  235loPI   C3B 3759  13.052   3.880   7.773  0.1282 -0.0288 -0.3682
  235loPI   C4B 3760  13.551   3.758   7.774 -0.0245  0.0181  0.3386
  236loPI    C1 3761   1.293   0.098   9.290  0.2210 -0.0435  0.0040
  236loPI    C2 3762   1.399  -0.251   9.455  0.2399  0.0711  0.2388
  236loPI    C3 3763   1.387   0.081   9.679 -0.1125  0.1579  0.0982
  236loPI   PO4 3764   1.152   0.029   9.104  0.4000 -0.1589 -0.3183
  236loPI   GL1 3765   1.050  -0.266   8.833 -0.0921 -0.0951 -0.4925
  236loPI   GL2 3766   1.124  -0.487   8.991  0.4292  0.0710 -0.0277
  236loPI   C1A 3767   0.873  -0.202   8.322 -0.0642  0.3064  0.0843
  236loPI   C2A 3768   0.818  -0.010   7.985  0.0118 -0.0349 -0.3042
  236loPI   C3A 3769   0.660  -0.131   7.527 -0.1310  0.0987 -0.2464
  236loPI   C4A 3770   0.639  -0.214   7.175  0.0109 -0.0736 -0.0842
  236loPI   C5A 3771   0.586  -0.381   6.816  0.1613 -0.1225 -0.1677
  236loPI   C6A 3772   0.430  -0.391   6.338  0.1448  0.2008 -0.0829
  236loPI   C1B 3773   0.753  -0.606   8.645  0.3479 -0.1370  0.1763
  236loPI   C2B 3774   0.756  -0.682   8.187 -0.1839 -0.1715  0.2466
  236loPI   C3B 3775   0.734  -0.601   7.738 -0.1415 -0.0326 -0.0767
  236loPI   C4B 3776   0.647  -0.653   7.373 -0.1416 -0.0344  0.1132
  237loPI    C1 3777  10.091  17.066   9.617 -0.0478  0.0475 -0.0345
  237loPI    C2 3778  10.450  17.175   9.754 -0.1287 -0.0494  0.2619
  237loPI    C3 3779  10.182  17.015  10.003 -0.2655 -0.2683 -0.0212
  237loPI   PO4 3780  10.193  17.190   9.353 -0.1920  0.0086 -0.2821
  237loPI   GL1 3781  10.529  17.119   8.984 -0.0303 -0.1461  0.2375
  237loPI   GL2 3782  10.758  17.017   8.785 -0.4823  0.1611  0.1577
  237loPI   C1A 3783  10.353  16.761   8.805  0.2254 -0.1523  0.1526
  237loPI   C2A 3784  10.321  16.577   8.345 -0.1004  0.0869  0.2530
  237loPI   C3A 3785  10.093  16.374   8.089  0.0728  0.0966  0.2988
  237loPI   C4A 3786   9.749  16.257   7.700  0.2334 -0.0368  0.2160
  237loPI   C5A 3787   9.651  16.669   7.531  0.1065  0.0116 -0.0262
  237loPI   C6A 3788   9.920  16.789   7.235 -0.0038 -0.2239 -0.0517
  237loPI   C1B 3789  10.631  16.914   8.292  0.0005 -0.3262  0.2049
  237loPI   C2B 3790  10.433  16.926   7.977 -0.4018 -0.3208  0.0674
  237loPI   C3B 3791  10.378  17.017   7.523 -0.0697 -0.1928 -0.4002
  237loPI   C4B 3792  10.281  17.070   7.051  0.2406 -0.0353 -0.2810
  238loPI    C1 3793  11.108   0.787   9.931  0.1951  0.0794  0.0282
  238loPI    C2 3794  11.151   0.610  10.287  0.0787  0.1280  0.0668
  238loPI    C3 3795  11.435   0.571  10.008  0.0679 -0.0946  0.0855
  238loPI   PO4 3796  10.925   0.701   9.804 -0.2306  0.0618  0.1910
  238loPI   GL1 3797  10.886   0.556   9.439  0.2022 -0.2919  0.3829
  238loPI   GL2 3798  10.815   0.244   9.231  0.1228  0.3707  0.0627
  238loPI   C1A 3799  10.750   0.707   9.015  0.0325  0.3077 -0.0521
  238loPI   C2A 3800  10.643   0.870   8.615  0.0295 -0.2767 -0.2173
  238loPI   C3A 3801  10.519   0.939   8.142  0.0135  0.2213 -0.0688
  238loPI   C4A 3802  10.751   0.881   7.715 -0.1584 -0.2306  0.0107
  238loPI   C5A 3803  10.776   0.892   7.349 -0.0067 -0.1200  0.1325
  238loPI   C6A 3804  10.912   0.826   6.920 -0.2499  0.2053  0.1254
  238loPI   C1B 3805  10.958   0.326   8.784 -0.1458 -0.1790 -0.0814
  238loPI   C2B 3806  11.269   0.324   8.489  0.0949 -0.3114  0.2472
  238loPI   C3B 3807  11.459   0.173   8.105 -0.1942 -0.1769 -0.3452
  238loPI   C4B 3808  11.257  -0.020   7.680 -0.0624  0.0876  0.0561
  239loPI    C1 3809  18.331   9.345  10.051  0.2679 -0.1989  0.2670
  239loPI    C2 3810  17.943   9.292   9.972  0.2978  0.2060 -0.1998
  239loPI    C3 3811  18.060   9.388  10.342 -0.0611  0.2367 -0.0908
  239loPI   PO4 3812  18.420   9.545   9.836 -0.0412 -0.1605 -0.4736
  239loPI   GL1 3813  18.712   9.763   9.682 -0.1845  0.3989  0.1941
  239loPI   GL2 3814  19.074   9.756   9.482 -0.3706  0.0408  0.0563
  239loPI   C1A 3815  18.654   9.850   9.186  0.6011  0.2552 -0.3968
  239loPI   C2A 3816  18.614   9.746   8.821 -0.1573 -0.0807 -0.1409
  239loPI   C3A 3817  18.370   9.627   8.363  0.1734  0.0164 -0.1149
  239loPI   C4A 3818  18.375   9.537   7.918 -0.4276 -0.2181  0.5401
  239loPI   C5A 3819  18.569   9.348   7.660 -0.0359 -0.0962  0.1296
  239loPI   C6A 3820  18.993   9.287   7.466 -0.4277  0.0104 -0.1932
  239loPI   C1B 3821  19.234   9.736   9.043  0.3389 -0.1147  0.1975
  239loPI   C2B 3822  19.088   9.891   8.690 -0.0956 -0.0684  0.0714
  239loPI   C3B 3823  18.884  10.057   8.386  0.0322 -0.3599 -0.2374
  239loPI   C4B 3824  18.673  10.372   8.166  0.1088  0.1509  0.2183
  240loPI    C1 3825   6.849   5.379   9.564 -0.0539 -0.2112 -0.0762
  240loPI    C2 3826   6.960   5.092   9.819 -0.1060 -0.2043 -0.0455
  240loPI    C3 3827   7.233   5.273   9.591 -0.0385 -0.1137  0.1053
  240loPI   PO4 3828   6.640   5.349   9.448  0.1073 -0.2651  0.0073
  240loPI   GL1 3829   6.544   5.350   9.037 -0.0866 -0.2826  0.0059
  240loPI   GL2 3830   6.328   5.103   9.117  0.2071 -0.0599 -0.0203
  240loPI   C1A 3831   6.810   5.146   8.650 -0.0697  0.1525  0.0883
  240loPI   C2A 3832   7.027   4.991   8.353 -0.1273 -0.5632 -0.3039
  240loPI   C3A 3833   6.841   4.836   7.958  0.1674  0.1380  0.3427
  240loPI   C4A 3834   6.694   4.531   7.715  0.0967  0.0238  0.0012
  240loPI   C5A 3835   6.351   4.232   7.419  0.0675  0.1535 -0.0158
  240loPI   C6A 3836   5.960   4.384   7.141  0.1665 -0.0696  0.2926
  240loPI   C1B 3837   6.500   4.830   8.819  0.0976 -0.0834  0.0356
  240loPI   C2B 3838   6.662   4.659   8.453  0.0992  0.0663  0.0415
  240loPI   C3B 3839   6.888   4.348   8.159  0.2714  0.1833  0.3586
  240loPI   C4B 3840   7.138   4.367   7.804  0.1518  0.1885 -0.1501
  241loPI    C1 3841  12.291  17.011   9.505 -0.1049 -0.1383  0.0869
  241loPI    C2 3842  12.007  17.267   9.388  0.0729  0.0444  0.0505
  241loPI    C3 3843  11.913  16.961   9.627 -0.1447  0.1331  0.0812
  241loPI   PO4 3844  12.411  16.926   9.279  0.1512  0.0763 -0.0950
  241loPI   GL1 3845  12.444  16.687   8.857  0.0425  0.2272  0.3594
  241loPI   GL2 3846  12.195  16.368   8.901  0.2403 -0.2098  0.2610
  241loPI   C1A 3847  12.727  16.697   8.536 -0.0411  0.0339 -0.0492
  241loPI   C2A 3848  12.624  16.871   8.154 -0.0317  0.1911  0.3965
  241loPI   C3A 3849  12.374  16.855   7.834 -0.1560  0.0434  0.3170
  241loPI   C4A 3850  12.304  17.018   7.407  0.2205  0.3514 -0.0233
  241loPI   C5A 3851  12.371  17.387   7.225 -0.0019 -0.1544 -0.2084
  241loPI   C6A 3852  12.618  17.724   7.000 -0.0125  0.2256 -0.2801
  241loPI   C1B 3853  12.092  16.140   8.537  0.1129  0.1855 -0.0556
  241loPI   C2B 3854  11.781  16.083   8.236  0.3123  0.0678 -0.5209
  241loPI   C3B 3855  11.612  15.813   7.900 -0.2617 -0.2554  0.0677
  241loPI   C4B 3856  11.721  15.720   7.394  0.0993  0.1268  0.0797
  242loPI    C1 3857   0.195  12.347   9.844 -0.0262 -0.0566  0.0829
  242loPI    C2 3858   0.409  12.579  10.089  0.2723 -0.0107 -0.2143
  242loPI    C3 3859   0.037  12.472  10.189  0.3032  0.2020  0.1448
  242loPI   PO4 3860   0.184  12.416   9.565 -0.0231  0.0430 -0.2503
  242loPI   GL1 3861   0.152  12.466   9.096  0.1945  0.3104 -0.1375
  242loPI   GL2 3862  -0.047  12.737   9.006  0.0122 -0.0489 -0.0958
  242loPI   C1A 3863   0.208  12.487   8.613 -0.2489  0.2115  0.0533
  242loPI   C2A 3864   0.277  12.778   8.226  0.2964 -0.0616 -0.0141
  242loPI   C3A 3865   0.286  13.015   7.980  0.2671 -0.0916 -0.2866
  242loPI   C4A 3866   0.396  13.206   7.606  0.1563  0.4016 -0.0797
  242loPI   C5A 3867   0.484  13.039   7.253  0.1384 -0.0843 -0.1792
  242loPI   C6A 3868   0.328  12.754   6.994  0.0527  0.1179  0.5074
  242loPI   C1B 3869  -0.079  12.895   8.611 -0.0092 -0.4172 -0.0142
  242loPI   C2B 3870  -0.207  13.053   8.193 -0.0930  0.1974 -0.0884
  242loPI   C3B 3871  -0.524  13.160   7.874  0.1478 -0.0956 -0.1367
  242loPI   C4B 3872  -0.619  12.926   7.625 -0.0601 -0.1537  0.1010
  243loPI    C1 3873   7.861   3.824  10.410  0.0859 -0.1988 -0.1296
  243loPI    C2 3874   7.480   3.943  10.401  0.1456  0.0022 -0.0521
  243loPI    C3 3875   7.636   3.797  10.739  0.1510 -0.0352 -0.0706
  243loPI   PO4 3876   7.893   3.621  10.164  0.1303  0.3532 -0.3951
  243loPI   GL1 3877   7.883   3.315   9.698 -0.0341 -0.0382  0.0317
  243loPI   GL2 3878   8.042   3.214   9.490  0.3714  0.4769  0.2931
  243loPI   C1A 3879   7.549   3.372   9.341  0.2155 -0.1761 -0.3813
  243loPI   C2A 3880   7.661   3.545   9.083  0.1491 -0.0034 -0.3869
  243loPI   C3A 3881   7.399   3.745   8.698 -0.1213 -0.4894  0.1456
  243loPI   C4A 3882   7.334   4.032   8.531 -0.0662 -0.0612 -0.2845
  243loPI   C5A 3883   7.211   3.955   8.064 -0.2969 -0.1104 -0.4423
  243loPI   C6A 3884   7.311   3.871   7.549 -0.4473  0.1890 -0.2170
  243loPI   C1B 3885   8.076   3.323   9.052  0.1195 -0.6200  0.1971
  243loPI   C2B 3886   8.210   3.312   8.676  0.1386  0.1585 -0.0401
  243loPI   C3B 3887   8.445   3.353   8.350  0.0732 -0.1576 -0.3312
  243loPI   C4B 3888   8.553   3.166   7.989  0.1434 -0.1634 -0.3472
  244loPI    C1 3889   9.941   1.742   9.866 -0.2340 -0.1034  0.2606
  244loPI    C2 3890  10.232   1.478   9.941 -0.0086  0.0685  0.0079
  244loPI    C3 3891  10.214   1.821  10.147  0.0264  0.1007 -0.0421
  244loPI   PO4 3892   9.905   1.715   9.572 -0.0664 -0.1773  0.3023
  244loPI   GL1 3893   9.970   1.780   9.145  0.2227  0.0717 -0.0394
  244loPI   GL2 3894  10.224   1.992   9.120 -0.3228  0.0085 -0.0283
  244loPI   C1A 3895   9.962   1.770   8.716  0.0995  0.0010  0.3582
  244loPI   C2A 3896   9.790   1.647   8.265  0.0421 -0.1678  0.2405
  244loPI   C3A 3897   9.592   1.395   7.950 -0.2003 -0.0766  0.0567
  244loPI   C4A 3898   9.563   1.226   7.568 -0.0346 -0.2964  0.2210
  244loPI   C5A 3899   9.826   0.871   7.400  0.0110 -0.0456  0.0369
  244loPI   C6A 3900   9.717   0.364   7.427  0.0547 -0.2642 -0.0251
  244loPI   C1B 3901  10.312   1.401   8.948  0.0891 -0.2049 -0.1884
  244loPI   C2B 3902  10.299   1.400   8.467  0.0602 -0.1633  0.0021
  244loPI   C3B 3903  10.159   1.290   8.152  0.0791 -0.2235  0.0992
  244loPI   C4B 3904  10.187   1.083   7.654 -0.1051  0.1887 -0.2262
  245loPI    C1 3905   5.485   7.006   9.721 -0.1757 -0.2880 -0.0471
  245loPI    C2 3906   5.163   7.098   9.938 -0.0711 -0.0746  0.0209
  245loPI    C3 3907   5.522   7.076  10.113  0.0174  0.1221 -0.1331
  245loPI   PO4 3908   5.385   6.945   9.513  0.0604 -0.3191  0.1112
  245loPI   GL1 3909   5.369   6.945   9.089  0.0274  0.4751  0.0473
  245loPI   GL2 3910   5.458   6.638   8.879 -0.0559  0.3924 -0.1661
  245loPI   C1A 3911   5.653   7.055   8.729  0.1930 -0.2735  0.1099
  245loPI   C2A 3912   5.590   7.303   8.401  0.2602  0.2463  0.2339
  245loPI   C3A 3913   5.360   7.164   8.026  0.0291 -0.5251  0.2636
  245loPI   C4A 3914   5.068   7.135   7.829  0.0539 -0.1840  0.0245
  245loPI   C5A 3915   4.637   7.178   7.706  0.0891  0.2714 -0.0986
  245loPI   C6A 3916   4.178   7.131   7.600  0.1065 -0.1333  0.1496
  245loPI   C1B 3917   5.497   6.764   8.395 -0.1165 -0.0051  0.0573
  245loPI   C2B 3918   5.379   6.699   8.045  0.1324  0.0754 -0.1747
  245loPI   C3B 3919   5.186   6.633   7.723  0.0051  0.3384  0.0064
  245loPI   C4B 3920   4.932   6.846   7.344 -0.0769 -0.1046 -0.1122
  246loPI    C1 3921   4.030  19.465   8.895 -0.0158  0.0780  0.0197
  246loPI    C2 3922   4.272  19.510   9.211 -0.0483  0.1067  0.0406
  246loPI    C3 3923   4.052  19.178   9.173  0.1670 -0.0228 -0.0965
  246loPI   PO4 3924   4.195  19.406   8.684 -0.0619  0.0232 -0.0117
  246loPI   GL1 3925   4.178  19.132   8.418 -0.2539 -0.1013 -0.2275
  246loPI   GL2 3926   4.213  18.857   8.361 -0.2114 -0.0537 -0.0818
  246loPI   C1A 3927   4.346  19.324   8.104  0.1597 -0.2602 -0.1851
  246loPI   C2A 3928   4.310  19.283   7.610 -0.0958  0.0931  0.0138
  246loPI   C3A 3929   4.490  19.162   7.298  0.2581  0.1278 -0.0684
  246loPI   C4A 3930   4.580  18.789   7.143  0.1509  0.0693  0.0906
  246loPI   C5A 3931   4.313  18.692   6.843  0.1050 -0.0458  0.6028
  246loPI   C6A 3932   3.854  18.583   6.720  0.1259 -0.2525  0.0661
  246loPI   C1B 3933   4.214  18.871   7.912 -0.3365 -0.1076 -0.0758
  246loPI   C2B 3934   4.069  18.737   7.524 -0.1743  0.0748 -0.0937
  246loPI   C3B 3935   3.656  18.880   7.211 -0.0078  0.1472  0.2423
  246loPI   C4B 3936   3.466  19.271   7.179  0.1549  0.0615 -0.1626
  247loPI    C1 3937  15.286  17.935   9.795 -0.0601 -0.0423 -0.2469
  247loPI    C2 3938  15.154  17.911  10.172  0.3314 -0.0148 -0.1035
  247loPI    C3 3939  14.912  18.046   9.883 -0.0616 -0.2957  0.0856
  247loPI   PO4 3940  15.527  18.035   9.795  0.3542 -0.3636 -0.3581
  247loPI   GL1 3941  15.574  18.259   9.394 -0.0099  0.0501 -0.2819
  247loPI   GL2 3942  15.216  18.245   9.296 -0.2749 -0.3858  0.0618
  247loPI   C1A 3943  15.612  17.910   9.173 -0.1066  0.1801 -0.0865
  247loPI   C2A 3944  15.679  17.600   8.895 -0.1737 -0.3854 -0.1357
  247loPI   C3A 3945  15.761  17.748   8.431  0.0475 -0.0464 -0.2200
  247loPI   C4A 3946  15.561  17.561   8.030 -0.0220  0.1059 -0.0049
  247loPI   C5A 3947  15.522  17.403   7.598  0.0655  0.2029 -0.0072
  247loPI   C6A 3948  15.097  17.284   7.412  0.0713 -0.3426 -0.0970
  247loPI   C1B 3949  15.065  18.558   8.991 -0.0383  0.0993 -0.0326
  247loPI   C2B 3950  15.227  18.649   8.620 -0.1987  0.4161  0.0994
  247loPI   C3B 3951  15.406  18.622   8.237  0.1849 -0.3157 -0.5937
  247loPI   C4B 3952  15.282  18.618   7.901 -0.1654  0.1473  0.1714
  248loPI    C1 3953   8.208   0.015   9.182 -0.0770  0.2720 -0.1639
  248loPI    C2 3954   7.911  -0.008   9.448  0.0533  0.4373 -0.0016
  248loPI    C3 3955   8.290  -0.047   9.568  0.0927  0.0823 -0.2289
  248loPI   PO4 3956   8.103  -0.111   9.018  0.0871 -0.0022  0.1030
  248loPI   GL1 3957   8.004   0.096   8.711  0.1643 -0.2233 -0.1479
  248loPI   GL2 3958   7.709   0.255   8.502  0.0410 -0.2906  0.2824
  248loPI   C1A 3959   8.260   0.179   8.458 -0.2477 -0.0977 -0.0648
  248loPI   C2A 3960   8.404   0.059   8.099 -0.1793 -0.2890 -0.1445
  248loPI   C3A 3961   8.229  -0.180   7.711 -0.1572 -0.1665  0.0421
  248loPI   C4A 3962   8.260  -0.385   7.359 -0.3678  0.2425 -0.1876
  248loPI   C5A 3963   8.665  -0.446   7.162  0.1290 -0.2045  0.3928
  248loPI   C6A 3964   8.958  -0.728   7.120  0.3507  0.1922  0.1872
  248loPI   C1B 3965   7.894   0.243   8.076  0.5674 -0.2141 -0.6680
  248loPI   C2B 3966   7.966   0.212   7.635  0.2866  0.0023  0.2465
  248loPI   C3B 3967   7.965  -0.001   7.317 -0.2622 -0.2633  0.0549
  248loPI   C4B 3968   8.030  -0.179   6.879 -0.0383  0.1056 -0.0591
  249loPI    C1 3969   0.880   1.772   9.436  0.0311 -0.0023 -0.0494
  249loPI    C2 3970   1.005   1.648   9.795 -0.0518  0.0543 -0.0005
  249loPI    C3 3971   0.618   1.620   9.698 -0.0303  0.0443 -0.0836
  249loPI   PO4 3972   1.147   1.823   9.320 -0.2004  0.0012  0.1392
  249loPI   GL1 3973   1.153   1.983   8.835 -0.1112  0.3238 -0.0782
  249loPI   GL2 3974   1.362   2.173   8.788 -0.2665  0.0365 -0.0746
  249loPI   C1A 3975   1.007   2.183   8.375 -0.1633 -0.1919 -0.0322
  249loPI   C2A 3976   0.954   2.439   8.106  0.0537 -0.1180  0.2385
  249loPI   C3A 3977   0.766   2.420   7.737  0.1408 -0.0757 -0.1016
  249loPI   C4A 3978   0.612   2.323   7.387  0.2115  0.1592  0.0931
  249loPI   C5A 3979   0.547   1.937   7.110 -0.1080  0.0781 -0.2234
  249loPI   C6A 3980   0.234   1.767   6.956 -0.2141 -0.2058 -0.0344
  249loPI   C1B 3981   1.638   2.464   8.612 -0.1133  0.0587  0.3554
  249loPI   C2B 3982   1.880   2.534   8.244 -0.0232 -0.4613 -0.1845
  249loPI   C3B 3983   1.902   2.709   7.816  0.2648 -0.1768  0.3149
  249loPI   C4B 3984   1.898   2.591   7.456 -0.2030  0.2928  0.2379
  250loPI    C1 3985   3.318  12.187   9.795 -0.0664 -0.0346  0.2014
  250loPI    C2 3986   2.934  12.273   9.720 -0.0030  0.0080 -0.0894
  250loPI    C3 3987   3.128  12.461  10.015 -0.2594 -0.1587  0.1913
  250loPI   PO4 3988   3.400  12.115   9.491 -0.1727  0.0843  0.0707
  250loPI   GL1 3989   3.179  12.404   9.221  0.0558  0.3130 -0.2770
  250loPI   GL2 3990   3.059  12.753   9.072  0.2441  0.2536  0.1390
  250loPI   C1A 3991   3.090  12.316   8.766 -0.1113  0.2889  0.0782
  250loPI   C2A 3992   2.852  12.155   8.458  0.3734 -0.1346  0.0964
  250loPI   C3A 3993   2.658  12.116   8.047  0.0930 -0.3807  0.0866
  250loPI   C4A 3994   2.446  12.032   7.722  0.0866 -0.0496 -0.0755
  250loPI   C5A 3995   2.115  12.338   7.469  0.1439  0.1883  0.0768
  250loPI   C6A 3996   1.646  12.188   7.380 -0.0651 -0.2119 -0.2226
  250loPI   C1B 3997   3.292  12.870   8.647  0.4747  0.1420 -0.0837
  250loPI   C2B 3998   3.276  12.862   8.193  0.2222  0.3452 -0.1470
  250loPI   C3B 3999   3.440  12.984   7.766  0.1026 -0.0690  0.2743
  250loPI   C4B 4000   3.555  13.446   7.590  0.0572 -0.0884 -0.3059
  251loPI    C1 4001  11.582   8.059   9.957 -0.1657  0.0165  0.0069
  251loPI    C2 4002  11.911   8.073  10.185 -0.0305  0.2082 -0.1956
  251loPI    C3 4003  11.896   7.827   9.870 -0.1984 -0.0203 -0.0128
  251loPI   PO4 4004  11.481   8.303   9.889  0.1915  0.3144  0.0678
  251loPI   GL1 4005  11.375   8.428   9.547 -0.2538  0.2106  0.2609
  251loPI   GL2 4006  11.050   8.400   9.494  0.2054  0.1013 -0.2442
  251loPI   C1A 4007  11.296   8.258   9.135 -0.0822  0.0788  0.3715
  251loPI   C2A 4008  11.174   8.366   8.677 -0.3849  0.3660  0.1324
  251loPI   C3A 4009  11.205   8.235   8.314 -0.1318 -0.2826  0.1019
  251loPI   C4A 4010  11.279   8.239   7.871  0.1783  0.1093 -0.3455
  251loPI   C5A 4011  11.367   8.243   7.466  0.3959  0.0861 -0.2011
  251loPI   C6A 4012  11.449   8.419   7.046  0.0107  0.0617 -0.2026
  251loPI   C1B 4013  10.826   8.244   9.205 -0.2084 -0.0700  0.1498
  251loPI   C2B 4014  10.698   8.260   8.748  0.1896 -0.1005  0.2692
  251loPI   C3B 4015  10.843   7.903   8.388  0.2200 -0.1273 -0.3280
  251loPI   C4B 4016  10.803   8.044   7.944  0.0511 -0.0817 -0.2304
  252loPI    C1 4017   6.784   7.710   9.908 -0.2344 -0.1104 -0.0748
  252loPI    C2 4018   6.854   7.531  10.259 -0.0315 -0.1390 -0.1286
  252loPI    C3 4019   6.874   7.929  10.230  0.4327 -0.1629 -0.2114
  252loPI   PO4 4020   6.578   7.630   9.825 -0.1446 -0.0370  0.0909
  252loPI   GL1 4021   6.553   7.443   9.448  0.1278 -0.0882 -0.1106
  252loPI   GL2 4022   6.251   7.323   9.335 -0.0455 -0.1264  0.1902
  252loPI   C1A 4023   6.900   7.563   9.114 -0.2768  0.1244 -0.2490
  252loPI   C2A 4024   6.880   7.586   8.679  0.3373  0.0498 -0.1330
  252loPI   C3A 4025   6.908   7.574   8.283 -0.0385 -0.0123  0.0885
  252loPI   C4A 4026   6.877   7.605   7.877  0.0439  0.3142  0.1812
  252loPI   C5A 4027   7.224   7.776   7.546 -0.0381 -0.0624 -0.0768
  252loPI   C6A 4028   7.158   8.166   7.406  0.1022 -0.1396  0.0767
  252loPI   C1B 4029   6.443   7.360   8.932  0.1790  0.6252  0.0532
  252loPI   C2B 4030   6.576   7.260   8.461 -0.1415  0.2488  0.1888
  252loPI   C3B 4031   6.593   7.244   7.983  0.0350  0.3648  0.3275
  252loPI   C4B 4032   6.336   6.964   7.752  0.2824  0.0658  0.1263
  253loPI    C1 4033   0.820  14.627   9.482  0.4751 -0.2583  0.0637
  253loPI    C2 4034   0.478  14.421   9.485  0.2256  0.1395 -0.1709
  253loPI    C3 4035   0.813  14.253   9.623 -0.0860 -0.2108  0.1843
  253loPI   PO4 4036   0.836  14.674   9.184 -0.1083 -0.1326 -0.3570
  253loPI   GL1 4037   0.722  14.996   8.972 -0.0963  0.1761  0.2992
  253loPI   GL2 4038   1.015  15.029   8.856  0.0494 -0.2330 -0.0163
  253loPI   C1A 4039   0.588  15.115   8.548 -0.1652 -0.1757 -0.2002
  253loPI   C2A 4040   0.615  15.188   8.128  0.0627 -0.1457 -0.0607
  253loPI   C3A 4041   0.656  15.308   7.749 -0.0354  0.0617 -0.1054
  253loPI   C4A 4042   0.998  15.228   7.406  0.0029 -0.2904 -0.1753
  253loPI   C5A 4043   1.364  15.166   7.179 -0.4808 -0.2124  0.0348
  253loPI   C6A 4044   1.690  15.032   6.903 -0.0018 -0.1096  0.0019
  253loPI   C1B 4045   1.021  14.853   8.485  0.0856 -0.5518 -0.2655
  253loPI   C2B 4046   1.082  14.713   8.068 -0.3055  0.3459  0.1905
  253loPI   C3B 4047   1.180  14.337   7.831  0.3154 -0.0497 -0.1404
  253loPI   C4B 4048   1.389  14.264   7.508  0.1017  0.1639 -0.4130
  254loPI    C1 4049   5.121  17.074   9.333  0.1598 -0.1626  0.2741
  254loPI    C2 4050   5.478  16.895   9.360  0.2132 -0.0492  0.3296
  254loPI    C3 4051   5.182  16.790   9.608  0.2621 -0.0208  0.4002
  254loPI   PO4 4052   5.157  17.244   9.109 -0.0527  0.5225 -0.1179
  254loPI   GL1 4053   4.925  17.550   8.809 -0.3077 -0.3889 -0.1866
  254loPI   GL2 4054   4.923  17.334   8.671  0.4287  0.2407 -0.1907
  254loPI   C1A 4055   5.396  17.436   8.510 -0.3810 -0.2149 -0.0540
  254loPI   C2A 4056   5.812  17.268   8.207 -0.1655 -0.1708  0.1344
  254loPI   C3A 4057   5.860  17.186   7.841 -0.0985  0.0402 -0.2082
  254loPI   C4A 4058   6.000  16.987   7.421  0.1217 -0.0365 -0.1268
  254loPI   C5A 4059   6.086  16.946   7.021 -0.0280  0.1500  0.0970
  254loPI   C6A 4060   6.224  16.726   6.679  0.2898 -0.0278  0.1437
  254loPI   C1B 4061   4.964  17.479   8.264 -0.0656  0.0235  0.1967
  254loPI   C2B 4062   4.993  17.510   7.808  0.2020  0.2289  0.2223
  254loPI   C3B 4063   5.124  17.634   7.456 -0.2467  0.0301  0.0163
  254loPI   C4B 4064   5.328  17.612   7.049 -0.3098  0.1184 -0.5158
  255loPI    C1 4065  18.705   4.936   9.679  0.0331  0.0666  0.0210
  255loPI    C2 4066  18.935   4.717   9.924  0.0780 -0.0493 -0.1235
  255loPI    C3 4067  18.581   4.854  10.051  0.1229 -0.0669  0.0223
  255loPI   PO4 4068  18.845   5.036   9.545  0.0915 -0.3853  0.0019
  255loPI   GL1 4069  18.888   4.961   9.090 -0.0384 -0.2591 -0.0151
  255loPI   GL2 4070  18.824   5.349   9.174 -0.0971 -0.1586  0.1166
  255loPI   C1A 4071  18.798   4.804   8.647 -0.3306 -0.1585 -0.0601
  255loPI   C2A 4072  18.682   4.724   8.216  0.1564 -0.1094 -0.2743
  255loPI   C3A 4073  18.546   4.753   7.785 -0.2893 -0.1548  0.1723
  255loPI   C4A 4074  18.366   4.823   7.362  0.0676 -0.0793 -0.1141
  255loPI   C5A 4075  18.142   5.105   7.272 -0.1089 -0.2653 -0.4096
  255loPI   C6A 4076  17.836   5.416   7.105 -0.1871  0.3326 -0.2204
  255loPI   C1B 4077  18.800   5.309   8.715 -0.3057 -0.1304  0.0446
  255loPI   C2B 4078  18.842   5.286   8.329  0.1231 -0.0364 -0.0626
  255loPI   C3B 4079  18.814   5.131   7.966  0.0681  0.1597 -0.0689
  255loPI   C4B 4080  18.744   5.124   7.575  0.0489  0.0363 -0.0119
  256loPI    C1 4081  16.199  14.537   9.952 -0.3029 -0.0191 -0.1504
  256loPI    C2 4082  15.975  14.769  10.188  0.0012 -0.0229  0.1505
  256loPI    C3 4083  16.373  14.782  10.216  0.0387 -0.1183 -0.2785
  256loPI   PO4 4084  16.041  14.560   9.677  0.0734 -0.0724 -0.1332
  256loPI   GL1 4085  16.055  14.425   9.369  0.2557 -0.0297  0.1508
  256loPI   GL2 4086  16.244  14.141   9.290 -0.1572 -0.1234 -0.1567
  256loPI   C1A 4087  15.909  14.536   8.980 -0.1045  0.0083  0.1473
  256loPI   C2A 4088  15.922  14.401   8.508 -0.0380 -0.1633 -0.2422
  256loPI   C3A 4089  15.764  14.067   8.240  0.0940 -0.2403  0.1031
  256loPI   C4A 4090  15.941  14.073   7.714 -0.1665  0.2602  0.2650
  256loPI   C5A 4091  16.184  13.774   7.413  0.2044 -0.0947 -0.2407
  256loPI   C6A 4092  16.597  13.751   7.330  0.2401  0.1549 -0.1507
  256loPI   C1B 4093  16.278  14.221   8.801 -0.2990  0.2066  0.0915
  256loPI   C2B 4094  16.289  14.189   8.273  0.0622 -0.0350  0.0493
  256loPI   C3B 4095  16.351  14.059   7.954 -0.3198 -0.3248  0.2765
  256loPI   C4B 4096  16.469  14.311   7.507  0.0899  0.0140 -0.0893
  257loPI    C1 4097  14.727   1.108   9.446 -0.0883 -0.0714 -0.3146
  257loPI    C2 4098  14.366   1.266   9.517 -0.0340 -0.0759 -0.0148
  257loPI    C3 4099  14.572   1.095   9.814  0.0842 -0.3502 -0.2487
  257loPI   PO4 4100  14.748   1.125   9.243 -0.1472  0.1371 -0.0529
  257loPI   GL1 4101  14.634   0.844   8.886  0.2300  0.0711 -0.3131
  257loPI   GL2 4102  15.053   0.881   8.922  0.1029  0.3361 -0.1424
  257loPI   C1A 4103  14.688   1.024   8.509 -0.3328  0.1662 -0.1239
  257loPI   C2A 4104  14.766   1.240   8.232  0.6478 -0.3211  0.0305
  257loPI   C3A 4105  14.808   1.170   7.814  0.1105 -0.1553  0.2385
  257loPI   C4A 4106  15.091   0.912   7.600 -0.1979 -0.3023  0.0914
  257loPI   C5A 4107  15.043   0.697   7.308  0.1431 -0.1914  0.0928
  257loPI   C6A 4108  15.184   0.480   6.961 -0.2136  0.0022 -0.0246
  257loPI   C1B 4109  15.121   0.904   8.448  0.4492  0.0916 -0.0889
  257loPI   C2B 4110  14.879   0.763   8.098 -0.1007  0.0263  0.0427
  257loPI   C3B 4111  14.904   0.461   7.743  0.2784 -0.1150  0.0313
  257loPI   C4B 4112  15.333   0.446   7.640 -0.0264  0.0778 -0.1040
  258loPI    C1 4113  11.538  19.101   9.814  0.0083  0.2574 -0.0857
  258loPI    C2 4114  11.202  19.227   9.990 -0.2683 -0.3633 -0.1438
  258loPI    C3 4115  11.485  19.045  10.207  0.0944  0.2550 -0.0740
  258loPI   PO4 4116  11.539  19.321   9.636 -0.0612 -0.1378 -0.2365
  258loPI   GL1 4117  11.705  19.393   9.233 -0.1640  0.0194  0.2211
  258loPI   GL2 4118  11.635  19.042   9.206 -0.1056 -0.0249 -0.1958
  258loPI   C1A 4119  11.760  19.586   8.783  0.1166  0.2527 -0.0208
  258loPI   C2A 4120  11.797  19.752   8.497 -0.0896 -0.0014  0.3255
  258loPI   C3A 4121  11.839  20.103   8.313  0.2142  0.0837 -0.1325
  258loPI   C4A 4122  11.900  20.101   7.937  0.0170  0.0951  0.2470
  258loPI   C5A 4123  11.557  20.200   7.650 -0.1111  0.4832 -0.4566
  258loPI   C6A 4124  11.203  20.546   7.612 -0.1365  0.2130 -0.3992
  258loPI   C1B 4125  11.513  19.052   8.764 -0.1966  0.1502 -0.2212
  258loPI   C2B 4126  11.469  18.691   8.402  0.1150 -0.0890 -0.0829
  258loPI   C3B 4127  11.449  18.587   8.083 -0.0412  0.2551  0.1567
  258loPI   C4B 4128  11.119  18.476   7.724 -0.2454 -0.1206  0.3096
  259loPI    C1 4129   6.015   8.527   9.971 -0.2402  0.0152 -0.1112
  259loPI    C2 4130   5.656   8.505  10.145 -0.1455  0.0062  0.0861
  259loPI    C3 4131   5.932   8.757  10.287 -0.1366  0.1513 -0.1822
  259loPI   PO4 4132   5.971   8.438   9.688 -0.0081  0.0597 -0.2412
  259loPI   GL1 4133   6.383   8.502   9.468  0.1158 -0.0843 -0.0007
  259loPI   GL2 4134   6.419   8.876   9.384  0.0086 -0.0546 -0.1024
  259loPI   C1A 4135   6.477   8.349   9.165  0.0136  0.2298 -0.1520
  259loPI   C2A 4136   6.601   8.342   8.763 -0.2569 -0.2011  0.0714
  259loPI   C3A 4137   6.713   8.403   8.371  0.3514  0.2055  0.0080
  259loPI   C4A 4138   6.916   8.571   7.884  0.1785 -0.1170 -0.0522
  259loPI   C5A 4139   6.916   8.676   7.516 -0.1627 -0.0411 -0.0034
  259loPI   C6A 4140   7.000   8.914   7.123  0.0574  0.1792  0.2696
  259loPI   C1B 4141   6.226   8.887   8.997 -0.0668  0.0946  0.0731
  259loPI   C2B 4142   6.151   9.225   8.655 -0.3212  0.0405 -0.0888
  259loPI   C3B 4143   5.985   9.222   8.192 -0.1990  0.3238 -0.1095
  259loPI   C4B 4144   5.851   9.052   7.936 -0.0144 -0.1865 -0.0681
  260loPI    C1 4145   4.296   8.919   9.515  0.2295 -0.2217  0.0869
  260loPI    C2 4146   4.244   8.861   9.907  0.1225  0.1114  0.1249
  260loPI    C3 4147   4.418   9.196   9.776  0.0254  0.0681 -0.1195
  260loPI   PO4 4148   4.075   8.829   9.403 -0.1467 -0.1687 -0.2724
  260loPI   GL1 4149   3.992   8.754   9.013 -0.0163 -0.1967 -0.0471
  260loPI   GL2 4150   4.256   8.587   8.910 -0.3012 -0.0136  0.2041
  260loPI   C1A 4151   3.922   8.915   8.568 -0.2213  0.2280 -0.5726
  260loPI   C2A 4152   4.053   8.938   8.234  0.1921  0.1150 -0.0116
  260loPI   C3A 4153   4.078   9.232   7.891  0.1966 -0.1480  0.0403
  260loPI   C4A 4154   4.203   9.111   7.410  0.0238 -0.1648  0.3472
  260loPI   C5A 4155   4.547   8.889   7.075  0.1637 -0.0451 -0.1849
  260loPI   C6A 4156   4.997   8.891   7.018 -0.0414 -0.1069  0.2194
  260loPI   C1B 4157   4.431   8.671   8.516 -0.0717 -0.5730 -0.0972
  260loPI   C2B 4158   4.451   8.735   8.058  0.1134 -0.0994 -0.1962
  260loPI   C3B 4159   4.036   8.710   7.768  0.0488 -0.1828 -0.0513
  260loPI   C4B 4160   3.770   8.916   7.542  0.0227  0.0625  0.0171
  261loPI    C1 4161   1.014  12.175   9.927  0.0806 -0.1371  0.1836
  261loPI    C2 4162   0.618  12.175   9.988  0.0716 -0.0673  0.1273
  261loPI    C3 4163   0.863  12.331  10.263  0.0441  0.0861  0.0659
  261loPI   PO4 4164   0.980  11.948   9.806 -0.0111  0.0644 -0.0296
  261loPI   GL1 4165   0.871  11.722   9.393 -0.2511  0.0263 -0.2402
  261loPI   GL2 4166   0.908  11.828   9.100  0.2151 -0.0910 -0.1679
  261loPI   C1A 4167   1.012  11.384   9.085  0.1155 -0.0908  0.2204
  261loPI   C2A 4168   1.091  10.983   8.818  0.0614 -0.0343 -0.1176
  261loPI   C3A 4169   0.955  10.949   8.350 -0.0349 -0.2449 -0.0076
  261loPI   C4A 4170   0.919  11.096   7.932  0.1986  0.0367  0.1237
  261loPI   C5A 4171   0.664  11.190   7.591 -0.2303  0.0517 -0.2842
  261loPI   C6A 4172   0.267  11.333   7.575  0.1751  0.2048  0.1242
  261loPI   C1B 4173   1.001  11.722   8.673  0.0494  0.1427 -0.5677
  261loPI   C2B 4174   1.013  11.507   8.272 -0.2828  0.2360 -0.2787
  261loPI   C3B 4175   1.173  11.498   7.861 -0.0118  0.1025 -0.2953
  261loPI   C4B 4176   1.514  11.685   7.517 -0.0368 -0.1075 -0.4091
  262loPI    C1 4177  15.863   8.463  10.094  0.0109  0.0397  0.1990
  262loPI    C2 4178  16.149   8.717  10.209  0.0512  0.0406  0.0977
  262loPI    C3 4179  16.133   8.350  10.366  0.0359  0.0812  0.1916
  262loPI   PO4 4180  15.722   8.613   9.888  0.1291  0.0799  0.2024
  262loPI   GL1 4181  15.740   8.414   9.394  0.1582 -0.0100  0.1261
  262loPI   GL2 4182  15.526   8.134   9.347  0.2227 -0.1867  0.2563
  262loPI   C1A 4183  15.702   8.688   9.032 -0.1090 -0.0308  0.0959
  262loPI   C2A 4184  15.799   8.701   8.679  0.3052  0.1391 -0.0074
  262loPI   C3A 4185  16.091   8.721   8.263 -0.2447 -0.3795  0.2319
  262loPI   C4A 4186  16.138   9.005   7.866  0.0385 -0.1574 -0.0511
  262loPI   C5A 4187  16.378   9.425   7.875 -0.0113  0.4296  0.1255
  262loPI   C6A 4188  16.744   9.611   7.905  0.0987  0.1387  0.2497
  262loPI   C1B 4189  15.412   8.294   8.996 -0.1759  0.2093  0.0515
  262loPI   C2B 4190  15.516   8.320   8.617 -0.0736  0.1703 -0.2245
  262loPI   C3B 4191  15.516   8.486   8.269  0.2064  0.1972 -0.2743
  262loPI   C4B 4192  15.641   8.964   8.168 -0.0606 -0.0319  0.1781
  263loPI    C1 4193   7.377   4.161   9.946 -0.0667 -0.0325  0.1747
  263loPI    C2 4194   6.993   4.126   9.841  0.0650 -0.2134 -0.2719
  263loPI    C3 4195   7.198   3.804   9.962  0.0863 -0.1223 -0.0603
  263loPI   PO4 4196   7.504   4.345   9.733 -0.0749  0.0974  0.1022
  263loPI   GL1 4197   7.656   4.603   9.410 -0.1825 -0.1838 -0.0193
  263loPI   GL2 4198   7.620   4.896   9.434  0.1886 -0.1540  0.1166
  263loPI   C1A 4199   7.787   4.345   9.068 -0.2249 -0.1398  0.0696
  263loPI   C2A 4200   7.674   4.345   8.686 -0.2507  0.1811 -0.0446
  263loPI   C3A 4201   7.703   4.001   8.251  0.0028 -0.0638  0.0713
  263loPI   C4A 4202   7.592   3.656   7.879 -0.1759 -0.2312  0.1319
  263loPI   C5A 4203   7.729   3.523   7.494 -0.2755  0.0705 -0.0533
  263loPI   C6A 4204   8.001   3.269   7.250 -0.2682 -0.1163  0.2446
  263loPI   C1B 4205   7.763   5.172   9.236 -0.0773  0.2597  0.0309
  263loPI   C2B 4206   7.779   5.196   8.776  0.1101  0.2427  0.2090
  263loPI   C3B 4207   7.816   5.337   8.438  0.0645 -0.2724 -0.1376
  263loPI   C4B 4208   7.722   5.343   7.937 -0.1201 -0.2249  0.1724
  264loPI    C1 4209  13.613  16.625  10.063  0.0897 -0.0614 -0.0760
  264loPI    C2 4210  13.414  16.356  10.282  0.2666  0.0193  0.1884
  264loPI    C3 4211  13.472  16.726  10.423  0.1182  0.1665 -0.1269
  264loPI   PO4 4212  13.510  16.567   9.748  0.1284 -0.2438 -0.1930
  264loPI   GL1 4213  13.427  16.619   9.404 -0.2031 -0.0332 -0.0832
  264loPI   GL2 4214  13.318  16.304   9.249 -0.2137  0.0432 -0.1567
  264loPI   C1A 4215  13.439  16.951   9.127  0.0738 -0.1615  0.0805
  264loPI   C2A 4216  13.625  16.930   8.844 -0.1340 -0.0040  0.2990
  264loPI   C3A 4217  13.836  16.908   8.492 -0.0253  0.0720 -0.1143
  264loPI   C4A 4218  14.096  16.989   8.151 -0.1061 -0.0030  0.1597
  264loPI   C5A 4219  13.909  17.147   7.766  0.2245  0.0177 -0.0036
  264loPI   C6A 4220  13.898  17.210   7.326  0.2800 -0.3874 -0.2272
  264loPI   C1B 4221  13.543  16.433   8.906  0.1763  0.0740 -0.2779
  264loPI   C2B 4222  13.487  16.366   8.469 -0.2850 -0.2141 -0.0542
  264loPI   C3B 4223  13.564  16.395   8.087  0.0725 -0.3924  0.1169
  264loPI   C4B 4224  13.225  16.646   7.779 -0.1000  0.1575 -0.0478
  265loPI    C1 4225   9.523  10.301   9.874  0.0540  0.0011 -0.0367
  265loPI    C2 4226   9.561  10.093  10.214 -0.0612 -0.2387 -0.1681
  265loPI    C3 4227   9.326  10.416  10.203  0.1886 -0.0444  0.0611
  265loPI   PO4 4228   9.781  10.257   9.714  0.2183  0.0734  0.2735
  265loPI   GL1 4229  10.063  10.408   9.398  0.1301  0.1977  0.1627
  265loPI   GL2 4230   9.802  10.197   9.146  0.0458  0.1075 -0.0222
  265loPI   C1A 4231  10.381  10.514   9.086 -0.0842  0.1822  0.1114
  265loPI   C2A 4232  10.528  10.461   8.663 -0.1875 -0.2266  0.2141
  265loPI   C3A 4233  10.220  10.502   8.298 -0.1906 -0.1191 -0.0460
  265loPI   C4A 4234  10.380  10.412   7.892 -0.1727  0.0374 -0.1856
  265loPI   C5A 4235  10.174  10.584   7.402 -0.0421  0.1902  0.0360
  265loPI   C6A 4236   9.904  10.640   7.064  0.0383 -0.4381 -0.2126
  265loPI   C1B 4237   9.683  10.420   8.808  0.1768 -0.2277  0.0871
  265loPI   C2B 4238   9.787  10.271   8.358  0.0020  0.1620 -0.1275
  265loPI   C3B 4239   9.874  10.549   7.900 -0.1137  0.0947  0.0712
  265loPI   C4B 4240  10.101  10.902   7.871  0.0013 -0.0983 -0.0590
  266loPI    C1 4241   8.114  18.858   9.072 -0.0392  0.0321 -0.0005
  266loPI    C2 4242   7.949  19.087   9.356 -0.0169  0.0414  0.0049
  266loPI    C3 4243   7.815  18.714   9.296  0.1313 -0.0424  0.1827
  266loPI   PO4 4244   8.442  19.066   9.068 -0.1735 -0.2325  0.2606
  266loPI   GL1 4245   8.496  19.303   8.722  0.0727 -0.0776  0.1173
  266loPI   GL2 4246   8.639  19.573   8.747 -0.2378 -0.1419 -0.1995
  266loPI   C1A 4247   8.334  19.247   8.408  0.0397 -0.2481 -0.0759
  266loPI   C2A 4248   8.474  19.056   8.005  0.0304  0.0426  0.0836
  266loPI   C3A 4249   8.798  19.259   7.697 -0.0849 -0.1893 -0.1978
  266loPI   C4A 4250   9.062  19.402   7.275 -0.4018 -0.2824  0.3456
  266loPI   C5A 4251   9.475  19.587   7.084 -0.0056  0.1547 -0.1912
  266loPI   C6A 4252   9.539  19.877   6.768 -0.0198 -0.2511 -0.2358
  266loPI   C1B 4253   8.944  19.522   8.418  0.1408  0.2073  0.1796
  266loPI   C2B 4254   9.095  19.597   7.934 -0.1809  0.1440  0.0381
  266loPI   C3B 4255   9.376  19.498   7.665  0.1274  0.0165 -0.2083
  266loPI   C4B 4256   9.777  19.539   7.828  0.1055  0.0831 -0.1259
  267loPI    C1 4257   5.398   7.601  10.023 -0.0036  0.0812  0.0787
  267loPI    C2 4258   5.453   7.814  10.358  0.0775 -0.0654  0.1597
  267loPI    C3 4259   5.193   7.510  10.354 -0.0271  0.0246  0.0487
  267loPI   PO4 4260   5.577   7.605   9.922 -0.3434 -0.0582 -0.2143
  267loPI   GL1 4261   5.630   7.562   9.519  0.0244 -0.2805  0.0165
  267loPI   GL2 4262   5.744   7.338   9.334 -0.2294 -0.2152  0.1645
  267loPI   C1A 4263   5.907   7.876   9.205 -0.0664  0.1048  0.2905
  267loPI   C2A 4264   6.079   8.018   8.873 -0.1835 -0.1488  0.0385
  267loPI   C3A 4265   5.888   7.945   8.377  0.2123 -0.0543 -0.3111
  267loPI   C4A 4266   5.905   7.900   7.871 -0.1050  0.2064 -0.1901
  267loPI   C5A 4267   6.131   8.009   7.551 -0.2099  0.0213 -0.1070
  267loPI   C6A 4268   6.342   8.135   7.237 -0.0464  0.0198 -0.1838
  267loPI   C1B 4269   5.688   7.535   8.889  0.0050 -0.2836 -0.3364
  267loPI   C2B 4270   6.014   7.537   8.580  0.3206  0.0852 -0.0255
  267loPI   C3B 4271   6.000   7.461   8.155  0.1900 -0.0347  0.0581
  267loPI   C4B 4272   5.871   7.364   7.735  0.0115  0.0664 -0.0306
  268loPI    C1 4273   6.955   3.375  10.051 -0.0563 -0.0866 -0.0783
  268loPI    C2 4274   6.631   3.224  10.232 -0.0910 -0.0198 -0.0846
  268loPI    C3 4275   6.996   3.100  10.339 -0.0886  0.3180  0.3238
  268loPI   PO4 4276   6.881   3.305   9.758  0.1147  0.0243  0.0554
  268loPI   GL1 4277   7.103   3.341   9.304 -0.0426  0.3358  0.1557
  268loPI   GL2 4278   7.265   3.345   8.952 -0.1304  0.0905 -0.0882
  268loPI   C1A 4279   7.332   3.785   9.483 -0.0442  0.2268  0.0283
  268loPI   C2A 4280   7.483   3.990   9.210 -0.0378  0.1485 -0.1495
  268loPI   C3A 4281   7.262   4.374   8.987  0.0115 -0.1176 -0.1744
  268loPI   C4A 4282   7.537   4.764   8.939  0.3556  0.1813  0.3905
  268loPI   C5A 4283   7.559   4.883   8.492  0.3343  0.3254 -0.0461
  268loPI   C6A 4284   7.382   4.998   8.047 -0.2099 -0.1739  0.1043
  268loPI   C1B 4285   7.184   3.105   8.568 -0.1021  0.0317 -0.3646
  268loPI   C2B 4286   7.414   3.069   8.211 -0.1817  0.2488  0.2692
  268loPI   C3B 4287   7.572   3.100   7.846  0.2398  0.0333 -0.1427
  268loPI   C4B 4288   7.481   2.960   7.343 -0.2824 -0.0893  0.0881
  269loPI    C1 4289   8.561   9.511   9.791  0.1079  0.0834 -0.0171
  269loPI    C2 4290   8.399   9.166   9.669  0.2027  0.1031 -0.2029
  269loPI    C3 4291   8.616   9.177  10.005  0.1512 -0.0057 -0.1652
  269loPI   PO4 4292   8.237   9.656   9.816 -0.1843 -0.0186 -0.2465
  269loPI   GL1 4293   7.921   9.460   9.532  0.0400 -0.0847 -0.1787
  269loPI   GL2 4294   8.012   9.182   9.279  0.0480  0.1575 -0.1255
  269loPI   C1A 4295   7.778   9.691   9.162 -0.3086  0.0231  0.0380
  269loPI   C2A 4296   7.727   9.681   8.732  0.2800 -0.3770  0.0391
  269loPI   C3A 4297   7.651   9.592   8.281 -0.1629  0.1933  0.3285
  269loPI   C4A 4298   7.766   9.554   7.892  0.1193 -0.0843  0.1019
  269loPI   C5A 4299   7.792   9.558   7.442 -0.1630  0.1198  0.2493
  269loPI   C6A 4300   8.040   9.386   7.107 -0.0694  0.0654 -0.3717
  269loPI   C1B 4301   8.082   9.339   8.906  0.1174  0.2656  0.1038
  269loPI   C2B 4302   8.134   9.415   8.504  0.0551  0.3946 -0.2691
  269loPI   C3B 4303   8.218   9.453   8.072  0.0148 -0.0370  0.0008
  269loPI   C4B 4304   8.181   9.700   7.751 -0.1694 -0.0878  0.0951
  270loPI    C1 4305   2.876  18.574   9.418  0.2425 -0.0248  0.0313
  270loPI    C2 4306   2.981  18.189   9.447  0.2881 -0.0211 -0.0806
  270loPI    C3 4307   2.713  18.342   9.701 -0.1819 -0.2776 -0.4061
  270loPI   PO4 4308   2.829  18.575   9.216  0.1867 -0.3095 -0.1936
  270loPI   GL1 4309   2.766  18.657   8.809  0.1322  0.1980  0.2186
  270loPI   GL2 4310   2.837  18.925   8.821 -0.0617  0.1651 -0.2206
  270loPI   C1A 4311   2.693  18.733   8.356  0.2523  0.1193  0.1206
  270loPI   C2A 4312   2.860  18.995   8.075 -0.0705 -0.0197 -0.1254
  270loPI   C3A 4313   3.320  18.954   7.759  0.0454 -0.1936 -0.0802
  270loPI   C4A 4314   3.628  18.622   7.629  0.0714  0.0394 -0.2174
  270loPI   C5A 4315   3.849  18.349   7.268 -0.4316 -0.0098 -0.1862
  270loPI   C6A 4316   3.863  17.856   7.248 -0.0055 -0.1085  0.0256
  270loPI   C1B 4317   2.787  19.231   8.546  0.3679 -0.0767  0.1074
  270loPI   C2B 4318   2.702  19.512   8.119  0.1525  0.1962  0.0379
  270loPI   C3B 4319   2.689  19.505   7.766  0.0012 -0.1975  0.0325
  270loPI   C4B 4320   3.012  19.281   7.458 -0.0850 -0.2293  0.1454
  271loPI    C1 4321  10.089  10.814   9.900 -0.1678  0.0439 -0.2272
  271loPI    C2 4322   9.692  10.770   9.914 -0.1549  0.0042  0.1166
  271loPI    C3 4323   9.879  10.982  10.197  0.0756 -0.0228 -0.0132
  271loPI   PO4 4324  10.161  10.805   9.660  0.1651 -0.2914  0.3435
  271loPI   GL1 4325  10.351  10.962   9.294 -0.0279  0.3940  0.4496
  271loPI   GL2 4326  10.081  10.925   9.084 -0.2458 -0.1555  0.1103
  271loPI   C1A 4327  10.790  11.040   9.006 -0.1163  0.1333  0.0501
  271loPI   C2A 4328  11.173  11.149   8.819 -0.2075 -0.6749  0.0546
  271loPI   C3A 4329  11.385  11.352   8.387  0.0296 -0.0326  0.0233
  271loPI   C4A 4330  11.648  11.460   8.046  0.0853 -0.0208  0.1950
  271loPI   C5A 4331  11.949  11.404   7.826 -0.3745  0.1162 -0.0352
  271loPI   C6A 4332  12.407  11.428   7.726 -0.5430 -0.0302  0.2746
  271loPI   C1B 4333  10.078  10.821   8.698 -0.0964  0.0299  0.1050
  271loPI   C2B 4334  10.091  11.146   8.320  0.1942  0.2886 -0.1523
  271loPI   C3B 4335   9.820  11.334   7.947 -0.1183 -0.2599 -0.4020
  271loPI   C4B 4336   9.562  11.692   7.691 -0.0134 -0.0235  0.1271
  272loPI    C1 4337   2.417   1.996   9.540  0.2687  0.0309  0.1052
  272loPI    C2 4338   2.270   1.630   9.607  0.5445 -0.1032 -0.0079
  272loPI    C3 4339   2.440   1.835   9.905  0.0388  0.0999  0.1519
  272loPI   PO4 4340   2.138   2.036   9.279  0.0954 -0.0971  0.4195
  272loPI   GL1 4341   2.016   1.931   8.913  0.1712  0.0220 -0.2318
  272loPI   GL2 4342   1.783   1.925   8.767 -0.1293 -0.0871  0.1212
  272loPI   C1A 4343   2.210   2.121   8.572 -0.0705 -0.1348  0.0390
  272loPI   C2A 4344   2.406   2.277   8.210  0.3889 -0.0279 -0.0572
  272loPI   C3A 4345   2.222   2.286   7.803  0.0417  0.2048 -0.3486
  272loPI   C4A 4346   2.058   1.909   7.517 -0.0337 -0.0862 -0.0644
  272loPI   C5A 4347   1.773   1.535   7.435 -0.0550 -0.0178  0.0856
  272loPI   C6A 4348   1.302   1.626   7.670  0.1600  0.0325  0.0806
  272loPI   C1B 4349   1.699   2.088   8.286  0.0679  0.0883 -0.1302
  272loPI   C2B 4350   1.659   1.959   7.859  0.0163  0.1068 -0.0114
  272loPI   C3B 4351   1.503   2.000   7.383 -0.2845 -0.1355 -0.0475
  272loPI   C4B 4352   1.304   2.252   7.227 -0.1391  0.3074 -0.2714
  273loPI    C1 4353   8.545  16.483  10.039  0.2000 -0.2076  0.1220
  273loPI    C2 4354   8.427  16.129  10.184 -0.2435 -0.0298  0.2103
  273loPI    C3 4355   8.387  16.460  10.406  0.3434  0.0561  0.2026
  273loPI   PO4 4356   8.492  16.476   9.776  0.1184 -0.0436 -0.0572
  273loPI   GL1 4357   8.514  16.596   9.294  0.0884  0.0649  0.0131
  273loPI   GL2 4358   8.337  16.532   9.069 -0.0523  0.1661 -0.4986
  273loPI   C1A 4359   8.811  16.529   9.025 -0.2164  0.0730  0.1613
  273loPI   C2A 4360   9.106  16.583   8.773  0.1567 -0.1175 -0.2978
  273loPI   C3A 4361   9.486  16.508   8.583 -0.1085 -0.0242  0.2347
  273loPI   C4A 4362   9.618  16.315   8.208 -0.0068 -0.0270  0.2975
  273loPI   C5A 4363   9.417  15.979   8.076  0.1467 -0.1180  0.2809
  273loPI   C6A 4364   9.115  15.900   8.265  0.3735 -0.2161  0.0573
  273loPI   C1B 4365   8.418  16.587   8.709 -0.2265 -0.1275  0.1563
  273loPI   C2B 4366   8.278  16.454   8.278  0.2397  0.1283 -0.2756
  273loPI   C3B 4367   8.133  16.580   7.844 -0.0447 -0.1868 -0.1543
  273loPI   C4B 4368   7.624  16.574   7.795  0.7411  0.0021  0.2179
  274loPI    C1 4369  18.519  13.691   9.490  0.1176 -0.0740  0.2126
  274loPI    C2 4370  18.852  13.476   9.542  0.1768 -0.0335  0.0072
  274loPI    C3 4371  18.849  13.866   9.632  0.1782 -0.0386  0.0297
  274loPI   PO4 4372  18.421  13.651   9.231 -0.4419 -0.2880 -0.1836
  274loPI   GL1 4373  18.546  13.764   8.875 -0.0224  0.0687 -0.2132
  274loPI   GL2 4374  18.242  13.947   8.883  0.1769  0.1555  0.1725
  274loPI   C1A 4375  18.428  13.569   8.390 -0.2830  0.0389  0.3242
  274loPI   C2A 4376  18.273  13.642   7.911  0.2035 -0.2266  0.1291
  274loPI   C3A 4377  17.991  13.514   7.624 -0.0975 -0.0330 -0.0502
  274loPI   C4A 4378  17.820  13.288   7.248 -0.3155 -0.0389  0.1458
  274loPI   C5A 4379  17.664  13.027   7.152  0.1955 -0.1459 -0.0090
  274loPI   C6A 4380  17.293  13.000   7.309  0.0127 -0.0444  0.4331
  274loPI   C1B 4381  18.269  14.078   8.421  0.0813  0.4911 -0.3220
  274loPI   C2B 4382  18.152  14.252   7.953 -0.1389  0.3422 -0.4424
  274loPI   C3B 4383  18.375  14.054   7.648 -0.3781 -0.1133 -0.3171
  274loPI   C4B 4384  18.626  14.286   7.327 -0.1635 -0.1621 -0.0135
  275loPI    C1 4385  11.799   6.319   9.930  0.2630 -0.0743  0.3172
  275loPI    C2 4386  11.743   6.396  10.318 -0.0333  0.0428  0.2542
  275loPI    C3 4387  11.506   6.567  10.045  0.1092 -0.1168  0.0276
  275loPI   PO4 4388  12.080   6.147   9.907  0.1550  0.1556  0.2047
  275loPI   GL1 4389  12.279   6.083   9.518  0.3235  0.4668  0.0813
  275loPI   GL2 4390  12.139   6.327   9.339 -0.1042 -0.0880  0.1476
  275loPI   C1A 4391  12.528   6.077   9.207 -0.3007  0.0791  0.2161
  275loPI   C2A 4392  12.772   5.966   8.914 -0.0840 -0.0569 -0.0068
  275loPI   C3A 4393  13.068   6.109   8.724  0.0254  0.2912  0.0139
  275loPI   C4A 4394  13.031   6.328   8.335 -0.1524  0.4602  0.1943
  275loPI   C5A 4395  13.001   6.188   7.850 -0.0248  0.2782  0.1628
  275loPI   C6A 4396  12.896   5.876   7.436 -0.0693 -0.1608 -0.0557
  275loPI   C1B 4397  12.219   6.491   8.892  0.1392  0.1251 -0.1846
  275loPI   C2B 4398  12.159   6.638   8.433 -0.0596  0.0866  0.1083
  275loPI   C3B 4399  12.031   6.446   7.978  0.2999 -0.0783 -0.3309
  275loPI   C4B 4400  11.940   6.494   7.588 -0.2041 -0.0070 -0.1110
  276loPI    C1 4401  15.934   5.529   9.851  0.4442  0.0284  0.0991
  276loPI    C2 4402  15.797   5.896   9.934  0.0780 -0.0478 -0.1446
  276loPI    C3 4403  15.954   5.671  10.225  0.0724  0.2040  0.0570
  276loPI   PO4 4404  16.073   5.606   9.569  0.2742 -0.2577 -0.1147
  276loPI   GL1 4405  16.356   5.884   9.292  0.2423 -0.0348  0.0111
  276loPI   GL2 4406  16.088   5.937   9.021 -0.1078 -0.0120  0.0356
  276loPI   C1A 4407  16.614   5.826   8.905  0.2847 -0.0705 -0.0930
  276loPI   C2A 4408  16.587   5.799   8.523 -0.1079  0.2242 -0.1320
  276loPI   C3A 4409  16.525   5.967   8.179 -0.4548 -0.2711 -0.0798
  276loPI   C4A 4410  16.674   6.012   7.775 -0.0455  0.0785 -0.1173
  276loPI   C5A 4411  16.868   5.785   7.466 -0.0680  0.1011 -0.1040
  276loPI   C6A 4412  17.231   5.585   7.359 -0.3510 -0.0800 -0.0240
  276loPI   C1B 4413  16.057   5.908   8.582 -0.0431  0.1746  0.1195
  276loPI   C2B 4414  16.152   5.661   8.224 -0.2726  0.0335  0.0860
  276loPI   C3B 4415  16.443   5.357   8.071 -0.2749 -0.0509 -0.0299
  276loPI   C4B 4416  16.788   5.557   7.918  0.2687 -0.2226  0.0509
  277loPI    C1 4417   1.170   5.255   9.929  0.0082 -0.1899 -0.3226
  277loPI    C2 4418   1.518   5.219  10.123 -0.1151 -0.1210 -0.0842
  277loPI    C3 4419   1.224   4.957  10.191 -0.2678  0.0838  0.0580
  277loPI   PO4 4420   1.234   5.328   9.699 -0.1030  0.2569 -0.2939
  277loPI   GL1 4421   1.455   5.204   9.425 -0.0395  0.1144 -0.2783
  277loPI   GL2 4422   1.461   4.810   9.273 -0.1345 -0.1208 -0.0910
  277loPI   C1A 4423   1.581   5.219   9.045 -0.1906 -0.0145  0.3557
  277loPI   C2A 4424   2.028   5.229   8.749  0.0822  0.1493 -0.0465
  277loPI   C3A 4425   2.026   5.130   8.323 -0.0486 -0.0919  0.1682
  277loPI   C4A 4426   1.788   4.899   7.963  0.1047  0.1735 -0.2513
  277loPI   C5A 4427   1.533   4.638   7.838 -0.2116 -0.2518 -0.0800
  277loPI   C6A 4428   1.224   4.306   7.737  0.0384  0.1038  0.2579
  277loPI   C1B 4429   1.675   4.716   9.080 -0.1733  0.0934  0.2029
  277loPI   C2B 4430   2.062   4.528   8.888 -0.1044 -0.0923  0.2237
  277loPI   C3B 4431   2.320   4.289   8.737  0.0682  0.2213  0.2300
  277loPI   C4B 4432   2.574   4.038   8.507 -0.1078 -0.1138 -0.1586
  278loPI    C1 4433  11.210  12.199   9.985 -0.0200 -0.0328 -0.1454
  278loPI    C2 4434  10.971  11.895  10.085 -0.1525  0.1263  0.0272
  278loPI    C3 4435  11.219  12.052  10.357  0.0640  0.0401 -0.1182
  278loPI   PO4 4436  11.366  12.123   9.757 -0.1045  0.1655 -0.5823
  278loPI   GL1 4437  11.538  12.029   9.445 -0.0987  0.0021  0.0536
  278loPI   GL2 4438  11.472  12.356   9.301  0.1054  0.1819 -0.0246
  278loPI   C1A 4439  11.477  11.752   9.150 -0.3606 -0.3901  0.1586
  278loPI   C2A 4440  11.673  11.430   8.998 -0.0402  0.0824  0.0201
  278loPI   C3A 4441  11.727  11.207   8.716 -0.1553 -0.1650  0.3310
  278loPI   C4A 4442  12.000  11.091   8.234  0.1859  0.1325  0.1925
  278loPI   C5A 4443  11.834  10.871   7.867 -0.0119  0.0674  0.0766
  278loPI   C6A 4444  11.607  10.750   7.534 -0.2091  0.0875  0.1428
  278loPI   C1B 4445  11.287  12.600   8.995 -0.0737  0.0437  0.0740
  278loPI   C2B 4446  11.331  12.626   8.510  0.0055 -0.0261  0.0622
  278loPI   C3B 4447  11.646  12.786   8.155  0.1176 -0.3496  0.1511
  278loPI   C4B 4448  11.591  12.606   7.725  0.0537  0.2639 -0.4298
  279loPI    C1 4449   9.743  18.378   9.537 -0.1152  0.0137  0.2300
  279loPI    C2 4450   9.953  18.135   9.300 -0.0453 -0.0141  0.3200
  279loPI    C3 4451   9.942  18.069   9.694 -0.1685  0.0265  0.3236
  279loPI   PO4 4452   9.439  18.356   9.355  0.0800  0.0479  0.1727
  279loPI   GL1 4453   9.537  18.423   8.973  0.3216 -0.0969 -0.1363
  279loPI   GL2 4454   9.863  18.613   9.014 -0.1054 -0.0906  0.1852
  279loPI   C1A 4455   9.424  18.659   8.562 -0.0185  0.0717  0.2524
  279loPI   C2A 4456   9.515  18.824   8.213  0.1457  0.0156 -0.4570
  279loPI   C3A 4457   9.399  18.677   7.912 -0.0357  0.2030  0.1600
  279loPI   C4A 4458   9.110  18.523   7.583  0.2424 -0.0580 -0.1944
  279loPI   C5A 4459   8.705  18.396   7.408  0.0585 -0.2018  0.1025
  279loPI   C6A 4460   8.551  18.656   7.003  0.0365  0.0431  0.2054
  279loPI   C1B 4461  10.048  18.774   8.601 -0.2576  0.3174  0.0064
  279loPI   C2B 4462  10.188  18.679   8.117 -0.2800 -0.1199  0.0864
  279loPI   C3B 4463  10.370  18.211   8.040  0.3680  0.4358 -0.3788
  279loPI   C4B 4464  10.435  17.797   7.932  0.2242 -0.1081  0.1886
  280loPI    C1 4465  17.676   5.928   9.807  0.1301  0.1593 -0.0819
  280loPI    C2 4466  17.988   6.163   9.891 -0.0288  0.3396  0.0118
  280loPI    C3 4467  17.743   6.043  10.184  0.0106  0.1137 -0.0459
  280loPI   PO4 4468  17.527   5.958   9.711  0.2741  0.1462  0.0320
  280loPI   GL1 4469  17.538   6.070   9.333 -0.1095 -0.0386  0.0795
  280loPI   GL2 4470  17.685   5.844   9.240 -0.0784  0.3639 -0.0954
  280loPI   C1A 4471  17.214   5.791   9.066 -0.0626 -0.0989 -0.0360
  280loPI   C2A 4472  17.135   5.832   8.515  0.4508  0.0157 -0.1606
  280loPI   C3A 4473  17.208   5.981   8.062  0.1461  0.3905  0.0004
  280loPI   C4A 4474  17.217   6.063   7.647 -0.3093 -0.0707 -0.0653
  280loPI   C5A 4475  17.005   6.294   7.369 -0.1448  0.2244  0.2623
  280loPI   C6A 4476  16.688   6.565   7.056  0.3346 -0.3337  0.1482
  280loPI   C1B 4477  18.138   5.792   9.047 -0.1221 -0.3224  0.3001
  280loPI   C2B 4478  18.238   6.054   8.733 -0.3085 -0.2588  0.0798
  280loPI   C3B 4479  18.450   6.171   8.312 -0.1048 -0.2774 -0.6322
  280loPI   C4B 4480  18.658   6.130   7.905  0.3961  0.2296  0.1578
  281loPI    C1 4481   2.661  17.898   9.175 -0.1503  0.1048 -0.2286
  281loPI    C2 4482   2.377  17.694   9.369 -0.0270  0.1918  0.0492
  281loPI    C3 4483   2.430  18.083   9.444  0.2973  0.1309  0.1503
  281loPI   PO4 4484   2.627  17.817   8.907 -0.2672  0.3491 -0.0039
  281loPI   GL1 4485   2.695  18.134   8.636  0.1943  0.1480 -0.1600
  281loPI   GL2 4486   2.383  18.038   8.480 -0.1383 -0.0818 -0.2545
  281loPI   C1A 4487   2.736  18.208   8.177  0.3130 -0.0131 -0.1176
  281loPI   C2A 4488   2.621  18.511   7.813 -0.2280 -0.5692 -0.2666
  281loPI   C3A 4489   2.695  18.946   7.617  0.0658 -0.2379 -0.0468
  281loPI   C4A 4490   2.585  19.187   7.249  0.2285 -0.0452  0.0892
  281loPI   C5A 4491   2.409  19.248   6.866  0.1897 -0.0447  0.2177
  281loPI   C6A 4492   2.084  19.251   6.549 -0.0416 -0.1919 -0.3794
  281loPI   C1B 4493   2.189  18.266   8.095 -0.1956 -0.0945  0.1376
  281loPI   C2B 4494   2.170  18.554   7.640 -0.1156  0.1064 -0.0062
  281loPI   C3B 4495   2.243  18.669   7.193 -0.0811 -0.2690  0.1824
  281loPI   C4B 4496   2.379  18.551   6.778  0.0599 -0.0438  0.1476
  282loPI    C1 4497   6.761  14.442   9.483  0.2228  0.2537 -0.2993
  282loPI    C2 4498   7.007  14.748   9.556 -0.0173  0.3337  0.2136
  282loPI    C3 4499   6.874  14.522   9.858  0.0272 -0.1818 -0.1405
  282loPI   PO4 4500   6.868  14.402   9.220  0.0796 -0.3132 -0.0188
  282loPI   GL1 4501   6.827  14.626   8.814  0.0774 -0.1205 -0.1000
  282loPI   GL2 4502   6.767  14.373   8.645  0.0442  0.6460 -0.0835
  282loPI   C1A 4503   7.049  14.677   8.399  0.1179 -0.1785  0.0335
  282loPI   C2A 4504   7.259  14.396   8.062  0.1085  0.0031  0.1906
  282loPI   C3A 4505   7.305  14.305   7.650  0.0193 -0.1174 -0.0383
  282loPI   C4A 4506   7.397  14.575   7.239 -0.3348  0.1558  0.0085
  282loPI   C5A 4507   7.334  14.467   6.770  0.3115 -0.1646 -0.1852
  282loPI   C6A 4508   7.337  14.372   6.309 -0.0085 -0.2358  0.2794
  282loPI   C1B 4509   6.653  14.152   8.222 -0.3137  0.0611  0.0773
  282loPI   C2B 4510   6.733  14.173   7.742 -0.4864 -0.1872 -0.1904
  282loPI   C3B 4511   6.928  14.473   7.407 -0.0206  0.0910  0.0548
  282loPI   C4B 4512   6.741  14.470   6.956  0.0059 -0.1522  0.1231
  283loPI    C1 4513  12.585   0.533   9.282  0.1338 -0.0134  0.0511
  283loPI    C2 4514  12.639   0.679   8.914 -0.3236 -0.0119 -0.0217
  283loPI    C3 4515  12.596   0.285   8.968  0.1689 -0.0576  0.0871
  283loPI   PO4 4516  12.455   0.617   9.366 -0.0643 -0.1078 -0.1310
  283loPI   GL1 4517  12.457   1.022   9.266 -0.3620  0.0074  0.0051
  283loPI   GL2 4518  12.706   1.161   9.103  0.3598  0.2342 -0.2426
  283loPI   C1A 4519  12.106   1.321   9.074 -0.1276 -0.2318  0.0075
  283loPI   C2A 4520  12.035   1.526   8.719  0.2867  0.2027  0.0903
  283loPI   C3A 4521  11.980   1.469   8.321  0.0659 -0.0974  0.2430
  283loPI   C4A 4522  11.755   1.472   7.954  0.2991  0.1780  0.0550
  283loPI   C5A 4523  11.376   1.417   7.866  0.2519 -0.2120  0.2767
  283loPI   C6A 4524  11.063   1.440   7.605 -0.4679 -0.0324  0.2444
  283loPI   C1B 4525  12.803   1.133   8.655  0.0704  0.0852 -0.1168
  283loPI   C2B 4526  12.776   0.895   8.376  0.0725 -0.2224 -0.1418
  283loPI   C3B 4527  12.765   0.664   7.978  0.0220 -0.1415  0.0738
  283loPI   C4B 4528  12.882   0.507   7.569 -0.2737 -0.0065  0.1016
  284loPI    C1 4529   6.251   8.079  10.034 -0.0144  0.0018  0.0931
  284loPI    C2 4530   5.860   8.026  10.101 -0.0609  0.0369 -0.1414
  284loPI    C3 4531   6.078   8.249  10.352 -0.1764 -0.0374  0.0269
  284loPI   PO4 4532   6.295   8.050   9.759  0.0176  0.2429  0.2140
  284loPI   GL1 4533   6.444   7.940   9.428  0.0603  0.0252  0.1399
  284loPI   GL2 4534   6.785   8.002   9.394 -0.0374  0.0476  0.0003
  284loPI   C1A 4535   6.501   7.865   9.014  0.1646  0.0639 -0.1684
  284loPI   C2A 4536   6.521   7.902   8.471 -0.0008 -0.0408 -0.0066
  284loPI   C3A 4537   6.420   7.802   8.049  0.1000  0.1218  0.0429
  284loPI   C4A 4538   6.373   7.591   7.714  0.2168 -0.1032 -0.1079
  284loPI   C5A 4539   6.580   7.367   7.386  0.0768  0.1264 -0.2119
  284loPI   C6A 4540   6.854   7.344   7.068 -0.1585 -0.0256 -0.0007
  284loPI   C1B 4541   7.033   8.123   9.056  0.0774  0.2890  0.0621
  284loPI   C2B 4542   7.058   8.456   8.771 -0.2023  0.1525  0.2653
  284loPI   C3B 4543   7.254   8.428   8.330  0.1907 -0.0964 -0.1314
  284loPI   C4B 4544   7.487   8.141   8.332 -0.0165 -0.0304 -0.2797
  285loPI    C1 4545  18.523  18.331   9.985 -0.0320  0.1165 -0.0319
  285loPI    C2 4546  18.332  18.637  10.157 -0.0088  0.1169 -0.0065
  285loPI    C3 4547  18.500  18.354  10.384  0.1234  0.1787 -0.0258
  285loPI   PO4 4548  18.341  18.381   9.735 -0.0188 -0.0911  0.1803
  285loPI   GL1 4549  18.494  18.204   9.281 -0.0528 -0.2328  0.2188
  285loPI   GL2 4550  18.209  18.142   9.282 -0.1001  0.1459  0.0968
  285loPI   C1A 4551  18.649  18.085   8.919 -0.3339  0.2140 -0.1020
  285loPI   C2A 4552  18.816  17.660   8.805  0.2272 -0.1984  0.4587
  285loPI   C3A 4553  18.850  17.302   8.573  0.0384 -0.2692  0.0742
  285loPI   C4A 4554  19.031  17.053   8.221 -0.2120 -0.2486 -0.0175
  285loPI   C5A 4555  19.186  16.937   7.844 -0.2678 -0.0766 -0.1898
  285loPI   C6A 4556  19.409  17.081   7.463 -0.2253 -0.1251  0.2349
  285loPI   C1B 4557  18.210  18.469   8.939 -0.3408 -0.1480 -0.0576
  285loPI   C2B 4558  18.090  18.747   8.587  0.2861  0.2039  0.0785
  285loPI   C3B 4559  17.983  18.831   8.236  0.0591  0.1857 -0.0338
  285loPI   C4B 4560  17.604  18.915   8.076 -0.0459 -0.2108 -0.1027
  286loPI    C1 4561   2.097   7.445  10.162 -0.0541 -0.0186 -0.3826
  286loPI    C2 4562   2.158   7.054  10.221 -0.0498  0.0308 -0.0390
  286loPI    C3 4563   2.222   7.314  10.519  0.2120  0.3257 -0.3433
  286loPI   PO4 4564   2.241   7.546  10.014 -0.0521  0.0247  0.1677
  286loPI   GL1 4565   2.424   7.506   9.502  0.1132 -0.2441 -0.3724
  286loPI   GL2 4566   2.591   7.256   9.389  0.1397 -0.1159  0.0829
  286loPI   C1A 4567   2.118   7.425   9.185 -0.1763  0.5634 -0.0628
  286loPI   C2A 4568   2.114   7.420   8.737  0.0571  0.0759 -0.0865
  286loPI   C3A 4569   2.450   7.714   8.500  0.0793 -0.2328  0.1012
  286loPI   C4A 4570   2.364   7.852   8.093 -0.3061  0.0605 -0.1414
  286loPI   C5A 4571   2.402   7.870   7.640 -0.1695  0.0561 -0.1809
  286loPI   C6A 4572   2.705   7.750   7.414 -0.0201  0.2098 -0.1780
  286loPI   C1B 4573   2.650   7.427   8.994  0.0329 -0.0625  0.0023
  286loPI   C2B 4574   2.909   7.649   8.744  0.0031 -0.0032  0.0897
  286loPI   C3B 4575   2.949   7.780   8.211 -0.0846  0.2453 -0.0444
  286loPI   C4B 4576   2.989   7.962   7.810 -0.1148  0.0949 -0.1463
  287loPI    C1 4577   3.670   0.295   9.162 -0.0435 -0.0795 -0.0654
  287loPI    C2 4578   3.499   0.506   8.868  0.2123  0.1719 -0.0384
  287loPI    C3 4579   3.376   0.553   9.246 -0.0247 -0.0515 -0.0852
  287loPI   PO4 4580   3.903   0.335   9.142  0.1701 -0.0907  0.0190
  287loPI   GL1 4581   4.215   0.334   8.857 -0.3020  0.0799 -0.1935
  287loPI   GL2 4582   4.257   0.281   8.431  0.0080  0.2047 -0.1123
  287loPI   C1A 4583   4.010   0.625   8.628  0.1251 -0.1240  0.0896
  287loPI   C2A 4584   3.763   0.829   8.312  0.0263 -0.0007  0.1497
  287loPI   C3A 4585   3.709   1.085   8.084  0.0437 -0.1169  0.2966
  287loPI   C4A 4586   3.622   1.590   7.966 -0.0537  0.2062  0.0006
  287loPI   C5A 4587   3.419   1.783   7.664  0.1035 -0.0956  0.0483
  287loPI   C6A 4588   3.454   1.815   7.158  0.1478 -0.1869  0.1454
  287loPI   C1B 4589   4.139   0.543   8.064 -0.2344 -0.1579  0.1311
  287loPI   C2B 4590   3.980   0.804   7.685  0.0708 -0.2129 -0.0558
  287loPI   C3B 4591   3.717   1.067   7.573  0.0647 -0.1143  0.2074
  287loPI   C4B 4592   3.426   1.264   7.632 -0.1966 -0.4733 -0.0086
  288loPI    C1 4593  15.149   2.985   9.535  0.0707 -0.1053  0.0657
  288loPI    C2 4594  15.354   2.870   9.859  0.2107  0.1699  0.0777
  288loPI    C3 4595  14.997   3.047   9.900  0.0136 -0.2131  0.0607
  288loPI   PO4 4596  15.294   3.165   9.416 -0.1450 -0.0095  0.1006
  288loPI   GL1 4597  15.494   3.243   8.979 -0.1676  0.1136  0.0191
  288loPI   GL2 4598  15.523   3.267   8.534 -0.3628  0.0327  0.0714
  288loPI   C1A 4599  15.588   3.658   8.776  0.2482 -0.0743  0.1125
  288loPI   C2A 4600  15.514   3.756   8.346  0.1189 -0.3397 -0.1665
  288loPI   C3A 4601  15.360   3.931   8.059 -0.1120  0.1330 -0.0851
  288loPI   C4A 4602  15.228   3.935   7.638  0.0878 -0.2732 -0.3954
  288loPI   C5A 4603  15.504   4.140   7.332  0.1522 -0.2076  0.1313
  288loPI   C6A 4604  15.697   4.456   7.136 -0.1660  0.0497  0.3882
  288loPI   C1B 4605  15.487   3.204   8.038 -0.1279  0.3964 -0.2551
  288loPI   C2B 4606  15.597   3.237   7.658  0.0970  0.3079 -0.1357
  288loPI   C3B 4607  15.674   3.606   7.405  0.0996 -0.1406 -0.0582
  288loPI   C4B 4608  15.994   3.845   7.156 -0.1755 -0.1929  0.2816
  289loPI    C1 4609   8.578  17.679   9.751  0.1507  0.0126  0.1819
  289loPI    C2 4610   8.781  17.398   9.951  0.0327 -0.1318  0.1010
  289loPI    C3 4611   8.623  17.709  10.147 -0.0644 -0.2615  0.2302
  289loPI   PO4 4612   8.683  17.684   9.555  0.3053  0.1603 -0.1103
  289loPI   GL1 4613   8.890  17.494   9.312  0.0514 -0.4816  0.1184
  289loPI   GL2 4614   8.464  17.558   9.137 -0.1977 -0.1619  0.1719
  289loPI   C1A 4615   8.898  17.459   8.915  0.0758  0.1516  0.0942
  289loPI   C2A 4616   9.079  17.531   8.473  0.1796  0.3945 -0.2175
  289loPI   C3A 4617   9.160  17.859   8.244 -0.1241 -0.0290 -0.2081
  289loPI   C4A 4618   9.340  18.202   8.035 -0.2510  0.0107 -0.4511
  289loPI   C5A 4619   9.546  18.275   7.641  0.0345  0.2801  0.4898
  289loPI   C6A 4620   9.479  18.083   7.277 -0.2376  0.1122 -0.3154
  289loPI   C1B 4621   8.451  17.495   8.653  0.0535  0.0751  0.2723
  289loPI   C2B 4622   8.612  17.460   8.196 -0.2988  0.1003  0.1668
  289loPI   C3B 4623   8.760  17.631   7.749 -0.2112 -0.0626  0.1337
  289loPI   C4B 4624   8.690  17.702   7.198  0.0504  0.1723 -0.0557
  290loPI    C1 4625   5.081  12.551   9.314  0.0207 -0.1382  0.1353
  290loPI    C2 4626   4.798  12.735   9.529  0.0823  0.0403  0.0650
  290loPI    C3 4627   5.162  12.681   9.684  0.0469 -0.0770  0.1081
  290loPI   PO4 4628   5.118  12.677   9.073 -0.1708 -0.0431  0.0569
  290loPI   GL1 4629   5.424  12.926   8.884 -0.0317  0.0630  0.2056
  290loPI   GL2 4630   5.162  13.013   8.673 -0.2483  0.0084  0.0042
  290loPI   C1A 4631   5.609  13.066   8.484  0.3054  0.2789 -0.0685
  290loPI   C2A 4632   5.834  13.314   8.068 -0.1466  0.3566 -0.1825
  290loPI   C3A 4633   5.689  13.475   7.657 -0.1100  0.2044 -0.4397
  290loPI   C4A 4634   5.811  13.638   7.331 -0.0382  0.0082 -0.0385
  290loPI   C5A 4635   5.668  13.638   6.936  0.1653  0.0040  0.3501
  290loPI   C6A 4636   5.488  13.174   6.897 -0.1520  0.1853  0.2113
  290loPI   C1B 4637   5.157  13.281   8.360 -0.2866 -0.0747  0.1698
  290loPI   C2B 4638   5.342  13.297   7.991  0.3384  0.0552  0.0882
  290loPI   C3B 4639   5.621  12.934   7.790  0.1649 -0.1443 -0.1555
  290loPI   C4B 4640   5.523  12.388   7.623 -0.2618  0.0139 -0.1183
  291loPI    C1 4641   9.359   5.904   9.753 -0.0752 -0.0743  0.1089
  291loPI    C2 4642   9.558   6.224   9.619  0.0375 -0.1020  0.2088
  291loPI    C3 4643   9.183   6.263   9.752 -0.0719 -0.0724 -0.1028
  291loPI   PO4 4644   9.423   5.720   9.579 -0.0359 -0.0176  0.0751
  291loPI   GL1 4645   9.729   5.717   9.390 -0.3169  0.1864  0.1942
  291loPI   GL2 4646  10.070   5.526   9.358 -0.0192 -0.0235 -0.0451
  291loPI   C1A 4647   9.582   5.355   9.033 -0.0735  0.0658  0.0955
  291loPI   C2A 4648   9.563   5.081   8.653 -0.2664 -0.1948 -0.0030
  291loPI   C3A 4649   9.479   4.921   8.242 -0.0018 -0.4588  0.4406
  291loPI   C4A 4650   9.349   4.683   7.893 -0.1060 -0.0416 -0.3179
  291loPI   C5A 4651   9.437   4.235   7.723 -0.1403 -0.3383 -0.1849
  291loPI   C6A 4652   9.780   3.971   7.420  0.6278  0.2159  0.2822
  291loPI   C1B 4653  10.095   5.177   9.001  0.1346  0.2581  0.2719
  291loPI   C2B 4654  10.136   5.066   8.557 -0.0869 -0.4102  0.1669
  291loPI   C3B 4655  10.216   4.966   8.125 -0.1721 -0.3680  0.2026
  291loPI   C4B 4656  10.238   5.053   7.661  0.1464 -0.3403  0.4379
  292loPI    C1 4657  12.429  16.258   9.826 -0.2624 -0.2362 -0.1555
  292loPI    C2 4658  12.220  16.589   9.744 -0.0503 -0.0423  0.0705
  292loPI    C3 4659  12.269  16.473  10.123  0.2634 -0.0751  0.0226
  292loPI   PO4 4660  12.335  16.005   9.575 -0.1637  0.1147 -0.1877
  292loPI   GL1 4661  12.667  15.942   9.256 -0.2385  0.0259  0.1731
  292loPI   GL2 4662  12.833  16.164   9.094 -0.3159  0.3328 -0.3053
  292loPI   C1A 4663  12.831  15.724   8.880 -0.2484  0.0242  0.1858
  292loPI   C2A 4664  12.768  15.394   8.525  0.1133  0.1666 -0.1201
  292loPI   C3A 4665  12.303  15.234   8.335  0.0711 -0.1586 -0.0424
  292loPI   C4A 4666  12.221  15.006   7.920 -0.1096  0.0757 -0.2378
  292loPI   C5A 4667  12.162  14.994   7.538  0.3118 -0.1243 -0.0818
  292loPI   C6A 4668  11.968  15.159   7.081  0.5044 -0.3732 -0.0331
  292loPI   C1B 4669  12.604  16.178   8.682 -0.3544 -0.4764 -0.1366
  292loPI   C2B 4670  12.535  16.324   8.250  0.0822  0.0027 -0.0113
  292loPI   C3B 4671  12.207  16.290   7.849  0.1225  0.0279  0.1368
  292loPI   C4B 4672  11.954  16.104   7.590 -0.1922  0.0499 -0.5079
  293loPI    C1 4673   9.458  15.012   9.555 -0.0678  0.1585  0.0171
  293loPI    C2 4674   9.689  15.129   9.860 -0.0287  0.0193  0.0415
  293loPI    C3 4675   9.471  14.795   9.891 -0.0849  0.0468 -0.0539
  293loPI   PO4 4676   9.494  15.317   9.476 -0.2800  0.4645  0.2513
  293loPI   GL1 4677   9.525  15.444   9.012 -0.2186 -0.1766 -0.1397
  293loPI   GL2 4678   9.207  15.252   8.976 -0.1032  0.1044 -0.1239
  293loPI   C1A 4679   9.800  15.538   8.666 -0.2787 -0.0379 -0.1650
  293loPI   C2A 4680   9.793  15.518   8.226  0.0901 -0.2862 -0.0746
  293loPI   C3A 4681   9.982  15.252   7.965 -0.0408  0.1024  0.1436
  293loPI   C4A 4682   9.910  14.921   7.780 -0.2812  0.0038 -0.0314
  293loPI   C5A 4683   9.952  14.508   7.561 -0.0187 -0.1418  0.0583
  293loPI   C6A 4684  10.139  14.458   7.143 -0.0608 -0.0644  0.0649
  293loPI   C1B 4685   8.958  15.221   8.648 -0.0019 -0.4044  0.1209
  293loPI   C2B 4686   9.054  15.107   8.261  0.1001 -0.1093 -0.1150
  293loPI   C3B 4687   9.020  15.006   7.809  0.0299  0.1063 -0.0110
  293loPI   C4B 4688   8.954  14.825   7.475  0.1830  0.1446  0.2216
  294loPI    C1 4689   9.056   9.669   9.783  0.0500  0.1431 -0.1500
  294loPI    C2 4690   9.109  10.015   9.975 -0.0908  0.0922 -0.0169
  294loPI    C3 4691   9.269   9.679  10.121  0.0316  0.0972 -0.1370
  294loPI   PO4 4692   9.128   9.689   9.483 -0.0317 -0.4082 -0.2805
  294loPI   GL1 4693   8.934   9.601   9.156 -0.0683  0.0049  0.0317
  294loPI   GL2 4694   8.639   9.476   9.320  0.1494 -0.6272 -0.0192
  294loPI   C1A 4695   9.185   9.549   8.774 -0.0394  0.2833 -0.1958
  294loPI   C2A 4696   9.164   9.656   8.361  0.0074  0.2916  0.0525
  294loPI   C3A 4697   9.376   9.921   8.084 -0.2301 -0.2122  0.0687
  294loPI   C4A 4698   9.505  10.217   7.786 -0.2391  0.0606  0.3322
  294loPI   C5A 4699   9.619  10.475   7.446  0.0539 -0.1867 -0.1224
  294loPI   C6A 4700   9.767  10.935   7.556  0.0442 -0.0306 -0.2527
  294loPI   C1B 4701   8.505   9.511   8.858 -0.1159 -0.1072 -0.0349
  294loPI   C2B 4702   8.683   9.408   8.535 -0.2161 -0.1773  0.0087
  294loPI   C3B 4703   8.593   9.199   8.301 -0.2267 -0.1762 -0.3577
  294loPI   C4B 4704   8.451   8.896   7.989 -0.1692  0.1883  0.1396
  295loPI    C1 4705   3.950  13.721   9.150 -0.0894  0.3829  0.0103
  295loPI    C2 4706   4.101  13.757   9.518 -0.0311 -0.0042  0.0293
  295loPI    C3 4707   3.719  13.648   9.468 -0.0457  0.0711 -0.0256
  295loPI   PO4 4708   4.144  13.525   9.017 -0.2317 -0.2404  0.1459
  295loPI   GL1 4709   4.038  13.258   8.722  0.0117  0.0457 -0.2336
  295loPI   GL2 4710   3.871  12.963   8.613 -0.2567  0.0067 -0.1827
  295loPI   C1A 4711   4.242  13.036   8.306  0.0597 -0.1197  0.1228
  295loPI   C2A 4712   4.381  12.940   7.924  0.0134 -0.2431 -0.2335
  295loPI   C3A 4713   4.118  12.879   7.490  0.1528 -0.1852  0.2466
  295loPI   C4A 4714   3.777  12.962   7.346 -0.0248  0.1237 -0.1140
  295loPI   C5A 4715   3.541  13.259   7.007 -0.0728  0.4274  0.0103
  295loPI   C6A 4716   3.642  13.690   6.766 -0.2038  0.1125  0.0867
  295loPI   C1B 4717   3.679  13.125   8.330 -0.1939  0.1676  0.0023
  295loPI   C2B 4718   3.913  13.093   7.886 -0.0181 -0.2285  0.1947
  295loPI   C3B 4719   4.092  13.327   7.622  0.0765  0.0562  0.1651
  295loPI   C4B 4720   4.372  13.347   7.376 -0.1544 -0.1792 -0.1042
  296loPI    C1 4721   5.501   3.478   9.654  0.0416 -0.1391  0.0720
  296loPI    C2 4722   5.252   3.780   9.571 -0.0292 -0.2095  0.0273
  296loPI    C3 4723   5.204   3.569   9.907  0.0843 -0.1047  0.1101
  296loPI   PO4 4724   5.518   3.394   9.323 -0.1054  0.0763 -0.2570
  296loPI   GL1 4725   5.498   3.440   8.958  0.4053  0.0789 -0.1603
  296loPI   GL2 4726   5.134   3.530   9.059  0.2246 -0.0781 -0.0160
  296loPI   C1A 4727   5.553   3.113   8.652 -0.1032 -0.1986 -0.1318
  296loPI   C2A 4728   5.641   3.027   8.218 -0.0258 -0.2619  0.0100
  296loPI   C3A 4729   5.572   2.965   7.813 -0.0986  0.0343  0.1220
  296loPI   C4A 4730   5.711   3.124   7.408 -0.2356 -0.3809 -0.2790
  296loPI   C5A 4731   5.684   3.077   6.973  0.1727 -0.1669 -0.2655
  296loPI   C6A 4732   5.655   3.059   6.620 -0.1025  0.1212 -0.6511
  296loPI   C1B 4733   5.098   3.431   8.519  0.2199 -0.2012  0.2493
  296loPI   C2B 4734   5.086   3.015   8.324  0.2223  0.4470 -0.2225
  296loPI   C3B 4735   5.131   2.774   8.032  0.0421 -0.0381 -0.1166
  296loPI   C4B 4736   5.266   2.506   7.710 -0.2384  0.0606  0.1792
  297loPI    C1 4737  10.234  19.399   9.778  0.1675 -0.3674  0.0460
  297loPI    C2 4738   9.922  19.408  10.028 -0.0203  0.0825 -0.1934
  297loPI    C3 4739  10.244  19.634  10.102  0.0805 -0.0684 -0.1649
  297loPI   PO4 4740  10.170  19.469   9.525  0.0254  0.2145 -0.1760
  297loPI   GL1 4741  10.394  19.574   9.230 -0.0447 -0.0078  0.0071
  297loPI   GL2 4742  10.645  19.365   9.089  0.2221 -0.0458 -0.0871
  297loPI   C1A 4743  10.419  19.807   8.892 -0.0875 -0.0562 -0.0413
  297loPI   C2A 4744  10.124  19.956   8.584 -0.0960 -0.0731  0.1349
  297loPI   C3A 4745  10.196  20.126   8.204 -0.1436 -0.1156 -0.2438
  297loPI   C4A 4746  10.397  20.125   7.815 -0.2497 -0.2475  0.0712
  297loPI   C5A 4747  10.275  20.181   7.458 -0.1490  0.1406  0.1092
  297loPI   C6A 4748  10.270  20.505   7.178  0.1385 -0.3295 -0.0044
  297loPI   C1B 4749  10.713  19.483   8.596 -0.0846  0.5058 -0.2184
  297loPI   C2B 4750  10.590  19.878   8.462  0.0537 -0.2385  0.1994
  297loPI   C3B 4751  10.916  20.237   8.273 -0.0393  0.0274 -0.1726
  297loPI   C4B 4752  11.211  20.149   8.036  0.1183 -0.2225  0.1267
  298loPI    C1 4753  17.458   6.445   9.949 -0.3017  0.1661 -0.1433
  298loPI    C2 4754  17.501   6.652  10.289 -0.0973 -0.0294 -0.0469
  298loPI    C3 4755  17.813   6.605  10.043 -0.2486  0.1254 -0.2723
  298loPI   PO4 4756  17.232   6.446   9.827  0.0049 -0.1412 -0.1492
  298loPI   GL1 4757  17.230   6.554   9.340 -0.1543  0.0239  0.3369
  298loPI   GL2 4758  17.336   6.880   9.225  0.0166  0.1162 -0.0335
  298loPI   C1A 4759  17.527   6.450   9.005  0.1618  0.1413  0.1016
  298loPI   C2A 4760  17.747   6.110   8.772 -0.2928 -0.1640  0.0275
  298loPI   C3A 4761  17.902   5.943   8.426 -0.0196 -0.0979  0.2331
  298loPI   C4A 4762  17.819   6.153   7.920 -0.1864  0.0336 -0.3062
  298loPI   C5A 4763  17.842   6.430   7.599  0.1519  0.1328  0.1396
  298loPI   C6A 4764  17.583   6.437   7.291 -0.2179 -0.0170  0.0603
  298loPI   C1B 4765  17.211   6.853   8.851 -0.0942 -0.1349  0.3584
  298loPI   C2B 4766  17.129   6.912   8.402 -0.2931  0.3488  0.1894
  298loPI   C3B 4767  17.135   6.945   7.936 -0.3755  0.1808 -0.1579
  298loPI   C4B 4768  16.817   7.168   7.649 -0.2256  0.1079 -0.0087
  299loPI    C1 4769  14.128   0.463   9.225  0.1319 -0.1008  0.0095
  299loPI    C2 4770  14.258   0.370   9.592  0.2665  0.0142 -0.0081
  299loPI    C3 4771  14.345   0.727   9.434  0.2070 -0.0338 -0.1512
  299loPI   PO4 4772  13.934   0.216   9.169 -0.1853 -0.1610 -0.1811
  299loPI   GL1 4773  13.868   0.045   8.919 -0.2936 -0.1199 -0.1198
  299loPI   GL2 4774  13.763  -0.200   8.754 -0.2064 -0.2818 -0.0009
  299loPI   C1A 4775  14.123   0.094   8.451 -0.1969 -0.1302 -0.2500
  299loPI   C2A 4776  14.252   0.219   8.078 -0.1630 -0.2797 -0.3381
  299loPI   C3A 4777  14.650   0.328   8.122  0.1287  0.2172 -0.2803
  299loPI   C4A 4778  14.828   0.469   8.521 -0.1733  0.1689  0.1785
  299loPI   C5A 4779  15.206   0.360   8.692  0.2339 -0.2515  0.4800
  299loPI   C6A 4780  15.678   0.162   8.650 -0.0997  0.1933 -0.0837
  299loPI   C1B 4781  13.868  -0.311   8.317  0.0753  0.0398  0.2062
  299loPI   C2B 4782  13.921  -0.467   7.934 -0.0992  0.1274 -0.2600
  299loPI   C3B 4783  13.739  -0.562   7.560 -0.0955 -0.0325  0.2158
  299loPI   C4B 4784  13.939  -0.877   7.308  0.0325  0.0435 -0.0894
  300loPI    C1 4785  12.866  12.829   9.806  0.0428 -0.0352 -0.0776
  300loPI    C2 4786  12.654  12.517   9.674  0.2539 -0.3283  0.2598
  300loPI    C3 4787  12.564  12.686  10.025  0.1289  0.0076  0.0706
  300loPI   PO4 4788  12.847  12.988   9.602 -0.1597 -0.0058  0.0734
  300loPI   GL1 4789  12.960  13.214   9.218 -0.0451  0.2971  0.1102
  300loPI   GL2 4790  13.295  13.135   9.215  0.1796  0.3744  0.0216
  300loPI   C1A 4791  12.872  13.435   8.780 -0.2727  0.2837 -0.3027
  300loPI   C2A 4792  12.785  13.399   8.267  0.0336  0.0106 -0.0198
  300loPI   C3A 4793  12.851  13.493   7.857  0.3787  0.2494  0.1778
  300loPI   C4A 4794  12.770  13.161   7.550 -0.2328  0.0330 -0.1713
  300loPI   C5A 4795  12.609  12.761   7.522 -0.0009  0.2899  0.0238
  300loPI   C6A 4796  12.417  12.406   7.355 -0.2168 -0.5051  0.1059
  300loPI   C1B 4797  13.282  13.099   8.800 -0.2631 -0.0691 -0.1842
  300loPI   C2B 4798  13.300  12.979   8.381  0.3534  0.1261  0.1295
  300loPI   C3B 4799  13.496  12.927   7.962  0.3046  0.3468 -0.2164
  300loPI   C4B 4800  13.657  12.850   7.654 -0.1755  0.0544  0.2845
  301loPI    C1 4801  15.972   2.164   9.886 -0.0062  0.1130  0.0966
  301loPI    C2 4802  15.632   2.107   9.683  0.0270  0.2646 -0.0030
  301loPI    C3 4803  15.698   2.455   9.869  0.0818  0.1969  0.1053
  301loPI   PO4 4804  16.176   2.079   9.714  0.0143  0.0717 -0.1376
  301loPI   GL1 4805  16.219   1.962   9.269  0.0382 -0.3153  0.1002
  301loPI   GL2 4806  16.017   2.309   9.277  0.0976 -0.2406 -0.0550
  301loPI   C1A 4807  16.264   1.630   8.948 -0.1325 -0.4316  0.2676
  301loPI   C2A 4808  16.149   1.176   8.940  0.2438 -0.0358  0.1139
  301loPI   C3A 4809  16.027   0.792   8.881 -0.1601  0.0319 -0.2491
  301loPI   C4A 4810  16.129   0.503   8.489  0.0028 -0.3286 -0.0377
  301loPI   C5A 4811  15.785   0.338   8.171  0.3739 -0.2152 -0.0048
  301loPI   C6A 4812  15.533   0.021   7.838 -0.0393  0.1602  0.0096
  301loPI   C1B 4813  15.944   2.064   8.864  0.2563 -0.1779  0.0863
  301loPI   C2B 4814  16.020   1.962   8.465  0.0322  0.1885  0.0254
  301loPI   C3B 4815  15.884   2.077   8.058  0.0223 -0.1057 -0.0142
  301loPI   C4B 4816  15.659   2.130   7.615 -0.0235 -0.2065  0.2004
  302loPI    C1 4817   7.795  16.098   9.334 -0.1863  0.0471  0.2500
  302loPI    C2 4818   8.194  16.134   9.338 -0.1637 -0.1917  0.2683
  302loPI    C3 4819   7.967  16.412   9.513 -0.0032 -0.0804  0.3015
  302loPI   PO4 4820   7.831  15.800   9.385 -0.0317  0.0934 -0.0299
  302loPI   GL1 4821   7.711  15.531   9.141  0.2303 -0.0136 -0.2123
  302loPI   GL2 4822   7.992  15.596   8.962 -0.5702 -0.0572 -0.0083
  302loPI   C1A 4823   7.372  15.685   8.897 -0.0037 -0.1666 -0.4892
  302loPI   C2A 4824   7.327  15.707   8.542 -0.1834  0.0484 -0.2646
  302loPI   C3A 4825   7.351  16.009   8.270  0.3983 -0.0403 -0.1417
  302loPI   C4A 4826   7.090  16.136   7.913 -0.0882 -0.0499  0.2418
  302loPI   C5A 4827   7.171  16.184   7.563 -0.2064  0.0481 -0.1214
  302loPI   C6A 4828   7.086  16.414   7.240 -0.1241 -0.2569  0.1416
  302loPI   C1B 4829   8.159  15.574   8.578  0.2854  0.3009  0.0853
  302loPI   C2B 4830   8.145  15.513   8.096  0.1379 -0.2646 -0.0637
  302loPI   C3B 4831   8.031  15.650   7.581  0.2646 -0.3526 -0.0260
  302loPI   C4B 4832   7.753  15.550   7.223  0.2638  0.3197 -0.1359
  303loPI    C1 4833   6.498   4.919   9.577  0.2545 -0.2031  0.0639
  303loPI    C2 4834   6.510   4.626   9.849 -0.1211 -0.1984  0.0904
  303loPI    C3 4835   6.489   5.007   9.967 -0.1384 -0.1886  0.0559
  303loPI   PO4 4836   6.748   4.874   9.395 -0.0197 -0.1332  0.0449
  303loPI   GL1 4837   7.158   4.967   9.219 -0.0276  0.2067 -0.2419
  303loPI   GL2 4838   7.105   5.334   9.129  0.1988 -0.0207 -0.0484
  303loPI   C1A 4839   7.042   4.806   8.819  0.1577  0.3810  0.0349
  303loPI   C2A 4840   7.225   4.506   8.451  0.1114  0.0798  0.0348
  303loPI   C3A 4841   7.502   4.448   8.217  0.2761 -0.1947 -0.1160
  303loPI   C4A 4842   7.665   4.206   7.802  0.1084  0.0089  0.0791
  303loPI   C5A 4843   7.657   4.198   7.351  0.0302 -0.4589  0.0417
  303loPI   C6A 4844   7.501   4.018   7.017  0.3157  0.2701  0.2886
  303loPI   C1B 4845   7.247   5.325   8.713 -0.1664  0.0721  0.1054
  303loPI   C2B 4846   7.301   5.420   8.380 -0.1481  0.1301 -0.1706
  303loPI   C3B 4847   7.185   5.500   7.967  0.4077 -0.1132  0.3840
  303loPI   C4B 4848   7.015   5.532   7.566  0.1456  0.0990 -0.2624
  304loPI    C1 4849  16.457  13.640   9.709 -0.0750  0.1664  0.0306
  304loPI    C2 4850  16.215  13.322   9.703 -0.0669  0.1627 -0.2095
  304loPI    C3 4851  16.271  13.525  10.043  0.1397 -0.2530  0.0122
  304loPI   PO4 4852  16.630  13.542   9.517 -0.1821  0.1492  0.1583
  304loPI   GL1 4853  16.411  13.355   9.238  0.1742  0.1283 -0.1438
  304loPI   GL2 4854  16.323  13.699   9.086  0.2830 -0.1129 -0.2231
  304loPI   C1A 4855  16.632  13.177   8.973 -0.1166  0.1259  0.2895
  304loPI   C2A 4856  16.832  12.916   8.619  0.2418  0.0032  0.0509
  304loPI   C3A 4857  16.846  12.624   8.227 -0.0541  0.2154  0.2604
  304loPI   C4A 4858  16.680  12.391   7.867 -0.0010  0.0725  0.0123
  304loPI   C5A 4859  16.841  12.104   7.585 -0.1385  0.3639 -0.1812
  304loPI   C6A 4860  16.709  11.663   7.586  0.2485 -0.1158 -0.4423
  304loPI   C1B 4861  16.241  13.367   8.760 -0.0889  0.0002  0.2228
  304loPI   C2B 4862  16.419  13.083   8.441  0.1728  0.1008 -0.0077
  304loPI   C3B 4863  16.694  13.171   8.055 -0.2034  0.0103  0.0693
  304loPI   C4B 4864  16.526  13.316   7.590 -0.2542 -0.0982  0.3953
  305loPI    C1 4865  16.198  18.687   9.922 -0.0279  0.0447  0.0165
  305loPI    C2 4866  16.510  18.731  10.169 -0.0815  0.1930  0.0586
  305loPI    C3 4867  16.187  18.529  10.290  0.1823 -0.3723 -0.1502
  305loPI   PO4 4868  16.263  18.558   9.674  0.0341 -0.3076  0.2076
  305loPI   GL1 4869  16.078  18.528   9.336 -0.0496  0.2380 -0.1096
  305loPI   GL2 4870  15.935  18.634   9.154 -0.1841 -0.1364 -0.0430
  305loPI   C1A 4871  16.012  18.165   9.011 -0.0631  0.1386  0.0456
  305loPI   C2A 4872  16.185  17.921   8.706  0.1150  0.0148  0.2173
  305loPI   C3A 4873  16.214  17.895   8.357 -0.0001  0.4636  0.2702
  305loPI   C4A 4874  16.267  17.952   7.868  0.2865  0.0134 -0.2421
  305loPI   C5A 4875  16.146  18.061   7.446  0.1287  0.2530 -0.1311
  305loPI   C6A 4876  15.821  18.259   7.218  0.2307  0.0441 -0.1946
  305loPI   C1B 4877  15.808  18.776   8.711  0.3046 -0.0886  0.1839
  305loPI   C2B 4878  15.856  18.803   8.267  0.0616 -0.0398 -0.0500
  305loPI   C3B 4879  15.785  18.687   7.906  0.1673 -0.2304 -0.0457
  305loPI   C4B 4880  15.583  18.653   7.486 -0.0113  0.0816  0.1161
  306loPI    C1 4881  12.589  14.109   9.957  0.1654  0.3122  0.2605
  306loPI    C2 4882  12.718  13.736  10.020 -0.0101  0.2365  0.1767
  306loPI    C3 4883  12.557  13.945  10.320 -0.3923  0.0539  0.1051
  306loPI   PO4 4884  12.594  14.134   9.686  0.4363  0.1068  0.1947
  306loPI   GL1 4885  12.295  14.231   9.365 -0.0844  0.1275 -0.2230
  306loPI   GL2 4886  12.360  14.543   9.432 -0.0162  0.0733 -0.3366
  306loPI   C1A 4887  12.022  13.871   9.302 -0.0896  0.1775 -0.1932
  306loPI   C2A 4888  11.889  13.575   9.028  0.1863 -0.2312 -0.1222
  306loPI   C3A 4889  11.791  13.430   8.658 -0.1224 -0.0586 -0.0916
  306loPI   C4A 4890  11.779  13.303   8.262 -0.2571  0.2372 -0.1119
  306loPI   C5A 4891  11.873  13.128   7.853 -0.2270 -0.1031  0.0652
  306loPI   C6A 4892  12.062  12.749   7.634  0.0011 -0.0567  0.1307
  306loPI   C1B 4893  12.537  14.540   9.033 -0.1996  0.2941 -0.1379
  306loPI   C2B 4894  12.585  14.354   8.640  0.0360  0.0486  0.2693
  306loPI   C3B 4895  12.553  14.287   8.166 -0.1548  0.1504 -0.1887
  306loPI   C4B 4896  12.319  14.544   7.830  0.2812 -0.2021  0.1452
  307loPI    C1 4897  16.650   2.068   9.806  0.0162  0.3617  0.0102
  307loPI    C2 4898  16.931   2.144  10.081  0.0027  0.0434  0.1165
  307loPI    C3 4899  16.686   1.831  10.126 -0.0822  0.0610 -0.1972
  307loPI   PO4 4900  16.765   2.119   9.581 -0.2365  0.1928 -0.2898
  307loPI   GL1 4901  16.732   2.218   9.215  0.2596 -0.2136  0.3570
  307loPI   GL2 4902  16.931   2.521   9.347 -0.0652  0.0483 -0.1843
  307loPI   C1A 4903  16.452   2.137   8.870 -0.1069  0.2067  0.0932
  307loPI   C2A 4904  16.436   2.185   8.404 -0.1664  0.0531 -0.0408
  307loPI   C3A 4905  16.626   2.283   8.039 -0.0256  0.2371 -0.0277
  307loPI   C4A 4906  16.727   2.406   7.718  0.0722 -0.0039 -0.2346
  307loPI   C5A 4907  16.689   2.363   7.239 -0.1428  0.4318 -0.1345
  307loPI   C6A 4908  16.933   2.457   6.901  0.4117  0.1408  0.1323
  307loPI   C1B 4909  17.300   2.471   9.088  0.1768  0.2306 -0.1382
  307loPI   C2B 4910  17.479   2.673   8.720  0.0421  0.0764 -0.1614
  307loPI   C3B 4911  17.527   2.511   8.280  0.0884  0.0770 -0.0926
  307loPI   C4B 4912  17.710   2.580   7.827 -0.1036  0.0835 -0.2027
  308loPI    C1 4913   8.144  17.304   9.784  0.1407  0.1172 -0.0019
  308loPI    C2 4914   8.069  17.566  10.078 -0.1405 -0.0136  0.0462
  308loPI    C3 4915   8.328  17.266  10.137  0.2326  0.2861 -0.0305
  308loPI   PO4 4916   8.002  17.383   9.594  0.3269 -0.1467  0.3011
  308loPI   GL1 4917   7.800  17.375   9.166  0.0118 -0.1453  0.1421
  308loPI   GL2 4918   7.810  17.735   9.057 -0.0367  0.0972 -0.0601
  308loPI   C1A 4919   7.842  17.378   8.702  0.0352 -0.2911  0.3827
  308loPI   C2A 4920   8.038  17.477   8.242 -0.1663  0.1260 -0.0365
  308loPI   C3A 4921   8.234  17.474   7.935  0.1102 -0.2809  0.0157
  308loPI   C4A 4922   8.044  17.418   7.537 -0.1509  0.0718  0.1545
  308loPI   C5A 4923   7.902  17.607   7.180  0.1203  0.1115  0.0079
  308loPI   C6A 4924   7.557  17.421   6.984  0.0423  0.1448 -0.0901
  308loPI   C1B 4925   8.070  17.822   8.758 -0.0503 -0.2774 -0.2787
  308loPI   C2B 4926   8.271  18.001   8.377  0.2220 -0.3033 -0.0806
  308loPI   C3B 4927   8.200  17.972   7.924 -0.0708 -0.0241  0.4111
  308loPI   C4B 4928   8.320  17.832   7.590 -0.2613 -0.3231 -0.1672
  309loPI    C1 4929   8.465  14.278   9.513 -0.0597 -0.2703 -0.0097
  309loPI    C2 4930   8.443  13.916   9.344 -0.0187 -0.2800  0.0056
  309loPI    C3 4931   8.694  13.980   9.649 -0.0463 -0.2459  0.0214
  309loPI   PO4 4932   8.303  14.450   9.313 -0.1793 -0.0437 -0.0999
  309loPI   GL1 4933   8.300  14.331   8.907 -0.3330  0.2094  0.0514
  309loPI   GL2 4934   8.388  14.050   8.867 -0.0746 -0.2711  0.1011
  309loPI   C1A 4935   8.383  14.352   8.482  0.1613 -0.0845  0.1280
  309loPI   C2A 4936   8.308  14.667   8.105  0.0711 -0.2341 -0.1787
  309loPI   C3A 4937   8.307  14.739   7.592  0.1452 -0.0907 -0.2391
  309loPI   C4A 4938   8.472  14.770   7.255  0.2255 -0.0138 -0.1322
  309loPI   C5A 4939   8.773  14.870   6.899  0.2039 -0.3333  0.1178
  309loPI   C6A 4940   8.955  14.899   6.389  0.0064 -0.0954  0.1708
  309loPI   C1B 4941   8.636  13.906   8.608 -0.1309  0.2029  0.2379
  309loPI   C2B 4942   8.717  13.840   8.248  0.2401  0.1156  0.0122
  309loPI   C3B 4943   8.672  13.859   7.797  0.1689  0.0824  0.1507
  309loPI   C4B 4944   8.797  13.630   7.485  0.0157  0.0435  0.0152
  310loPI    C1 4945  15.311  11.370   9.945  0.1890 -0.0039  0.0430
  310loPI    C2 4946  15.564  11.221  10.216  0.1309 -0.0427  0.0762
  310loPI    C3 4947  15.170  11.163  10.258  0.1149  0.0379  0.0375
  310loPI   PO4 4948  15.425  11.320   9.709 -0.0385  0.0370 -0.0549
  310loPI   GL1 4949  15.450  11.395   9.357 -0.0725  0.0408  0.1352
  310loPI   GL2 4950  15.611  11.573   9.149 -0.2839  0.1368  0.1316
  310loPI   C1A 4951  15.216  11.318   8.997  0.0485  0.1862  0.0836
  310loPI   C2A 4952  15.143  11.121   8.653 -0.0181 -0.1682 -0.2066
  310loPI   C3A 4953  15.123  10.964   8.251 -0.1745  0.1856  0.1066
  310loPI   C4A 4954  15.101  10.746   7.849  0.0002 -0.2524 -0.2880
  310loPI   C5A 4955  14.894  10.338   7.727 -0.0714  0.1601 -0.0543
  310loPI   C6A 4956  14.867   9.941   7.735 -0.2934 -0.2533 -0.2092
  310loPI   C1B 4957  15.832  11.552   8.787 -0.2599  0.0110  0.0038
  310loPI   C2B 4958  15.958  11.589   8.390  0.1217  0.2616 -0.1156
  310loPI   C3B 4959  15.845  11.648   7.952 -0.1842  0.1597  0.1901
  310loPI   C4B 4960  15.529  11.664   7.650  0.1579 -0.1786  0.1230
  311loPI    C1 4961   3.657  18.435   8.977  0.0969 -0.1992  0.0204
  311loPI    C2 4962   3.348  18.522   9.215  0.0567 -0.1791 -0.0389
  311loPI    C3 4963   3.706  18.442   9.374  0.0216 -0.2003  0.0298
  311loPI   PO4 4964   3.546  18.271   8.797 -0.1549 -0.1155 -0.1197
  311loPI   GL1 4965   3.351  18.166   8.510  0.0284 -0.1288 -0.1041
  311loPI   GL2 4966   3.100  18.425   8.453 -0.1505 -0.1309  0.0187
  311loPI   C1A 4967   3.333  18.123   8.138 -0.0299  0.3964  0.0953
  311loPI   C2A 4968   3.379  18.169   7.677  0.0282  0.1062 -0.4053
  311loPI   C3A 4969   3.289  18.287   7.244  0.1612  0.1321 -0.0786
  311loPI   C4A 4970   3.206  18.037   6.872  0.0254 -0.1377  0.3099
  311loPI   C5A 4971   3.137  17.745   6.571  0.1390 -0.0278  0.1226
  311loPI   C6A 4972   2.969  17.684   6.132 -0.1265  0.1553  0.0962
  311loPI   C1B 4973   3.210  18.592   8.064 -0.0214 -0.1169  0.3163
  311loPI   C2B 4974   3.084  18.548   7.677 -0.0638 -0.1062  0.2129
  311loPI   C3B 4975   3.147  18.779   7.318 -0.1136 -0.0690 -0.3698
  311loPI   C4B 4976   2.932  18.856   6.932  0.0019 -0.0535 -0.2075
  312loPI    C1 4977  12.715   8.943  10.446 -0.1715 -0.1517  0.0781
  312loPI    C2 4978  13.043   8.755  10.578  0.1652  0.0984 -0.3710
  312loPI    C3 4979  12.728   8.801  10.820  0.5952  0.1755  0.1961
  312loPI   PO4 4980  12.775   9.173  10.276 -0.2069 -0.0872  0.3648
  312loPI   GL1 4981  12.943   9.143   9.879  0.0074 -0.3634 -0.1695
  312loPI   GL2 4982  12.683   8.942   9.825 -0.1090  0.3570  0.0755
  312loPI   C1A 4983  13.186   9.311   9.498  0.2490  0.1191  0.0376
  312loPI   C2A 4984  13.338   9.154   9.182 -0.0800 -0.0380 -0.0910
  312loPI   C3A 4985  13.371   9.141   8.749  0.0008  0.0380  0.1012
  312loPI   C4A 4986  13.417   9.138   8.384  0.4000 -0.5125  0.1401
  312loPI   C5A 4987  13.505   8.903   7.958 -0.0017  0.1899  0.0301
  312loPI   C6A 4988  13.361   8.989   7.456  0.1516  0.1248  0.4213
  312loPI   C1B 4989  12.624   8.951   9.443 -0.0211  0.2689  0.1575
  312loPI   C2B 4990  12.861   9.100   9.019 -0.2436 -0.0160 -0.2042
  312loPI   C3B 4991  12.888   8.930   8.548  0.0268 -0.1619  0.4177
  312loPI   C4B 4992  13.021   9.011   8.112  0.3351 -0.0620  0.2058
  313loPI    C1 4993   7.012  17.292   9.734  0.1692  0.2431  0.3122
  313loPI    C2 4994   6.676  17.432   9.568  0.2812  0.0489 -0.0920
  313loPI    C3 4995   6.800  17.575   9.920 -0.1791  0.1798  0.0241
  313loPI   PO4 4996   7.243  17.266   9.567 -0.2062 -0.0481  0.0128
  313loPI   GL1 4997   7.114  17.404   9.131 -0.0501 -0.0872 -0.0810
  313loPI   GL2 4998   7.325  17.183   9.007 -0.0512 -0.2348 -0.0167
  313loPI   C1A 4999   7.333  17.669   8.759 -0.4222  0.5786  0.3223
  313loPI   C2A 5000   7.348  17.890   8.368 -0.0319  0.2743  0.0238
  313loPI   C3A 5001   7.379  18.010   7.958  0.1290 -0.1087  0.2921
  313loPI   C4A 5002   7.326  18.122   7.599 -0.0768  0.0302 -0.0443
  313loPI   C5A 5003   7.049  18.233   7.253 -0.1982 -0.1496 -0.2531
  313loPI   C6A 5004   6.787  17.954   6.946 -0.0670  0.0340  0.0442
  313loPI   C1B 5005   7.247  17.217   8.551  0.0084  0.2894 -0.1845
  313loPI   C2B 5006   7.572  17.413   8.208  0.2154  0.1723 -0.1844
  313loPI   C3B 5007   7.731  17.625   7.894  0.1196 -0.1474 -0.2099
  313loPI   C4B 5008   7.812  17.933   7.537  0.0673  0.0864 -0.1291
  314loPI    C1 5009   9.826   4.856  10.011  0.1739 -0.0562 -0.3441
  314loPI    C2 5010   9.796   4.472  10.116 -0.1666  0.0999  0.1681
  314loPI    C3 5011  10.099   4.693  10.255  0.1853 -0.0408 -0.3465
  314loPI   PO4 5012   9.685   4.897   9.834 -0.3220  0.1086 -0.2765
  314loPI   GL1 5013   9.670   5.103   9.562  0.4594  0.3170  0.1722
  314loPI   GL2 5014   9.407   5.252   9.461 -0.1500 -0.0201  0.1467
  314loPI   C1A 5015   9.686   4.907   9.174  0.0932 -0.0226  0.0503
  314loPI   C2A 5016   9.744   4.631   8.909  0.1419  0.0112  0.1364
  314loPI   C3A 5017   9.826   4.580   8.496 -0.3973  0.1814  0.2712
  314loPI   C4A 5018   9.872   4.558   8.132  0.0950  0.4341  0.1735
  314loPI   C5A 5019   9.958   4.418   7.751 -0.3622  0.0761  0.1444
  314loPI   C6A 5020  10.319   4.124   7.508  0.3257 -0.0058 -0.0144
  314loPI   C1B 5021   9.167   5.066   9.079  0.0969 -0.0323  0.0279
  314loPI   C2B 5022   9.079   5.032   8.654 -0.0895  0.5085 -0.1972
  314loPI   C3B 5023   8.958   4.984   8.206  0.5105  0.1498  0.0331
  314loPI   C4B 5024   8.883   5.135   7.746  0.1762 -0.2030  0.1212
  315loPI    C1 5025   1.455  14.271   9.353  0.2345 -0.0694 -0.0093
  315loPI    C2 5026   1.690  14.454   9.621  0.2287 -0.0559 -0.0134
  315loPI    C3 5027   1.308  14.567   9.579  0.2401 -0.0323 -0.0540
  315loPI   PO4 5028   1.486  14.241   9.180 -0.0430  0.3699  0.2995
  315loPI   GL1 5029   1.644  14.139   8.797 -0.4339  0.1649  0.1059
  315loPI   GL2 5030   1.351  14.218   8.699  0.0537  0.3442  0.2139
  315loPI   C1A 5031   1.850  14.146   8.352  0.0968 -0.0753  0.0585
  315loPI   C2A 5032   2.154  14.096   7.986 -0.1346  0.3190 -0.0183
  315loPI   C3A 5033   2.305  13.943   7.608  0.1406  0.4165  0.3773
  315loPI   C4A 5034   2.411  13.725   7.265  0.1177  0.0110  0.0834
  315loPI   C5A 5035   2.697  13.620   6.879 -0.1174 -0.0176  0.0206
  315loPI   C6A 5036   2.783  13.747   6.459  0.0082 -0.1634 -0.0509
  315loPI   C1B 5037   1.469  14.475   8.386 -0.5213  0.2124 -0.0306
  315loPI   C2B 5038   1.644  14.448   7.971  0.1405  0.0741  0.0529
  315loPI   C3B 5039   1.870  14.280   7.678 -0.0174 -0.0702 -0.0262
  315loPI   C4B 5040   1.777  14.161   7.209 -0.0201  0.1007 -0.0291
  316loPI    C1 5041   3.015  16.729   9.108  0.0006 -0.2330  0.1941
  316loPI    C2 5042   2.741  16.854   9.371 -0.1030 -0.1595  0.0531
  316loPI    C3 5043   3.120  16.798   9.487 -0.0563  0.2718  0.1246
  316loPI   PO4 5044   2.824  16.601   8.894  0.0123 -0.0633  0.0507
  316loPI   GL1 5045   2.784  16.563   8.457 -0.1733  0.0272  0.1546
  316loPI   GL2 5046   2.824  16.279   8.257  0.1674 -0.2933  0.0697
  316loPI   C1A 5047   2.964  16.838   8.252  0.0013 -0.1745 -0.1397
  316loPI   C2A 5048   3.099  16.880   7.848  0.0369 -0.0034 -0.2311
  316loPI   C3A 5049   2.952  16.850   7.485  0.0163  0.1941 -0.1199
  316loPI   C4A 5050   2.796  16.970   7.151  0.2598 -0.0241 -0.2183
  316loPI   C5A 5051   2.927  17.403   6.970 -0.1828  0.2619  0.0689
  316loPI   C6A 5052   2.730  17.831   7.022 -0.0389 -0.0096 -0.0833
  316loPI   C1B 5053   2.833  16.459   7.839  0.0023 -0.0943  0.1324
  316loPI   C2B 5054   2.987  16.251   7.397 -0.1785  0.0641 -0.0139
  316loPI   C3B 5055   2.988  16.134   6.978  0.1593  0.2321  0.0606
  316loPI   C4B 5056   3.340  16.094   6.714  0.1723 -0.0159  0.0782
  317loPI    C1 5057   3.489   3.037   9.787  0.0173 -0.1351 -0.1529
  317loPI    C2 5058   3.584   2.649   9.799  0.0296 -0.1274  0.0359
  317loPI    C3 5059   3.802   2.914  10.004 -0.1493 -0.0568  0.1364
  317loPI   PO4 5060   3.388   3.055   9.541  0.3494  0.1031 -0.1407
  317loPI   GL1 5061   3.333   3.198   9.088 -0.3206 -0.2467  0.1091
  317loPI   GL2 5062   3.371   3.601   9.081  0.2583 -0.2212  0.0850
  317loPI   C1A 5063   3.039   3.427   8.669  0.1956 -0.2324 -0.1614
  317loPI   C2A 5064   3.105   3.301   8.242  0.0063 -0.0801  0.0063
  317loPI   C3A 5065   2.857   3.155   7.923 -0.2584  0.0320  0.2916
  317loPI   C4A 5066   2.591   3.090   7.702 -0.2404 -0.1302 -0.2235
  317loPI   C5A 5067   2.419   2.623   7.515 -0.0485 -0.0911 -0.1184
  317loPI   C6A 5068   2.351   2.318   7.315  0.1796  0.0966 -0.2931
  317loPI   C1B 5069   3.442   3.629   8.639  0.1964 -0.0369  0.4032
  317loPI   C2B 5070   3.375   3.718   8.197  0.1884 -0.1366 -0.0262
  317loPI   C3B 5071   3.267   3.644   7.854  0.2300 -0.0470  0.0416
  317loPI   C4B 5072   2.887   3.591   7.600 -0.1504  0.2631  0.0782
  318loPI    C1 5073   7.437  18.967   9.547 -0.2474  0.1169  0.0703
  318loPI    C2 5074   7.185  19.103   9.825 -0.1425 -0.0062  0.2269
  318loPI    C3 5075   7.183  18.716   9.725  0.0170 -0.0175  0.2649
  318loPI   PO4 5076   7.467  19.122   9.233  0.1024  0.0013  0.1593
  318loPI   GL1 5077   7.628  18.919   8.858  0.1770 -0.2245 -0.1345
  318loPI   GL2 5078   7.880  19.180   8.711 -0.1055 -0.2479  0.4119
  318loPI   C1A 5079   7.588  18.849   8.435 -0.1208  0.0443 -0.1054
  318loPI   C2A 5080   7.511  18.913   8.049 -0.2625  0.4022  0.1861
  318loPI   C3A 5081   7.551  18.828   7.607 -0.0205 -0.1066  0.0486
  318loPI   C4A 5082   7.371  18.714   7.204  0.0842  0.0135 -0.1548
  318loPI   C5A 5083   6.940  18.596   6.883  0.0778 -0.1430 -0.2426
  318loPI   C6A 5084   6.476  18.487   6.774 -0.0599  0.1531 -0.0482
  318loPI   C1B 5085   7.747  19.389   8.405  0.2178 -0.0318 -0.2595
  318loPI   C2B 5086   7.768  19.326   8.041 -0.3610 -0.0954  0.0698
  318loPI   C3B 5087   7.662  19.304   7.647 -0.2066  0.2468 -0.3811
  318loPI   C4B 5088   7.704  19.181   7.215 -0.0081  0.0425  0.0787
  319loPI    C1 5089   3.337   9.325   9.700 -0.0216  0.2093  0.0970
  319loPI    C2 5090   3.582   9.440   9.994 -0.0064  0.0350  0.1538
  319loPI    C3 5091   3.195   9.375  10.071 -0.0672  0.2873  0.0692
  319loPI   PO4 5092   3.418   9.149   9.534  0.0933 -0.4043 -0.1810
  319loPI   GL1 5093   3.619   9.131   9.197  0.3036  0.0059  0.0543
  319loPI   GL2 5094   3.744   9.313   9.024 -0.3541  0.1376  0.1317
  319loPI   C1A 5095   3.442   9.003   8.765 -0.0833 -0.2990  0.2813
  319loPI   C2A 5096   3.203   9.031   8.324  0.2627  0.0950 -0.2302
  319loPI   C3A 5097   2.948   9.266   7.956  0.0125  0.2333  0.3702
  319loPI   C4A 5098   2.531   9.194   7.888 -0.0263  0.0142 -0.2148
  319loPI   C5A 5099   2.372   8.688   7.943 -0.1073  0.0595 -0.1870
  319loPI   C6A 5100   2.148   8.252   7.934 -0.1632  0.1419 -0.1085
  319loPI   C1B 5101   4.213   9.257   8.769 -0.1591  0.3100 -0.2541
  319loPI   C2B 5102   4.400   9.330   8.349  0.1654 -0.1320 -0.1261
  319loPI   C3B 5103   4.558   9.204   7.949  0.0690 -0.3028 -0.2409
  319loPI   C4B 5104   4.721   9.052   7.598  0.0579  0.0513  0.1591
  320loPI    C1 5105  11.155  14.851   9.925  0.1194  0.0858 -0.4312
  320loPI    C2 5106  10.813  14.704   9.777 -0.0536  0.0463 -0.0064
  320loPI    C3 5107  10.831  15.084   9.901  0.1470  0.1378 -0.3030
  320loPI   PO4 5108  11.360  14.840   9.667 -0.2087  0.0711 -0.2342
  320loPI   GL1 5109  11.292  15.035   9.277 -0.1181  0.0362 -0.0143
  320loPI   GL2 5110  10.946  14.994   9.396  0.4894  0.4344  0.0379
  320loPI   C1A 5111  11.154  15.047   8.814 -0.0404  0.0868  0.3362
  320loPI   C2A 5112  11.296  14.969   8.424 -0.2196 -0.1025 -0.2274
  320loPI   C3A 5113  11.446  14.952   7.990  0.0136 -0.2442 -0.0998
  320loPI   C4A 5114  11.375  14.908   7.517  0.1950  0.0594 -0.3374
  320loPI   C5A 5115  10.943  14.607   7.590 -0.1193 -0.1554  0.1721
  320loPI   C6A 5116  10.591  14.533   7.354  0.3373 -0.3075 -0.0155
  320loPI   C1B 5117  10.719  14.837   9.112 -0.1298  0.0018 -0.1627
  320loPI   C2B 5118  10.728  14.699   8.748 -0.0070 -0.0210 -0.0285
  320loPI   C3B 5119  10.859  14.672   8.384 -0.2214  0.2948  0.2154
  320loPI   C4B 5120  11.088  14.439   8.044  0.1243 -0.2560 -0.2419
  321loPI    C1 5121  10.760  10.382   9.975 -0.0756 -0.2226  0.1649
  321loPI    C2 5122  10.626  10.620   9.684  0.0140 -0.2440  0.1055
  321loPI    C3 5123  10.557  10.714  10.067  0.1272 -0.0742  0.0857
  321loPI   PO4 5124  10.717  10.163   9.835 -0.3967 -0.0408 -0.3103
  321loPI   GL1 5125  10.695   9.955   9.425  0.1522 -0.2189 -0.0031
  321loPI   GL2 5126  10.928   9.988   9.424  0.3133  0.0443  0.1296
  321loPI   C1A 5127  10.528   9.828   9.019 -0.1423  0.3140  0.1995
  321loPI   C2A 5128  10.332   9.586   8.708 -0.1492  0.1366  0.0202
  321loPI   C3A 5129  10.471   9.259   8.401  0.0451  0.0549 -0.1358
  321loPI   C4A 5130  10.396   9.139   7.992 -0.1628  0.1444 -0.1204
  321loPI   C5A 5131  10.616   8.826   7.857 -0.1204 -0.2718 -0.1506
  321loPI   C6A 5132  10.885   8.517   7.664 -0.1708  0.0363 -0.3942
  321loPI   C1B 5133  10.850  10.173   9.004  0.1107 -0.2998 -0.0054
  321loPI   C2B 5134  10.944  10.161   8.603 -0.0003 -0.0459  0.1628
  321loPI   C3B 5135  10.833  10.267   8.108  0.0403 -0.0263 -0.2305
  321loPI   C4B 5136  10.850  10.223   7.649  0.0719  0.0939 -0.0235
  322loPI    C1 5137  16.195  15.059   9.836 -0.2281 -0.0322  0.0869
  322loPI    C2 5138  16.406  15.399   9.831  0.1732 -0.2752  0.0889
  322loPI    C3 5139  16.201  15.296  10.159  0.0403 -0.0329  0.0843
  322loPI   PO4 5140  16.409  14.893   9.688  0.1443  0.3613 -0.0174
  322loPI   GL1 5141  16.394  14.820   9.184  0.0059 -0.0409 -0.0160
  322loPI   GL2 5142  16.637  14.585   9.199  0.2328  0.2898  0.1443
  322loPI   C1A 5143  16.286  14.825   8.764  0.1561  0.0007 -0.2117
  322loPI   C2A 5144  16.332  14.713   8.368  0.2806 -0.0668  0.0896
  322loPI   C3A 5145  16.459  14.631   7.996 -0.0899 -0.7320  0.2887
  322loPI   C4A 5146  16.387  14.842   7.584  0.1855 -0.3156  0.0689
  322loPI   C5A 5147  16.420  15.013   7.290  0.0756 -0.1207  0.0020
  322loPI   C6A 5148  16.751  15.310   7.087 -0.0703  0.3037 -0.3483
  322loPI   C1B 5149  16.709  14.550   8.769 -0.0216  0.1196  0.2754
  322loPI   C2B 5150  16.767  14.415   8.331  0.1529 -0.0581 -0.3687
  322loPI   C3B 5151  16.919  14.364   7.990 -0.1255  0.0437 -0.2467
  322loPI   C4B 5152  16.865  14.111   7.665 -0.1525  0.0111 -0.2278
  323loPI    C1 5153   4.416   4.449   9.797  0.0621 -0.0224  0.3428
  323loPI    C2 5154   4.398   4.051   9.824  0.0575 -0.0658 -0.1914
  323loPI    C3 5155   4.073   4.271   9.898 -0.0581 -0.1923 -0.3174
  323loPI   PO4 5156   4.552   4.483   9.541  0.1186  0.0282  0.2128
  323loPI   GL1 5157   4.607   4.778   9.233 -0.1598 -0.1533  0.1345
  323loPI   GL2 5158   4.808   4.996   9.371 -0.3013 -0.0773  0.0772
  323loPI   C1A 5159   4.935   4.828   8.884 -0.4034 -0.0567  0.1209
  323loPI   C2A 5160   5.143   5.107   8.590  0.2812  0.1042  0.0312
  323loPI   C3A 5161   5.323   5.369   8.321 -0.0115 -0.2076 -0.1293
  323loPI   C4A 5162   5.659   5.277   7.969  0.1158  0.0333 -0.0395
  323loPI   C5A 5163   5.727   5.300   7.538 -0.2655 -0.2575  0.1819
  323loPI   C6A 5164   5.799   5.345   7.168  0.0956  0.4098 -0.3007
  323loPI   C1B 5165   5.140   5.211   9.093 -0.0346  0.2319  0.2121
  323loPI   C2B 5166   5.568   5.424   9.001 -0.0784  0.1014  0.3248
  323loPI   C3B 5167   5.729   5.640   8.544 -0.0825 -0.1305 -0.5739
  323loPI   C4B 5168   6.024   5.602   8.179 -0.4199  0.2802 -0.0238
  324loPI    C1 5169  13.791   0.730   9.509 -0.0871  0.0228  0.0488
  324loPI    C2 5170  13.479   0.980   9.525 -0.1072 -0.0025  0.0524
  324loPI    C3 5171  13.619   0.813   9.860  0.1313  0.2808  0.0979
  324loPI   PO4 5172  13.913   0.946   9.281  0.0035  0.2242  0.1525
  324loPI   GL1 5173  14.142   0.842   8.875  0.1041 -0.2474 -0.0405
  324loPI   GL2 5174  13.871   0.642   8.857  0.0663 -0.3420 -0.1020
  324loPI   C1A 5175  14.110   1.040   8.511 -0.3364  0.2122 -0.2128
  324loPI   C2A 5176  14.141   1.137   8.146  0.1261 -0.0992 -0.0278
  324loPI   C3A 5177  14.074   1.019   7.699 -0.0627 -0.1004  0.0243
  324loPI   C4A 5178  14.080   0.907   7.288 -0.3226  0.0702 -0.1944
  324loPI   C5A 5179  14.348   1.080   6.949 -0.1734 -0.0512  0.0907
  324loPI   C6A 5180  14.336   1.513   6.970 -0.1424  0.2268  0.0478
  324loPI   C1B 5181  13.856   0.631   8.454 -0.3951  0.2445  0.0809
  324loPI   C2B 5182  13.900   0.608   8.008 -0.0212 -0.0612 -0.0301
  324loPI   C3B 5183  14.055   0.471   7.531  0.2047  0.1720 -0.1669
  324loPI   C4B 5184  14.245   0.362   7.189  0.0367  0.3022  0.2091
  325loPI    C1 5185   7.262  16.124   9.339  0.3157  0.0106  0.0687
  325loPI    C2 5186   7.337  15.997   9.711 -0.2565  0.0324  0.2003
  325loPI    C3 5187   7.315  15.734   9.409  0.0458 -0.0035  0.2072
  325loPI   PO4 5188   7.378  16.407   9.341 -0.2255 -0.0708 -0.1563
  325loPI   GL1 5189   7.721  16.580   9.120  0.4134  0.0092  0.0462
  325loPI   GL2 5190   7.811  16.843   8.916  0.4216 -0.2085 -0.3579
  325loPI   C1A 5191   7.894  16.469   8.622  0.4192 -0.8302  0.0356
  325loPI   C2A 5192   7.810  16.300   8.127 -0.0737 -0.0595  0.0997
  325loPI   C3A 5193   8.146  16.088   7.877  0.2540  0.2204 -0.0443
  325loPI   C4A 5194   8.498  15.890   7.642 -0.0362 -0.1494  0.1473
  325loPI   C5A 5195   8.409  15.682   7.211 -0.0615 -0.1066 -0.0793
  325loPI   C6A 5196   8.656  15.746   6.738 -0.0382  0.2843 -0.1296
  325loPI   C1B 5197   7.730  16.920   8.567  0.2274 -0.3120  0.0774
  325loPI   C2B 5198   7.814  16.855   8.173  0.0813  0.0214  0.0168
  325loPI   C3B 5199   7.925  17.016   7.767 -0.0052 -0.0254 -0.0709
  325loPI   C4B 5200   7.974  16.643   7.375 -0.1728 -0.0655 -0.4747
  326loPI    C1 5201  18.332   5.723   9.815  0.1648 -0.2373 -0.0880
  326loPI    C2 5202  17.998   5.521   9.727  0.0720 -0.1775  0.1204
  326loPI    C3 5203  18.085   5.858   9.530  0.0204 -0.2044  0.0510
  326loPI   PO4 5204  18.499   5.554   9.866  0.1262 -0.0157 -0.1573
  326loPI   GL1 5205  18.414   5.350   9.442 -0.3060 -0.0880  0.0515
  326loPI   GL2 5206  18.516   5.708   9.366  0.0099  0.4186  0.0356
  326loPI   C1A 5207  18.388   5.367   8.933 -0.2882 -0.2613  0.0576
  326loPI   C2A 5208  18.340   5.567   8.582  0.4038 -0.2024 -0.1133
  326loPI   C3A 5209  18.244   5.582   8.253 -0.0421 -0.0045 -0.1527
  326loPI   C4A 5210  18.251   5.841   7.909  0.1630  0.2259 -0.2987
  326loPI   C5A 5211  18.149   6.015   7.554 -0.1002 -0.0661 -0.1273
  326loPI   C6A 5212  18.167   6.186   7.157  0.1250 -0.1707 -0.2486
  326loPI   C1B 5213  18.680   5.811   8.930  0.1734 -0.1208  0.4470
  326loPI   C2B 5214  18.885   5.758   8.610 -0.0976  0.1191  0.0533
  326loPI   C3B 5215  18.788   5.752   8.215 -0.1467 -0.0882 -0.0969
  326loPI   C4B 5216  18.592   5.583   7.690  0.1102  0.2266 -0.2257
  327loPI    C1 5217   7.305   2.865  10.013  0.0497  0.0339 -0.0275
  327loPI    C2 5218   7.247   2.514  10.197 -0.2994 -0.0154 -0.2245
  327loPI    C3 5219   7.606   2.689  10.210 -0.0992 -0.4184 -0.1915
  327loPI   PO4 5220   7.171   2.860   9.751  0.1062  0.1110  0.0890
  327loPI   GL1 5221   7.112   2.784   9.364 -0.3492 -0.0587 -0.0102
  327loPI   GL2 5222   6.925   2.592   9.212  0.1818  0.1165 -0.1112
  327loPI   C1A 5223   7.269   2.754   8.926  0.2265 -0.2078 -0.0700
  327loPI   C2A 5224   7.329   2.607   8.527 -0.1567  0.0878  0.2572
  327loPI   C3A 5225   7.367   2.413   8.219 -0.1536 -0.1253 -0.2900
  327loPI   C4A 5226   7.346   2.482   7.695  0.1206  0.2253 -0.1699
  327loPI   C5A 5227   7.610   2.309   7.449 -0.1689  0.0282 -0.0030
  327loPI   C6A 5228   7.968   2.108   7.288 -0.2593  0.0266  0.0508
  327loPI   C1B 5229   6.788   2.720   8.913 -0.0417 -0.1075 -0.0716
  327loPI   C2B 5230   6.835   2.687   8.439 -0.0704 -0.0123 -0.0954
  327loPI   C3B 5231   7.006   2.732   8.066 -0.0012 -0.1134  0.3492
  327loPI   C4B 5232   6.981   2.989   7.765  0.2004  0.2083  0.1701
  328loPI    C1 5233   8.089   6.466  10.030  0.1170 -0.2699 -0.1844
  328loPI    C2 5234   7.883   6.197  10.243  0.0072  0.0115  0.0726
  328loPI    C3 5235   8.282   6.213  10.274  0.0263 -0.2020 -0.0407
  328loPI   PO4 5236   7.959   6.413   9.736  0.1711 -0.2986 -0.4458
  328loPI   GL1 5237   7.967   6.127   9.410 -0.2290 -0.0265  0.1905
  328loPI   GL2 5238   8.369   6.206   9.412  0.1682 -0.1387  0.1284
  328loPI   C1A 5239   7.922   5.861   9.022 -0.1809 -0.2987  0.0688
  328loPI   C2A 5240   7.876   5.865   8.569  0.1651  0.0081 -0.0127
  328loPI   C3A 5241   7.694   5.795   8.160 -0.1214  0.0070  0.0578
  328loPI   C4A 5242   7.539   5.802   7.862 -0.1806  0.2361 -0.0230
  328loPI   C5A 5243   7.403   5.800   7.363 -0.2125  0.2469  0.1007
  328loPI   C6A 5244   7.540   5.917   7.006  0.2268 -0.2093  0.0578
  328loPI   C1B 5245   8.634   6.379   9.009 -0.1891  0.2123 -0.0522
  328loPI   C2B 5246   8.680   6.377   8.537  0.0950  0.0368  0.0922
  328loPI   C3B 5247   8.551   6.511   8.239  0.1070  0.0738 -0.0870
  328loPI   C4B 5248   8.390   6.571   7.840 -0.0363  0.2961 -0.2296
  329loPI    C1 5249   5.026   3.130   9.872 -0.0310 -0.0478 -0.1745
  329loPI    C2 5250   4.765   2.852   9.992  0.1016  0.0111  0.2666
  329loPI    C3 5251   4.731   3.228  10.123  0.2177  0.0924  0.0686
  329loPI   PO4 5252   5.201   3.046   9.706  0.0376 -0.1762  0.1470
  329loPI   GL1 5253   5.129   3.040   9.287 -0.2080  0.0232  0.0010
  329loPI   GL2 5254   5.176   2.784   9.237  0.1622  0.1937 -0.1800
  329loPI   C1A 5255   4.977   3.079   8.834  0.3481  0.0144  0.1120
  329loPI   C2A 5256   4.657   2.941   8.594  0.0717  0.1105 -0.4876
  329loPI   C3A 5257   4.653   2.713   8.224 -0.0745 -0.1057 -0.0433
  329loPI   C4A 5258   4.306   2.752   7.916 -0.2481  0.1113  0.3548
  329loPI   C5A 5259   4.324   2.686   7.466  0.0520 -0.1596 -0.0277
  329loPI   C6A 5260   3.949   2.523   7.223  0.1004  0.1979  0.1292
  329loPI   C1B 5261   5.353   2.733   8.910 -0.1176  0.0314  0.1606
  329loPI   C2B 5262   5.539   2.520   8.573  0.1604  0.3734  0.3943
  329loPI   C3B 5263   5.417   2.414   8.259  0.1006 -0.2574 -0.0963
  329loPI   C4B 5264   5.076   2.139   8.123  0.0178  0.2179  0.1046
  330loPI    C1 5265  18.644   6.738  10.165  0.1581  0.0417 -0.3831
  330loPI    C2 5266  18.593   7.130  10.224  0.1667 -0.0237  0.1043
  330loPI    C3 5267  18.358   6.868  10.413  0.2199 -0.2584 -0.1481
  330loPI   PO4 5268  18.721   6.748   9.916 -0.1247  0.3424  0.3435
  330loPI   GL1 5269  18.910   6.457   9.572  0.2571  0.2000 -0.1410
  330loPI   GL2 5270  19.090   6.793   9.489  0.1262  0.2103 -0.0825
  330loPI   C1A 5271  19.273   6.368   9.227  0.2119  0.1892 -0.2007
  330loPI   C2A 5272  19.492   6.081   9.041  0.2400  0.1487 -0.0712
  330loPI   C3A 5273  19.461   6.016   8.644  0.2635  0.2119  0.0492
  330loPI   C4A 5274  19.334   5.857   8.168  0.2815  0.0158 -0.2762
  330loPI   C5A 5275  19.107   5.797   7.764  0.1162 -0.1983  0.0689
  330loPI   C6A 5276  18.942   5.793   7.367 -0.2390 -0.0164  0.0875
  330loPI   C1B 5277  18.784   6.792   9.175 -0.3110 -0.1017 -0.0002
  330loPI   C2B 5278  18.857   6.842   8.771  0.1138 -0.0753 -0.2306
  330loPI   C3B 5279  19.166   6.988   8.454 -0.0936  0.0402  0.2648
  330loPI   C4B 5280  19.522   7.061   8.197  0.1530  0.0792 -0.0896
  331loPI    C1 5281   7.386   6.387  10.151  0.0735 -0.0790  0.2980
  331loPI    C2 5282   7.073   6.243   9.947  0.1253  0.1179  0.0764
  331loPI    C3 5283   7.306   5.995  10.157  0.0828 -0.0909 -0.1201
  331loPI   PO4 5284   7.464   6.532   9.895  0.1109  0.0506  0.0491
  331loPI   GL1 5285   7.326   6.374   9.459 -0.0944 -0.2270  0.2414
  331loPI   GL2 5286   7.475   6.066   9.273 -0.0673 -0.3517 -0.0926
  331loPI   C1A 5287   7.017   6.514   9.204  0.1870  0.1345  0.0842
  331loPI   C2A 5288   6.987   6.673   8.870 -0.0120 -0.0487  0.3534
  331loPI   C3A 5289   6.864   6.764   8.364 -0.0807  0.1036  0.0537
  331loPI   C4A 5290   6.873   6.869   7.831  0.2119  0.1495 -0.0104
  331loPI   C5A 5291   6.992   7.180   7.588 -0.0356 -0.0690  0.1835
  331loPI   C6A 5292   7.288   7.440   7.219 -0.1639  0.1552  0.2650
  331loPI   C1B 5293   7.604   6.327   9.043  0.2729  0.0645  0.1059
  331loPI   C2B 5294   7.773   6.358   8.529 -0.1346  0.1930 -0.0033
  331loPI   C3B 5295   7.585   6.284   8.165 -0.1454  0.0601 -0.0729
  331loPI   C4B 5296   7.486   6.295   7.767  0.4144 -0.3002 -0.0972
  332loPI    C1 5297   2.381  13.208   9.738 -0.1268 -0.1594 -0.3256
  332loPI    C2 5298   2.201  12.865   9.839  0.0634 -0.1201  0.1789
  332loPI    C3 5299   2.593  12.870   9.759  0.0382 -0.0380  0.0560
  332loPI   PO4 5300   2.275  13.304   9.578  0.2581  0.3192  0.2982
  332loPI   GL1 5301   2.374  13.302   9.076  0.3545  0.2198 -0.2165
  332loPI   GL2 5302   2.340  13.544   9.164  0.2394  0.1893  0.2446
  332loPI   C1A 5303   2.375  13.048   8.845  0.2311  0.3389  0.0486
  332loPI   C2A 5304   2.376  12.845   8.449 -0.4889  0.0618 -0.1697
  332loPI   C3A 5305   2.494  13.007   8.040 -0.1838  0.0547  0.0001
  332loPI   C4A 5306   2.588  13.189   7.603  0.1234 -0.1237  0.2237
  332loPI   C5A 5307   2.668  13.207   7.185  0.1421 -0.2177 -0.0956
  332loPI   C6A 5308   2.787  12.976   6.863 -0.0487  0.1498  0.1509
  332loPI   C1B 5309   2.439  13.569   8.670 -0.1836 -0.1222 -0.1981
  332loPI   C2B 5310   2.599  13.608   8.191 -0.2058 -0.5778  0.1857
  332loPI   C3B 5311   2.681  13.701   7.716 -0.2638  0.0510 -0.1962
  332loPI   C4B 5312   2.950  13.822   7.360  0.1952  0.0965 -0.1115
  333loPI    C1 5313   2.940   4.796   9.682  0.0595 -0.1049  0.0967
  333loPI    C2 5314   3.075   4.608  10.008  0.2397  0.0361  0.1049
  333loPI    C3 5315   2.896   4.964  10.043 -0.0449 -0.1023  0.0829
  333loPI   PO4 5316   3.015   4.635   9.539 -0.1852 -0.0260 -0.0256
  333loPI   GL1 5317   3.271   4.684   9.285 -0.1244 -0.0861  0.1303
  333loPI   GL2 5318   3.403   4.940   9.417  0.0007  0.1840 -0.2215
  333loPI   C1A 5319   3.390   4.716   8.852  0.3029 -0.0350 -0.1106
  333loPI   C2A 5320   3.297   4.936   8.482 -0.0483  0.0402 -0.0566
  333loPI   C3A 5321   3.153   5.195   8.045 -0.2103 -0.1652 -0.5008
  333loPI   C4A 5322   2.921   5.060   7.775  0.0532 -0.0687  0.1649
  333loPI   C5A 5323   2.572   5.076   7.578 -0.1788  0.1934 -0.0086
  333loPI   C6A 5324   2.239   5.227   7.341  0.1591 -0.2016 -0.0150
  333loPI   C1B 5325   3.361   5.187   8.994 -0.0057  0.0298  0.0563
  333loPI   C2B 5326   3.256   5.428   8.568  0.0659 -0.0720  0.3942
  333loPI   C3B 5327   3.342   5.612   8.205 -0.0533 -0.3622 -0.2181
  333loPI   C4B 5328   3.415   5.520   7.736 -0.2673 -0.4791  0.1143
  334loPI    C1 5329  13.456  14.634   9.987 -0.0925 -0.2851 -0.1278
  334loPI    C2 5330  13.416  14.400  10.309  0.5062 -0.0021  0.1711
  334loPI    C3 5331  13.359  14.795  10.341 -0.1831 -0.0498 -0.2574
  334loPI   PO4 5332  13.309  14.488   9.766  0.0903  0.3277  0.0130
  334loPI   GL1 5333  13.339  14.269   9.366  0.0006 -0.1713 -0.5399
  334loPI   GL2 5334  13.235  14.442   9.175  0.1045  0.1092  0.1747
  334loPI   C1A 5335  13.392  14.084   8.940 -0.2988 -0.2298  0.4999
  334loPI   C2A 5336  13.456  14.008   8.459  0.0276 -0.0398  0.3860
  334loPI   C3A 5337  13.680  13.794   8.155  0.1636 -0.1377 -0.1874
  334loPI   C4A 5338  13.580  13.779   7.724 -0.1786  0.2379  0.2041
  334loPI   C5A 5339  13.595  14.045   7.362 -0.1663 -0.1669  0.1554
  334loPI   C6A 5340  13.423  14.002   6.902  0.0862  0.1109  0.0755
  334loPI   C1B 5341  13.103  14.413   8.734  0.2142 -0.5387 -0.0132
  334loPI   C2B 5342  13.030  14.438   8.351 -0.0095 -0.1567 -0.4178
  334loPI   C3B 5343  13.031  14.351   7.855  0.1787 -0.1524 -0.2126
  334loPI   C4B 5344  13.213  14.473   7.460 -0.0794 -0.2851  0.0470
  335loPI    C1 5345   5.982  17.472   9.258  0.1180 -0.0350 -0.2956
  335loPI    C2 5346   6.244  17.672   9.485 -0.1090  0.0899 -0.1387
  335loPI    C3 5347   5.867  17.624   9.610 -0.1449 -0.1488 -0.3298
  335loPI   PO4 5348   6.114  17.617   8.959 -0.2846 -0.1612 -0.1941
  335loPI   GL1 5349   6.387  17.406   8.721 -0.1045 -0.0504  0.1029
  335loPI   GL2 5350   6.718  17.570   8.829 -0.1289  0.2894  0.1507
  335loPI   C1A 5351   6.342  17.291   8.197  0.0300 -0.0023  0.1867
  335loPI   C2A 5352   6.310  17.127   7.801  0.1057  0.0265 -0.0870
  335loPI   C3A 5353   6.466  17.007   7.472  0.3920  0.0588  0.0307
  335loPI   C4A 5354   6.532  16.672   7.089  0.0301 -0.2395 -0.2990
  335loPI   C5A 5355   6.674  16.313   6.869  0.0124 -0.0332 -0.0768
  335loPI   C6A 5356   6.980  16.103   6.583 -0.2544  0.0124  0.0285
  335loPI   C1B 5357   6.903  17.633   8.435 -0.2427  0.0795  0.0452
  335loPI   C2B 5358   7.109  17.512   8.033  0.1048  0.0210 -0.1727
  335loPI   C3B 5359   7.275  17.606   7.597 -0.2658 -0.2015  0.3339
  335loPI   C4B 5360   7.493  17.851   7.189 -0.4385 -0.1385  0.0902
  336loPI    C1 5361   5.715   3.984   9.855 -0.0324 -0.1366  0.0321
  336loPI    C2 5362   6.027   3.839  10.059  0.1236 -0.0046 -0.1092
  336loPI    C3 5363   5.666   3.853  10.230  0.2046 -0.1101  0.0743
  336loPI   PO4 5364   5.904   3.917   9.588 -0.0908  0.0426  0.0701
  336loPI   GL1 5365   5.968   3.888   9.131 -0.2155 -0.1906  0.2020
  336loPI   GL2 5366   6.268   3.988   9.174  0.1062  0.3951 -0.1633
  336loPI   C1A 5367   5.851   4.074   8.630  0.2668 -0.0009 -0.0949
  336loPI   C2A 5368   5.812   3.949   8.260  0.0951  0.1602  0.1355
  336loPI   C3A 5369   5.825   4.008   7.800  0.2284  0.0574  0.0758
  336loPI   C4A 5370   5.893   3.936   7.289 -0.1212  0.2649  0.0416
  336loPI   C5A 5371   5.696   3.956   6.947  0.2245 -0.0006 -0.1362
  336loPI   C6A 5372   5.785   4.301   6.656  0.2049  0.1734  0.1947
  336loPI   C1B 5373   6.537   3.838   8.826 -0.0300 -0.0624  0.0120
  336loPI   C2B 5374   6.452   3.617   8.425 -0.0894 -0.1461  0.1232
  336loPI   C3B 5375   6.465   3.563   8.044 -0.3330 -0.0084  0.3004
  336loPI   C4B 5376   6.738   3.510   7.576  0.0927  0.0443 -0.0817
  337loPI    C1 5377   0.057  14.629   9.191 -0.0516 -0.2185  0.1319
  337loPI    C2 5378   0.098  14.764   9.566  0.0590  0.0449  0.0275
  337loPI    C3 5379  -0.246  14.597   9.450 -0.0963  0.2740  0.1512
  337loPI   PO4 5380   0.308  14.699   9.071  0.3985 -0.1213  0.3335
  337loPI   GL1 5381   0.599  14.553   8.753  0.1601  0.1166 -0.2408
  337loPI   GL2 5382   0.783  14.358   8.762  0.0875  0.0929  0.1001
  337loPI   C1A 5383   0.550  14.751   8.301  0.1908  0.1899 -0.2485
  337loPI   C2A 5384   0.583  14.775   7.876  0.2809  0.0180 -0.0324
  337loPI   C3A 5385   0.431  14.946   7.491  0.2812  0.4090  0.1483
  337loPI   C4A 5386   0.477  15.255   7.217 -0.0973  0.2202  0.2110
  337loPI   C5A 5387   0.300  15.243   6.840 -0.0789 -0.3109  0.2741
  337loPI   C6A 5388   0.261  15.541   6.569  0.2189 -0.1590  0.2200
  337loPI   C1B 5389   0.856  14.322   8.265  0.1237 -0.3724 -0.1040
  337loPI   C2B 5390   0.665  14.290   7.863 -0.0964  0.0628  0.0924
  337loPI   C3B 5391   0.433  14.453   7.551  0.1751  0.0210 -0.0763
  337loPI   C4B 5392   0.203  14.556   7.223  0.1002 -0.0133 -0.0085
  338loPI    C1 5393   8.635  11.349   9.537 -0.0540 -0.1183  0.1334
  338loPI    C2 5394   8.304  11.536   9.414  0.0862 -0.0924 -0.2170
  338loPI    C3 5395   8.373  11.488   9.805 -0.0142  0.4776 -0.1203
  338loPI   PO4 5396   8.849  11.435   9.397 -0.0141 -0.0807  0.1456
  338loPI   GL1 5397   8.888  11.660   9.080  0.0343  0.0574  0.0614
  338loPI   GL2 5398   8.591  11.598   8.994 -0.0721 -0.1236  0.4261
  338loPI   C1A 5399   8.964  11.637   8.627 -0.2278 -0.1740  0.1229
  338loPI   C2A 5400   8.777  11.301   8.273  0.1201 -0.1235  0.3218
  338loPI   C3A 5401   8.270  11.346   8.121 -0.0618  0.1878  0.1061
  338loPI   C4A 5402   7.935  11.499   8.129 -0.0587 -0.0693  0.1456
  338loPI   C5A 5403   7.433  11.474   8.176 -0.2439  0.0834 -0.0531
  338loPI   C6A 5404   7.043  11.260   8.287  0.0301  0.0226  0.4886
  338loPI   C1B 5405   8.499  11.307   8.673  0.2054  0.4116  0.2855
  338loPI   C2B 5406   8.445  10.953   8.505 -0.3865  0.3347 -0.1348
  338loPI   C3B 5407   8.284  10.803   8.207  0.0467  0.2837 -0.2008
  338loPI   C4B 5408   8.395  10.792   7.777  0.5221 -0.0739 -0.0404
  339loPI    C1 5409   0.748  13.483   9.247 -0.1101  0.1677  0.0020
  339loPI    C2 5410   0.666  13.169   9.481 -0.0389  0.0843 -0.0841
  339loPI    C3 5411   0.876  13.478   9.626  0.0206  0.0248 -0.0431
  339loPI   PO4 5412   0.546  13.450   9.071  0.0311 -0.3625 -0.1268
  339loPI   GL1 5413   0.635  13.302   8.743 -0.4269 -0.0568 -0.2223
  339loPI   GL2 5414   0.701  12.990   8.726 -0.1829 -0.1359 -0.1829
  339loPI   C1A 5415   0.671  13.197   8.248  0.1442 -0.1337  0.0587
  339loPI   C2A 5416   0.765  13.372   7.811 -0.3378 -0.4196  0.1771
  339loPI   C3A 5417   0.938  13.248   7.393  0.1906 -0.1479  0.4359
  339loPI   C4A 5418   1.135  13.281   7.108 -0.0251  0.1048 -0.1421
  339loPI   C5A 5419   1.415  13.552   7.102 -0.2684 -0.1392 -0.0711
  339loPI   C6A 5420   1.341  13.976   7.018  0.0143  0.0199 -0.0176
  339loPI   C1B 5421   0.757  12.705   8.509  0.0694  0.1772  0.2304
  339loPI   C2B 5422   0.683  12.342   8.178 -0.0165  0.2501  0.0888
  339loPI   C3B 5423   0.701  12.444   7.663  0.0225  0.2301 -0.5102
  339loPI   C4B 5424   0.840  12.680   7.314 -0.2419 -0.2588 -0.0344
  340loPI    C1 5425   9.857   2.220   9.838  0.1624 -0.0694 -0.1078
  340loPI    C2 5426   9.855   2.612   9.917 -0.0591 -0.0576 -0.1655
  340loPI    C3 5427  10.084   2.366  10.134 -0.2352  0.0487  0.1469
  340loPI   PO4 5428   9.929   2.210   9.576  0.0249 -0.0794 -0.0329
  340loPI   GL1 5429   9.801   2.256   9.189  0.0603 -0.1273  0.0045
  340loPI   GL2 5430   9.481   2.168   9.119 -0.0698 -0.1372 -0.0538
  340loPI   C1A 5431   9.762   2.603   9.018  0.0305 -0.3646  0.0400
  340loPI   C2A 5432   9.747   2.680   8.581  0.4199  0.0512 -0.0796
  340loPI   C3A 5433   9.953   2.969   8.246  0.0856  0.0185 -0.2284
  340loPI   C4A 5434   9.876   3.346   8.024 -0.1546  0.0941 -0.1548
  340loPI   C5A 5435   9.516   3.707   7.989 -0.1541 -0.0046 -0.0817
  340loPI   C6A 5436   9.297   3.798   7.529  0.0337  0.2173  0.2367
  340loPI   C1B 5437   9.571   2.197   8.721  0.0341  0.1786 -0.0444
  340loPI   C2B 5438   9.741   2.146   8.301 -0.2157  0.4098 -0.3189
  340loPI   C3B 5439   9.827   2.333   7.880 -0.2523  0.2432 -0.0202
  340loPI   C4B 5440   9.915   2.713   7.734 -0.1342 -0.1651  0.1364
  341loPI    C1 5441   9.259  11.464   9.779 -0.0524  0.0205 -0.0743
  341loPI    C2 5442   9.110  11.466  10.150 -0.0460 -0.0534 -0.0712
  341loPI    C3 5443   8.909  11.643   9.853 -0.0178  0.0663 -0.0197
  341loPI   PO4 5444   9.286  11.225   9.662 -0.0061 -0.1999 -0.0218
  341loPI   GL1 5445   9.258  11.053   9.327 -0.1079  0.0238 -0.2313
  341loPI   GL2 5446   9.140  11.201   9.005 -0.0607  0.2840 -0.0640
  341loPI   C1A 5447   9.191  10.690   9.005  0.1076  0.2866 -0.0096
  341loPI   C2A 5448   9.221  10.407   8.590 -0.0289 -0.1238  0.1877
  341loPI   C3A 5449   9.277  10.468   8.162  0.2922  0.0022  0.1615
  341loPI   C4A 5450   9.378  10.751   7.857  0.1915  0.2876  0.0778
  341loPI   C5A 5451   9.343  11.170   7.849  0.2802 -0.1523 -0.0333
  341loPI   C6A 5452   9.060  11.506   7.736 -0.2335  0.0367  0.0595
  341loPI   C1B 5453   9.401  11.321   8.588  0.2901  0.1284  0.0669
  341loPI   C2B 5454   9.725  11.553   8.402 -0.0723 -0.0059  0.3388
  341loPI   C3B 5455   9.768  12.033   8.129  0.4682 -0.0555  0.2500
  341loPI   C4B 5456   9.600  12.224   7.785  0.3014  0.0428  0.0455
  342loPI    C1 5457   3.090   2.200   9.503 -0.0425  0.1652 -0.0374
  342loPI    C2 5458   2.790   2.280   9.755  0.1100 -0.1217  0.2414
  342loPI    C3 5459   3.123   2.502   9.764 -0.1935  0.3791 -0.2609
  342loPI   PO4 5460   2.981   2.245   9.207 -0.1828  0.0654  0.0392
  342loPI   GL1 5461   2.605   2.069   9.074  0.3973  0.0141  0.2707
  342loPI   GL2 5462   2.473   2.410   9.089  0.2089 -0.4642 -0.1932
  342loPI   C1A 5463   2.608   1.831   8.672 -0.0278  0.2325 -0.0585
  342loPI   C2A 5464   2.735   1.715   8.220 -0.1863 -0.2506  0.4665
  342loPI   C3A 5465   2.551   1.852   7.811 -0.0575  0.1883 -0.0561
  342loPI   C4A 5466   2.602   1.887   7.461  0.0314  0.2223 -0.1766
  342loPI   C5A 5467   2.515   1.791   7.112  0.2323  0.1504  0.2217
  342loPI   C6A 5468   2.099   1.717   6.979 -0.1621 -0.4117 -0.0938
  342loPI   C1B 5469   2.638   2.366   8.637  0.1390 -0.1051 -0.2078
  342loPI   C2B 5470   2.749   2.654   8.494 -0.0549  0.0007 -0.2351
  342loPI   C3B 5471   3.058   2.817   8.200  0.1619  0.0637  0.1387
  342loPI   C4B 5472   3.436   2.821   7.937 -0.4138 -0.2901 -0.0826
  343loPI    C1 5473  14.367  18.183  10.114 -0.0680 -0.0483  0.1015
  343loPI    C2 5474  14.701  18.120  10.324  0.0680  0.1151 -0.0616
  343loPI    C3 5475  14.345  18.100  10.504  0.1695  0.0239  0.1323
  343loPI   PO4 5476  14.432  18.071   9.931 -0.3516  0.0821  0.0818
  343loPI   GL1 5477  14.538  18.151   9.547 -0.1538  0.1037  0.2320
  343loPI   GL2 5478  14.712  18.311   9.443 -0.1511 -0.1388  0.0873
  343loPI   C1A 5479  14.179  18.119   9.122 -0.1621 -0.0134  0.4072
  343loPI   C2A 5480  13.986  18.321   8.771  0.1453  0.2729  0.4560
  343loPI   C3A 5481  13.634  18.346   8.469  0.1200  0.1485 -0.0054
  343loPI   C4A 5482  13.396  18.212   8.206 -0.4809 -0.2326 -0.3754
  343loPI   C5A 5483  13.286  18.063   7.829  0.1210 -0.2294 -0.0781
  343loPI   C6A 5484  13.036  18.080   7.425  0.0214 -0.1396  0.0113
  343loPI   C1B 5485  14.699  18.123   9.038 -0.5182  0.0225 -0.0535
  343loPI   C2B 5486  14.719  17.825   8.679 -0.3092 -0.2924  0.0752
  343loPI   C3B 5487  14.837  17.668   8.336 -0.2625  0.1043  0.4260
  343loPI   C4B 5488  14.848  17.308   8.131 -0.0086 -0.2026 -0.0919
  344loPI    C1 5489   9.765   3.761  10.147  0.1665 -0.2300 -0.0147
  344loPI    C2 5490  10.107   3.954  10.225 -0.1193  0.3842 -0.2160
  344loPI    C3 5491  10.087   3.698   9.919  0.2724 -0.0006  0.0677
  344loPI   PO4 5492   9.529   3.990  10.231  0.0195  0.3334 -0.0119
  344loPI   GL1 5493   9.346   4.225   9.893  0.1038 -0.2020  0.4282
  344loPI   GL2 5494   9.479   4.406   9.722 -0.1717 -0.0751 -0.0753
  344loPI   C1A 5495   9.064   4.150   9.574  0.2166 -0.2249  0.2015
  344loPI   C2A 5496   8.994   4.261   9.127  0.0203 -0.4654  0.0570
  344loPI   C3A 5497   8.949   4.206   8.609 -0.0214  0.1040 -0.0798
  344loPI   C4A 5498   8.710   4.150   8.219  0.2014 -0.1230 -0.3297
  344loPI   C5A 5499   8.354   4.099   7.881 -0.1562 -0.2614 -0.1572
  344loPI   C6A 5500   8.098   3.952   7.501 -0.2068 -0.2335  0.2121
  344loPI   C1B 5501   9.733   4.431   9.328 -0.0450 -0.1054 -0.0147
  344loPI   C2B 5502  10.055   4.344   9.114 -0.1562  0.0969 -0.1360
  344loPI   C3B 5503  10.225   4.182   8.705  0.2837  0.0677  0.0048
  344loPI   C4B 5504  10.204   4.165   8.243  0.1412  0.3348 -0.0744
  345loPI    C1 5505   1.403   3.252   9.898  0.1080  0.0255 -0.1023
  345loPI    C2 5506   1.692   3.511   9.998  0.0175  0.0558  0.0839
  345loPI    C3 5507   1.490   3.315  10.283  0.0549 -0.1881 -0.0540
  345loPI   PO4 5508   1.224   3.419   9.684 -0.0723 -0.1847 -0.2469
  345loPI   GL1 5509   1.089   3.728   9.394 -0.2843  0.1739  0.3142
  345loPI   GL2 5510   1.358   3.660   9.245  0.1288  0.0611  0.1567
  345loPI   C1A 5511   0.934   3.965   9.029 -0.1611 -0.1439 -0.2659
  345loPI   C2A 5512   0.925   3.951   8.593 -0.1277  0.0132 -0.1431
  345loPI   C3A 5513   1.008   3.933   8.102  0.1054 -0.0457  0.0486
  345loPI   C4A 5514   1.024   3.777   7.720  0.0742  0.1416 -0.0450
  345loPI   C5A 5515   0.777   3.672   7.287 -0.0452  0.4697 -0.1877
  345loPI   C6A 5516   0.456   3.878   7.083  0.3267 -0.1369  0.2711
  345loPI   C1B 5517   1.349   3.765   8.810  0.0871  0.0033  0.1907
  345loPI   C2B 5518   1.446   3.930   8.391 -0.2393  0.1533  0.0705
  345loPI   C3B 5519   1.546   3.946   7.878  0.0568 -0.0761 -0.1769
  345loPI   C4B 5520   1.580   4.017   7.499 -0.0164  0.1628 -0.0416
  346loPI    C1 5521   5.924  13.054   9.214 -0.0253 -0.2886 -0.0742
  346loPI    C2 5522   6.127  12.914   9.529  0.1040  0.1105  0.0252
  346loPI    C3 5523   5.786  13.116   9.585 -0.0348 -0.0833 -0.1108
  346loPI   PO4 5524   5.873  12.813   9.024 -0.2229 -0.2986 -0.0786
  346loPI   GL1 5525   5.903  12.714   8.586 -0.1542  0.4155 -0.3876
  346loPI   GL2 5526   6.262  12.761   8.659 -0.1945 -0.2826  0.1285
  346loPI   C1A 5527   6.027  12.881   8.201  0.2128 -0.1769 -0.0355
  346loPI   C2A 5528   6.258  12.699   7.922 -0.2284 -0.1013  0.2798
  346loPI   C3A 5529   6.532  12.427   7.770 -0.3758  0.1567 -0.0770
  346loPI   C4A 5530   6.711  12.063   7.627  0.1024 -0.0658  0.0640
  346loPI   C5A 5531   7.062  11.991   7.326  0.0987 -0.1508 -0.2333
  346loPI   C6A 5532   7.225  11.913   6.914 -0.1969 -0.1303 -0.2818
  346loPI   C1B 5533   6.517  12.501   8.399 -0.0045  0.2263  0.3027
  346loPI   C2B 5534   6.755  12.262   8.412  0.1105  0.1854  0.0910
  346loPI   C3B 5535   7.021  12.203   8.015 -0.3745  0.3257 -0.2187
  346loPI   C4B 5536   7.356  12.224   7.704  0.0661  0.2016 -0.1063
  347loPI    C1 5537   4.220   7.257   9.670  0.1285 -0.1564  0.1348
  347loPI    C2 5538   4.012   7.499   9.429  0.1605 -0.1507  0.1130
  347loPI    C3 5539   3.821   7.239   9.665  0.1227 -0.0497  0.1944
  347loPI   PO4 5540   4.512   7.428   9.571  0.0707 -0.1993 -0.0917
  347loPI   GL1 5541   4.332   7.486   9.045 -0.0332 -0.1098 -0.3509
  347loPI   GL2 5542   4.441   7.180   9.059 -0.0066  0.0470 -0.2361
  347loPI   C1A 5543   4.517   7.676   8.612 -0.1805  0.1883  0.1037
  347loPI   C2A 5544   4.341   7.682   8.183 -0.1575  0.5578 -0.2299
  347loPI   C3A 5545   4.431   7.628   7.839 -0.1797  0.0680  0.0288
  347loPI   C4A 5546   4.170   7.598   7.426 -0.0102  0.0841  0.3072
  347loPI   C5A 5547   4.149   7.280   7.042 -0.0160  0.0716  0.1278
  347loPI   C6A 5548   4.291   7.009   6.736  0.0568 -0.1937 -0.1461
  347loPI   C1B 5549   4.226   6.927   8.871 -0.0689  0.1413  0.0255
  347loPI   C2B 5550   4.062   6.758   8.568  0.2519 -0.2288  0.2280
  347loPI   C3B 5551   3.875   6.526   8.254  0.0418  0.2015 -0.1296
  347loPI   C4B 5552   3.676   6.152   8.264  0.1419 -0.0482  0.1750
  348loPI    C1 5553   9.274  12.679   9.748  0.0350  0.0993  0.1206
  348loPI    C2 5554   9.080  12.353   9.621  0.0291  0.2038 -0.1433
  348loPI    C3 5555   8.874  12.665   9.764  0.0370  0.0770  0.1514
  348loPI   PO4 5556   9.538  12.683   9.544  0.1630 -0.1118 -0.4159
  348loPI   GL1 5557   9.555  12.588   8.985 -0.1788 -0.2657  0.0736
  348loPI   GL2 5558   9.226  12.543   9.035  0.0046  0.0340  0.2614
  348loPI   C1A 5559  10.011  12.641   8.846 -0.2060 -0.3581  0.2059
  348loPI   C2A 5560  10.259  12.563   8.476 -0.0122  0.1044  0.1725
  348loPI   C3A 5561  10.252  12.176   8.203  0.0261 -0.2621 -0.1772
  348loPI   C4A 5562  10.252  12.123   7.840 -0.0913 -0.0550 -0.0976
  348loPI   C5A 5563  10.311  12.189   7.286  0.1506  0.0777 -0.0102
  348loPI   C6A 5564  10.472  12.001   6.888 -0.0856 -0.3524 -0.0098
  348loPI   C1B 5565   9.286  12.570   8.535  0.2891  0.0694  0.2485
  348loPI   C2B 5566   9.342  12.206   8.259  0.1867 -0.0412  0.1625
  348loPI   C3B 5567   9.088  12.009   7.870  0.4423  0.1094  0.3558
  348loPI   C4B 5568   9.059  12.213   7.392  0.2318  0.0720  0.2506
  349loPI    C1 5569   7.359  13.212   9.347 -0.1026 -0.1325  0.1163
  349loPI    C2 5570   7.162  12.918   9.162  0.0959 -0.2364  0.0676
  349loPI    C3 5571   7.060  13.024   9.534 -0.0612 -0.2779  0.0371
  349loPI   PO4 5572   7.452  13.323   9.160  0.0828  0.2860 -0.0707
  349loPI   GL1 5573   7.692  13.430   8.910 -0.1330 -0.3066 -0.1872
  349loPI   GL2 5574   8.078  13.425   8.884 -0.1035 -0.0650 -0.1516
  349loPI   C1A 5575   7.446  13.557   8.485  0.0311  0.0014 -0.0378
  349loPI   C2A 5576   7.600  13.564   8.055  0.1630  0.0526 -0.0131
  349loPI   C3A 5577   7.557  13.718   7.558  0.1662  0.0351  0.0826
  349loPI   C4A 5578   7.788  13.792   7.170  0.4773  0.0633  0.0165
  349loPI   C5A 5579   8.121  13.845   6.878 -0.3783  0.1188 -0.1311
  349loPI   C6A 5580   8.281  14.115   6.510  0.1604  0.1869 -0.1820
  349loPI   C1B 5581   7.920  13.533   8.514  0.1354 -0.0594 -0.0818
  349loPI   C2B 5582   7.999  13.301   8.073  0.2158  0.2018  0.3848
  349loPI   C3B 5583   7.875  13.247   7.594  0.1017 -0.3176  0.0244
  349loPI   C4B 5584   8.120  13.343   7.249 -0.0165 -0.1271  0.1379
  350loPI    C1 5585   8.055   2.623  10.014  0.0947 -0.0356 -0.0723
  350loPI    C2 5586   8.340   2.346  10.059  0.1311  0.0131 -0.0021
  350loPI    C3 5587   8.115   2.454  10.372 -0.2162 -0.2955 -0.1387
  350loPI   PO4 5588   8.270   2.893   9.836  0.0761  0.0367 -0.2845
  350loPI   GL1 5589   8.455   3.013   9.357  0.0285 -0.0827  0.1574
  350loPI   GL2 5590   8.520   3.346   9.525 -0.0322 -0.2191 -0.0356
  350loPI   C1A 5591   8.244   2.851   9.144 -0.2697 -0.0771  0.1585
  350loPI   C2A 5592   8.205   2.717   8.747 -0.0291 -0.0292 -0.0677
  350loPI   C3A 5593   8.073   2.997   8.311 -0.2889  0.0140 -0.0361
  350loPI   C4A 5594   8.055   3.144   7.886 -0.1834 -0.2100  0.3234
  350loPI   C5A 5595   8.345   3.534   7.613  0.2149 -0.0779 -0.0623
  350loPI   C6A 5596   8.695   3.360   7.358  0.0452 -0.0307 -0.0577
  350loPI   C1B 5597   8.736   3.342   9.097 -0.0141  0.1578 -0.1281
  350loPI   C2B 5598   8.822   3.312   8.751  0.1397 -0.1061  0.2966
  350loPI   C3B 5599   8.918   3.388   8.289  0.0300  0.1402 -0.0247
  350loPI   C4B 5600   9.019   3.352   7.877  0.2173 -0.0362 -0.1817
  351loPI    C1 5601  10.713   4.049  10.167  0.2021  0.2815 -0.0225
  351loPI    C2 5602  10.499   3.995  10.501 -0.2255  0.0798 -0.3197
  351loPI    C3 5603  10.872   3.854  10.478 -0.2107  0.0492  0.0513
  351loPI   PO4 5604  10.618   3.978  10.022  0.1329 -0.1214  0.2000
  351loPI   GL1 5605  10.452   3.977   9.603  0.3797 -0.1771  0.0562
  351loPI   GL2 5606  10.465   4.297   9.365  0.1662  0.0882 -0.0941
  351loPI   C1A 5607  10.044   3.834   9.394  0.0919 -0.4188  0.0140
  351loPI   C2A 5608   9.971   3.593   9.098  0.2230  0.0334 -0.2075
  351loPI   C3A 5609  10.073   3.666   8.718 -0.2145 -0.2515 -0.1248
  351loPI   C4A 5610   9.972   3.696   8.349 -0.2178 -0.2758 -0.2581
  351loPI   C5A 5611   9.973   3.854   7.888 -0.2125 -0.1914  0.0314
  351loPI   C6A 5612   9.838   3.498   7.557  0.1946  0.2629 -0.2866
  351loPI   C1B 5613  10.713   4.567   9.180  0.1755  0.0831 -0.1702
  351loPI   C2B 5614  10.832   4.677   8.802 -0.1097 -0.3654  0.1086
  351loPI   C3B 5615  11.117   4.866   8.618  0.1268  0.1365 -0.0253
  351loPI   C4B 5616  11.106   5.240   8.352  0.0398  0.4739 -0.1710
  352loPI    C1 5617  11.279   9.267  10.232  0.0162  0.0036  0.2705
  352loPI    C2 5618  11.128   9.607  10.379 -0.2149 -0.1351  0.3594
  352loPI    C3 5619  10.883   9.316  10.256 -0.0227 -0.1346 -0.0410
  352loPI   PO4 5620  11.331   9.311   9.946  0.0708 -0.1670 -0.3596
  352loPI   GL1 5621  11.676   9.097   9.700 -0.1430 -0.0526  0.3954
  352loPI   GL2 5622  11.724   8.815   9.676 -0.0688  0.4138  0.3013
  352loPI   C1A 5623  11.945   9.099   9.175 -0.2050  0.0178 -0.3387
  352loPI   C2A 5624  11.931   8.896   8.651 -0.1342 -0.3611 -0.1567
  352loPI   C3A 5625  11.825   8.931   8.163 -0.1716  0.2438  0.2050
  352loPI   C4A 5626  11.967   8.953   7.856 -0.0868  0.4717  0.1744
  352loPI   C5A 5627  12.235   8.537   7.565  0.1969  0.3661 -0.4003
  352loPI   C6A 5628  12.459   8.179   7.509  0.2147 -0.0613  0.1463
  352loPI   C1B 5629  11.531   8.810   9.223 -0.0044 -0.4446 -0.0932
  352loPI   C2B 5630  11.474   8.741   8.797  0.0131  0.0501 -0.2208
  352loPI   C3B 5631  11.369   8.870   8.350  0.0263 -0.1573 -0.0465
  352loPI   C4B 5632  11.040   8.712   8.076 -0.1082  0.0491 -0.0162
  353loPI    C1 5633  14.334  11.295  10.363 -0.0743  0.1244  0.2336
  353loPI    C2 5634  14.711  11.240  10.484  0.0603  0.1088 -0.1764
  353loPI    C3 5635  14.472  10.925  10.426 -0.0212  0.1190  0.0888
  353loPI   PO4 5636  14.289  11.450  10.158 -0.2637 -0.0010 -0.2197
  353loPI   GL1 5637  14.281  11.427   9.712 -0.1060 -0.0716  0.0333
  353loPI   GL2 5638  14.321  11.578   9.497  0.1992  0.1921  0.3693
  353loPI   C1A 5639  13.864  11.354   9.476 -0.2224 -0.2652  0.1857
  353loPI   C2A 5640  13.871  10.959   9.334  0.2532 -0.1667  0.2241
  353loPI   C3A 5641  13.736  10.543   9.007 -0.4801 -0.0785 -0.0106
  353loPI   C4A 5642  13.854  10.385   8.570 -0.1371 -0.1624 -0.0420
  353loPI   C5A 5643  14.315  10.182   8.493 -0.1270  0.3776  0.2528
  353loPI   C6A 5644  14.393  10.002   7.977 -0.0092  0.1702  0.1468
  353loPI   C1B 5645  14.020  11.640   9.073 -0.1676 -0.0495 -0.1050
  353loPI   C2B 5646  13.750  11.752   8.703  0.2267  0.2545  0.1373
  353loPI   C3B 5647  13.724  11.448   8.390 -0.1363 -0.0592  0.0007
  353loPI   C4B 5648  13.398  11.278   8.128  0.1597 -0.0375  0.2685
  354loPI    C1 5649  13.690  17.757   9.791  0.1239 -0.0304  0.0889
  354loPI    C2 5650  13.950  17.924  10.046  0.1590 -0.1734  0.1481
  354loPI    C3 5651  13.573  18.057  10.028  0.2588  0.0973 -0.0041
  354loPI   PO4 5652  13.828  17.744   9.526  0.0058 -0.1651  0.1943
  354loPI   GL1 5653  13.696  17.489   9.236 -0.0466  0.1628 -0.0767
  354loPI   GL2 5654  13.921  17.268   9.116  0.0791  0.1467 -0.1116
  354loPI   C1A 5655  13.455  17.422   8.857 -0.2528 -0.2280 -0.1554
  354loPI   C2A 5656  13.454  17.224   8.524 -0.1745 -0.1084  0.0278
  354loPI   C3A 5657  13.493  17.146   8.115  0.2540  0.3108 -0.0543
  354loPI   C4A 5658  13.400  17.065   7.702  0.0836 -0.2702  0.2827
  354loPI   C5A 5659  13.443  17.511   7.309 -0.0157  0.0168  0.3576
  354loPI   C6A 5660  13.588  17.844   7.463 -0.1533 -0.3301  0.2040
  354loPI   C1B 5661  14.034  17.295   8.733 -0.0647 -0.0111  0.1714
  354loPI   C2B 5662  13.909  17.443   8.277  0.5434  0.2993  0.1105
  354loPI   C3B 5663  14.335  17.456   8.175 -0.4028  0.1584  0.0120
  354loPI   C4B 5664  14.470  17.115   7.761 -0.1952 -0.0406 -0.0864
  355loPI    C1 5665  15.129   7.509   9.899  0.0571  0.0883  0.0391
  355loPI    C2 5666  15.257   7.837   9.708  0.0347  0.2365  0.2746
  355loPI    C3 5667  15.478   7.676  10.000  0.0217  0.0699  0.1942
  355loPI   PO4 5668  15.074   7.338   9.763 -0.0666 -0.3718 -0.0594
  355loPI   GL1 5669  14.631   7.295   9.480 -0.1410 -0.1032 -0.4139
  355loPI   GL2 5670  14.272   7.359   9.455  0.2492 -0.0274  0.1398
  355loPI   C1A 5671  14.912   7.382   9.116  0.0589 -0.0426  0.1729
  355loPI   C2A 5672  15.165   7.267   8.888  0.2558  0.0104  0.2372
  355loPI   C3A 5673  15.288   7.262   8.398  0.2472  0.0361 -0.1411
  355loPI   C4A 5674  15.397   7.424   8.037 -0.0119  0.3038  0.0641
  355loPI   C5A 5675  15.109   7.879   8.035 -0.0308 -0.0101 -0.1784
  355loPI   C6A 5676  14.730   7.948   8.269  0.0625 -0.4107  0.0791
  355loPI   C1B 5677  14.415   7.396   9.015 -0.0173 -0.1168 -0.0308
  355loPI   C2B 5678  14.419   7.646   8.661 -0.2142 -0.3304 -0.1457
  355loPI   C3B 5679  14.320   7.566   8.244 -0.1514  0.0505 -0.1583
  355loPI   C4B 5680  14.409   7.661   7.902 -0.0641  0.2390  0.1846
  356loPI    C1 5681   2.220  16.140   9.171  0.0409 -0.0965  0.0587
  356loPI    C2 5682   2.491  16.432   9.206 -0.0699  0.0142  0.0036
  356loPI    C3 5683   2.593  16.054   9.287  0.0129  0.0975  0.3022
  356loPI   PO4 5684   2.074  16.131   9.021 -0.3742  0.2695 -0.1089
  356loPI   GL1 5685   2.338  16.264   8.639  0.1625 -0.1005  0.0965
  356loPI   GL2 5686   2.382  16.156   8.398  0.0034 -0.0739 -0.1151
  356loPI   C1A 5687   2.284  16.684   8.537 -0.2719  0.1122  0.2956
  356loPI   C2A 5688   2.152  16.972   8.201  0.1952  0.0851  0.0938
  356loPI   C3A 5689   2.337  17.409   8.075  0.0267  0.1089  0.1628
  356loPI   C4A 5690   2.422  17.863   7.981 -0.1323 -0.1081  0.1535
  356loPI   C5A 5691   2.203  18.054   7.595  0.3606 -0.0236 -0.0035
  356loPI   C6A 5692   1.877  18.227   7.314  0.0278 -0.2634 -0.0621
  356loPI   C1B 5693   2.394  16.196   7.982 -0.2095 -0.2542  0.2785
  356loPI   C2B 5694   2.453  15.958   7.444  0.1119 -0.3208 -0.4532
  356loPI   C3B 5695   2.436  16.156   7.007  0.0433 -0.3182  0.1893
  356loPI   C4B 5696   1.978  16.157   6.745 -0.0514 -0.2700  0.3834
  357loPI    C1 5697  13.533   7.383  10.563 -0.1067 -0.0875 -0.1777
  357loPI    C2 5698  13.382   7.748  10.500  0.3619  0.1448 -0.0026
  357loPI    C3 5699  13.469   7.629  10.872 -0.0591 -0.2640 -0.0258
  357loPI   PO4 5700  13.678   7.394  10.289 -0.0126 -0.1091 -0.1440
  357loPI   GL1 5701  13.733   7.088   9.961 -0.2499 -0.1076 -0.2594
  357loPI   GL2 5702  13.815   6.919   9.625  0.0172 -0.2117 -0.0938
  357loPI   C1A 5703  13.390   7.092   9.567 -0.0840 -0.5307 -0.3124
  357loPI   C2A 5704  13.420   7.237   9.100  0.0690  0.3248  0.1419
  357loPI   C3A 5705  13.489   7.311   8.689  0.2766  0.0223  0.0190
  357loPI   C4A 5706  13.201   7.409   8.326 -0.1058  0.1182 -0.2235
  357loPI   C5A 5707  13.049   7.298   7.877  0.1617 -0.1407  0.2219
  357loPI   C6A 5708  13.213   7.060   7.473  0.2680  0.0505 -0.1739
  357loPI   C1B 5709  13.874   7.228   9.300  0.3566  0.1528 -0.3180
  357loPI   C2B 5710  13.959   7.259   8.912 -0.1590  0.0243 -0.0155
  357loPI   C3B 5711  13.986   7.229   8.472 -0.0553 -0.0738  0.2673
  357loPI   C4B 5712  14.370   7.046   8.214 -0.0890 -0.0962 -0.3477
  358loPI    C1 5713   1.496  18.130   9.357 -0.0298  0.0327 -0.0988
  358loPI    C2 5714   1.131  18.081   9.203 -0.0450 -0.2644  0.0253
  358loPI    C3 5715   1.176  18.257   9.559 -0.0596 -0.1459 -0.0311
  358loPI   PO4 5716   1.581  18.120   9.125 -0.0143  0.0373  0.0665
  358loPI   GL1 5717   1.327  18.150   8.790 -0.3258 -0.1969 -0.0198
  358loPI   GL2 5718   1.150  17.925   8.712 -0.1426  0.2041  0.0279
  358loPI   C1A 5719   1.264  18.267   8.338 -0.1493 -0.0250 -0.6013
  358loPI   C2A 5720   1.170  18.090   7.939  0.1204  0.1759  0.1649
  358loPI   C3A 5721   1.393  17.771   7.603 -0.3631  0.0389 -0.0293
  358loPI   C4A 5722   1.510  17.822   7.183 -0.1285  0.2560 -0.1880
  358loPI   C5A 5723   1.365  18.132   6.915  0.2769  0.1575  0.1569
  358loPI   C6A 5724   1.333  18.369   6.560 -0.1686  0.0022  0.0574
  358loPI   C1B 5725   0.901  17.940   8.347 -0.3462 -0.4419  0.0088
  358loPI   C2B 5726   0.816  17.735   7.971  0.0571  0.2234 -0.0213
  358loPI   C3B 5727   0.976  17.382   7.723  0.1482  0.0358  0.1864
  358loPI   C4B 5728   1.373  17.313   7.443  0.0166 -0.0432  0.3467
  359loPI    C1 5729   6.083  11.631   9.882  0.1917  0.1556  0.1164
  359loPI    C2 5730   6.009  12.021   9.934 -0.4324  0.0401  0.1727
  359loPI    C3 5731   5.717  11.753   9.989  0.0066 -0.4467  0.2066
  359loPI   PO4 5732   6.166  11.583   9.619 -0.1848 -0.2327  0.0885
  359loPI   GL1 5733   6.369  11.394   9.240  0.1589 -0.0858 -0.1176
  359loPI   GL2 5734   6.299  11.628   8.992 -0.0111  0.1778 -0.4504
  359loPI   C1A 5735   6.203  11.185   8.843  0.0483 -0.1038 -0.3104
  359loPI   C2A 5736   6.037  11.165   8.434  0.2495 -0.1954 -0.0129
  359loPI   C3A 5737   5.803  11.217   7.977 -0.0269 -0.3021 -0.0838
  359loPI   C4A 5738   5.773  11.019   7.650 -0.3249  0.0003 -0.3862
  359loPI   C5A 5739   5.896  11.095   7.272  0.2312  0.3459  0.3180
  359loPI   C6A 5740   6.010  11.084   6.890 -0.2139  0.2643  0.4785
  359loPI   C1B 5741   6.118  11.669   8.619 -0.4204 -0.0805 -0.0957
  359loPI   C2B 5742   6.065  11.547   8.179 -0.1489 -0.1239 -0.0659
  359loPI   C3B 5743   6.215  11.391   7.737 -0.5743  0.1263 -0.0453
  359loPI   C4B 5744   6.336  11.049   7.551 -0.2455  0.1448 -0.2383
  360loPI    C1 5745   6.688  11.624   9.790 -0.1348 -0.0069  0.1521
  360loPI    C2 5746   6.903  11.871  10.020 -0.1310  0.0291  0.1099
  360loPI    C3 5747   6.518  11.950   9.946 -0.2295 -0.1687  0.3938
  360loPI   PO4 5748   6.879  11.562   9.568  0.0456 -0.2030 -0.3042
  360loPI   GL1 5749   6.872  11.520   9.269  0.0589 -0.2383  0.1322
  360loPI   GL2 5750   7.141  11.573   9.063 -0.3817 -0.0622  0.0936
  360loPI   C1A 5751   6.744  11.231   8.924  0.1687 -0.0592 -0.0978
  360loPI   C2A 5752   6.601  11.079   8.537  0.0179 -0.2952  0.3155
  360loPI   C3A 5753   6.524  11.017   8.103 -0.1223 -0.3438 -0.1970
  360loPI   C4A 5754   6.861  11.191   7.811  0.1659 -0.0267 -0.2670
  360loPI   C5A 5755   7.220  11.086   7.827 -0.3196  0.0695  0.1553
  360loPI   C6A 5756   7.498  11.106   7.555 -0.0811 -0.0286  0.4976
  360loPI   C1B 5757   7.189  11.661   8.612 -0.3607 -0.2778 -0.2321
  360loPI   C2B 5758   7.053  11.791   8.281 -0.0144  0.0307  0.1409
  360loPI   C3B 5759   7.185  11.734   7.824  0.4207 -0.0444  0.5132
  360loPI   C4B 5760   7.255  11.478   7.451  0.0747 -0.0070 -0.0079
  361loPI    C1 5761   0.603  15.830   9.851  0.1028 -0.0411  0.0549
  361loPI    C2 5762   0.538  15.568  10.147 -0.1084  0.0599  0.1003
  361loPI    C3 5763   0.338  15.914  10.139  0.0730  0.1640 -0.0308
  361loPI   PO4 5764   0.588  15.693   9.604 -0.2506 -0.0561  0.1555
  361loPI   GL1 5765   0.929  15.726   9.308  0.0447  0.1829 -0.1398
  361loPI   GL2 5766   0.796  15.463   9.092  0.1195 -0.1301  0.0076
  361loPI   C1A 5767   0.884  15.940   8.880  0.0424 -0.0648  0.1874
  361loPI   C2A 5768   1.035  15.953   8.443 -0.0738  0.1296  0.3396
  361loPI   C3A 5769   0.871  15.874   8.055  0.1168  0.0684 -0.3648
  361loPI   C4A 5770   0.875  15.738   7.658  0.2310 -0.2188  0.1165
  361loPI   C5A 5771   0.871  15.716   7.228  0.0709  0.1174 -0.1192
  361loPI   C6A 5772   1.198  15.625   6.858 -0.3261 -0.1008 -0.0341
  361loPI   C1B 5773   0.590  15.608   8.670 -0.3010 -0.1413  0.1151
  361loPI   C2B 5774   0.455  15.670   8.261  0.1549  0.0646  0.0546
  361loPI   C3B 5775   0.284  15.680   7.887 -0.3061 -0.0151  0.1145
  361loPI   C4B 5776   0.027  15.988   7.858  0.2108 -0.0900 -0.0189
  362loPI    C1 5777   6.984   8.375  10.419  0.0705 -0.2212  0.1019
  362loPI    C2 5778   7.307   8.426  10.649 -0.0685  0.0455  0.2421
  362loPI    C3 5779   7.051   8.129  10.727  0.1280 -0.1518  0.1451
  362loPI   PO4 5780   7.188   8.373  10.133  0.0375  0.1784  0.2776
  362loPI   GL1 5781   7.260   7.924   9.951  0.1436  0.0102  0.0554
  362loPI   GL2 5782   7.365   7.617   9.918  0.1831 -0.0476 -0.2824
  362loPI   C1A 5783   7.350   7.970   9.481 -0.1163 -0.3206  0.2423
  362loPI   C2A 5784   7.484   7.897   9.097  0.1581 -0.0754 -0.2744
  362loPI   C3A 5785   7.355   7.906   8.738  0.3343  0.0616 -0.2450
  362loPI   C4A 5786   7.005   8.011   8.439  0.0731 -0.0951 -0.2290
  362loPI   C5A 5787   6.986   8.058   8.050 -0.0645  0.2327  0.0766
  362loPI   C6A 5788   6.654   7.984   7.567 -0.0749 -0.1270  0.0661
  362loPI   C1B 5789   7.456   7.470   9.339  0.1342  0.1407 -0.2214
  362loPI   C2B 5790   7.324   7.359   8.807  0.0325  0.0713  0.6285
  362loPI   C3B 5791   7.481   7.532   8.359  0.1382  0.4674 -0.1290
  362loPI   C4B 5792   7.420   7.759   8.033 -0.0626 -0.0034  0.1488
  363loPI    C1 5793   8.430  11.109  10.298  0.0088  0.1346 -0.1016
  363loPI    C2 5794   8.600  11.459  10.203 -0.1518  0.2294 -0.0449
  363loPI    C3 5795   8.693  11.279  10.548  0.1860  0.0462 -0.2257
  363loPI   PO4 5796   8.414  10.953  10.005  0.0266  0.1189  0.0810
  363loPI   GL1 5797   8.339  10.931   9.578 -0.1981 -0.0116 -0.2734
  363loPI   GL2 5798   8.757  10.903   9.420  0.1190  0.2693 -0.2026
  363loPI   C1A 5799   8.321  11.091   9.200 -0.1388  0.0832 -0.1363
  363loPI   C2A 5800   8.122  11.161   8.872  0.0939 -0.2449 -0.1308
  363loPI   C3A 5801   7.853  11.292   8.602  0.2913  0.0092  0.1285
  363loPI   C4A 5802   7.753  11.762   8.556  0.1782 -0.2913  0.1553
  363loPI   C5A 5803   8.028  12.106   8.407  0.4366 -0.1811  0.2971
  363loPI   C6A 5804   8.357  12.415   8.200 -0.0716  0.1380 -0.0345
  363loPI   C1B 5805   8.753  10.950   8.949  0.1153 -0.1511 -0.1150
  363loPI   C2B 5806   8.917  10.983   8.613 -0.3496 -0.1464  0.2128
  363loPI   C3B 5807   9.130  10.928   8.295 -0.1395  0.1398 -0.1050
  363loPI   C4B 5808   9.598  10.981   8.230  0.1775 -0.1192  0.0272
  364loPI    C1 5809   3.254  19.272   9.039 -0.0225 -0.1105  0.0404
  364loPI    C2 5810   3.214  19.305   9.436 -0.0313  0.0260  0.0287
  364loPI    C3 5811   3.127  18.959   9.254 -0.0556 -0.0279  0.1419
  364loPI   PO4 5812   3.532  19.425   8.967  0.0181 -0.0952 -0.0110
  364loPI   GL1 5813   3.600  19.699   8.642  0.0300  0.3446  0.1599
  364loPI   GL2 5814   3.792  19.475   8.384 -0.3200  0.0220 -0.1874
  364loPI   C1A 5815   3.640  19.947   8.342 -0.1865 -0.0323  0.1689
  364loPI   C2A 5816   3.650  20.093   7.940 -0.0686  0.1878 -0.0489
  364loPI   C3A 5817   3.592  20.104   7.471 -0.0083  0.1130  0.0477
  364loPI   C4A 5818   3.727  20.373   7.129 -0.2721 -0.4020  0.1962
  364loPI   C5A 5819   3.821  20.510   6.824  0.0580  0.2605  0.0429
  364loPI   C6A 5820   3.664  20.709   6.561 -0.3397  0.3226 -0.0000
  364loPI   C1B 5821   3.916  19.663   8.005  0.1883  0.1967 -0.2376
  364loPI   C2B 5822   3.945  19.688   7.564 -0.0263 -0.2509 -0.0941
  364loPI   C3B 5823   3.769  19.732   7.125 -0.2879 -0.0440 -0.1946
  364loPI   C4B 5824   3.353  19.604   6.873  0.0741 -0.1664  0.3510
  365loPI    C1 5825  17.713  18.062   9.867  0.0063 -0.1849 -0.1805
  365loPI    C2 5826  17.938  17.747   9.968  0.2524 -0.0133 -0.1848
  365loPI    C3 5827  18.052  18.116  10.072 -0.0481  0.0738 -0.1550
  365loPI   PO4 5828  17.658  18.013   9.653 -0.1827 -0.1383  0.4267
  365loPI   GL1 5829  17.474  17.990   9.254  0.0914 -0.2248  0.0836
  365loPI   GL2 5830  17.785  18.164   9.083  0.0533  0.2920  0.1380
  365loPI   C1A 5831  17.654  17.721   8.993  0.0586 -0.0377 -0.1292
  365loPI   C2A 5832  17.663  17.902   8.588  0.1838  0.0798  0.0237
  365loPI   C3A 5833  17.592  17.870   8.161  0.4304  0.2777 -0.0440
  365loPI   C4A 5834  17.663  17.696   7.758  0.0560 -0.3015  0.2725
  365loPI   C5A 5835  17.705  17.657   7.271  0.0134 -0.3121 -0.3486
  365loPI   C6A 5836  18.011  17.724   6.972 -0.2829  0.2786 -0.0897
  365loPI   C1B 5837  17.640  18.380   8.679  0.2145  0.0446  0.1604
  365loPI   C2B 5838  17.663  18.439   8.280  0.4928 -0.4088  0.1063
  365loPI   C3B 5839  17.594  18.448   7.763  0.2257  0.0303  0.3843
  365loPI   C4B 5840  17.301  18.278   7.481  0.0017  0.2003  0.4124
  366loPI    C1 5841  13.756   2.542   9.581  0.1260 -0.3741 -0.1092
  366loPI    C2 5842  13.591   2.200   9.707 -0.0347 -0.2093  0.1366
  366loPI    C3 5843  13.427   2.550   9.809  0.1342 -0.0570 -0.1049
  366loPI   PO4 5844  13.831   2.473   9.333  0.2100 -0.1038  0.0034
  366loPI   GL1 5845  13.617   2.476   8.909  0.1528 -0.2189  0.0385
  366loPI   GL2 5846  13.445   2.171   8.903  0.0333 -0.1386 -0.0877
  366loPI   C1A 5847  13.715   2.560   8.457  0.0754 -0.2863  0.1316
  366loPI   C2A 5848  13.686   2.651   8.030 -0.2129  0.0716  0.3223
  366loPI   C3A 5849  13.426   2.563   7.702  0.1009  0.1943 -0.0377
  366loPI   C4A 5850  13.051   2.489   7.472  0.1375  0.2074  0.1581
  366loPI   C5A 5851  12.701   2.288   7.294  0.0326  0.1231  0.0752
  366loPI   C6A 5852  12.413   2.035   7.123 -0.1392 -0.1749 -0.0090
  366loPI   C1B 5853  13.682   2.015   8.476 -0.3440 -0.3868 -0.1396
  366loPI   C2B 5854  13.703   2.130   8.051 -0.1587  0.3192 -0.2999
  366loPI   C3B 5855  13.829   2.258   7.639  0.3857 -0.2945 -0.0207
  366loPI   C4B 5856  13.799   2.316   7.224 -0.0889 -0.0458  0.0204
  367loPI    C1 5857   8.967   1.167   9.636  0.1603 -0.1349  0.1165
  367loPI    C2 5858   8.712   1.202   9.942  0.1129  0.1982  0.0426
  367loPI    C3 5859   9.104   1.161  10.012  0.0792  0.0505  0.1499
  367loPI   PO4 5860   8.942   1.131   9.338  0.0397 -0.1787  0.0824
  367loPI   GL1 5861   9.334   0.994   9.108 -0.1139 -0.3352  0.0585
  367loPI   GL2 5862   9.169   0.788   8.857  0.2316 -0.1089  0.2602
  367loPI   C1A 5863   9.400   1.216   8.798 -0.1135  0.1829 -0.2912
  367loPI   C2A 5864   9.367   1.572   8.521  0.0482  0.0651 -0.0606
  367loPI   C3A 5865   9.137   1.479   8.250  0.0692  0.3400 -0.1469
  367loPI   C4A 5866   8.980   1.702   7.939  0.2169 -0.0660  0.0918
  367loPI   C5A 5867   9.146   1.693   7.531  0.1026  0.2471  0.1878
  367loPI   C6A 5868   9.216   2.023   7.194 -0.0346 -0.1521 -0.1171
  367loPI   C1B 5869   9.287   0.897   8.439  0.0238  0.2847  0.1132
  367loPI   C2B 5870   9.241   1.030   8.040  0.0505 -0.0863 -0.1930
  367loPI   C3B 5871   9.078   1.222   7.767  0.3271 -0.2717  0.2828
  367loPI   C4B 5872   9.028   1.227   7.278 -0.3362  0.0117  0.2445
  368loPI    C1 5873  10.838  17.948   9.435  0.0526  0.1243 -0.1429
  368loPI    C2 5874  10.453  18.031   9.508  0.0413  0.2330 -0.3202
  368loPI    C3 5875  10.664  17.811   9.768 -0.1165  0.2454 -0.1804
  368loPI   PO4 5876  10.781  17.916   9.152 -0.1451  0.1273  0.1260
  368loPI   GL1 5877  11.083  17.905   8.928  0.1537  0.3937  0.0042
  368loPI   GL2 5878  11.364  17.987   9.009 -0.0887 -0.0343  0.0557
  368loPI   C1A 5879  11.094  18.133   8.577 -0.3556 -0.0018  0.1016
  368loPI   C2A 5880  11.039  18.239   8.153  0.1216 -0.1223 -0.0844
  368loPI   C3A 5881  10.796  18.110   7.811  0.0957 -0.0788 -0.2053
  368loPI   C4A 5882  10.832  17.691   7.654  0.1167  0.2834  0.0987
  368loPI   C5A 5883  10.837  17.318   7.355  0.1087  0.2165  0.0761
  368loPI   C6A 5884  10.810  17.017   7.179 -0.3199 -0.0391 -0.0949
  368loPI   C1B 5885  11.561  17.708   8.707 -0.0473  0.3671  0.0578
  368loPI   C2B 5886  11.505  17.374   8.374 -0.3115  0.2726  0.0732
  368loPI   C3B 5887  11.623  16.897   8.320  0.2624  0.1138  0.0407
  368loPI   C4B 5888  11.741  16.484   8.576  0.0731 -0.2227  0.1669
  369loPI    C1 5889   7.961  12.026   9.279  0.0138 -0.0632  0.1774
  369loPI    C2 5890   7.998  12.340   9.523  0.4172  0.0122  0.0268
  369loPI    C3 5891   7.638  12.178   9.460  0.2498  0.2460  0.3484
  369loPI   PO4 5892   8.230  12.055   9.205  0.0532 -0.4914  0.3043
  369loPI   GL1 5893   8.700  12.210   9.063  0.0659 -0.0487  0.3384
  369loPI   GL2 5894   8.937  12.134   9.154  0.0505  0.0489  0.1870
  369loPI   C1A 5895   8.834  12.369   8.659  0.3205  0.0382 -0.2943
  369loPI   C2A 5896   8.812  12.213   8.268 -0.4856 -0.1009  0.0304
  369loPI   C3A 5897   8.645  12.307   7.795 -0.3867 -0.1142  0.0772
  369loPI   C4A 5898   8.305  12.101   7.524  0.3893 -0.3002  0.2517
  369loPI   C5A 5899   7.933  11.903   7.423 -0.3460 -0.0542  0.1266
  369loPI   C6A 5900   7.540  11.957   7.326  0.1137  0.0702  0.0062
  369loPI   C1B 5901   9.278  12.037   8.858 -0.2703  0.0082 -0.1343
  369loPI   C2B 5902   9.634  11.850   8.812  0.2843  0.1943  0.4446
  369loPI   C3B 5903   9.822  11.287   8.784  0.2463  0.0661 -0.1801
  369loPI   C4B 5904   9.557  10.901   8.716 -0.1908  0.2909  0.2553
  370loPI    C1 5905  14.709   7.250  10.308 -0.0397 -0.2783 -0.2171
  370loPI    C2 5906  15.048   7.049  10.244  0.0734 -0.1703  0.0295
  370loPI    C3 5907  14.924   7.118  10.618  0.0912  0.3056 -0.0470
  370loPI   PO4 5908  14.654   7.434  10.054  0.4158  0.0525  0.0805
  370loPI   GL1 5909  14.506   7.755   9.800 -0.0640  0.0944 -0.2468
  370loPI   GL2 5910  14.764   7.712   9.648  0.0298 -0.1682 -0.0421
  370loPI   C1A 5911  14.168   7.936   9.492  0.0749  0.2358  0.2008
  370loPI   C2A 5912  14.067   7.773   9.115  0.0166  0.2271 -0.1435
  370loPI   C3A 5913  13.871   7.694   8.701  0.1429 -0.0088  0.3139
  370loPI   C4A 5914  13.726   7.663   8.314 -0.2519 -0.0566 -0.3569
  370loPI   C5A 5915  13.922   7.875   7.891  0.0773  0.1554  0.1552
  370loPI   C6A 5916  13.755   7.805   7.396  0.0993  0.1863  0.1201
  370loPI   C1B 5917  14.668   7.791   9.242 -0.2099  0.2902  0.1642
  370loPI   C2B 5918  14.875   7.802   8.780 -0.3192  0.1604  0.2037
  370loPI   C3B 5919  15.215   7.884   8.600  0.2282 -0.0083 -0.3136
  370loPI   C4B 5920  15.572   7.827   8.369 -0.0114  0.1485 -0.3503
  371loPI    C1 5921   1.946  15.276   9.399  0.0479  0.1154  0.0066
  371loPI    C2 5922   2.254  15.247   9.652 -0.0610 -0.1304  0.1138
  371loPI    C3 5923   1.886  15.149   9.773 -0.1052 -0.3124 -0.1573
  371loPI   PO4 5924   2.020  15.158   9.210  0.0769 -0.0927 -0.3116
  371loPI   GL1 5925   2.153  15.235   8.764 -0.1755  0.0246  0.2908
  371loPI   GL2 5926   2.438  15.147   8.634  0.3386 -0.2542  0.2090
  371loPI   C1A 5927   2.048  15.146   8.280 -0.0310 -0.0139  0.1919
  371loPI   C2A 5928   2.022  15.083   7.881 -0.2150  0.1353 -0.0133
  371loPI   C3A 5929   1.810  15.146   7.504 -0.0157  0.0846  0.2891
  371loPI   C4A 5930   1.929  15.314   7.177 -0.2518 -0.1323  0.0353
  371loPI   C5A 5931   1.727  15.582   6.863  0.0298  0.1354 -0.1642
  371loPI   C6A 5932   1.442  15.506   6.500 -0.3544  0.0837 -0.0826
  371loPI   C1B 5933   2.516  15.237   8.163  0.0244  0.2116  0.0421
  371loPI   C2B 5934   2.714  15.234   7.793  0.0655  0.1896  0.3535
  371loPI   C3B 5935   3.070  15.270   7.522 -0.2157 -0.1020 -0.0064
  371loPI   C4B 5936   3.354  14.947   7.323 -0.2727 -0.0950 -0.1244
  372loPI    C1 5937   4.696   8.658   9.606 -0.0775  0.2439  0.0055
  372loPI    C2 5938   4.818   8.875   9.919  0.2365  0.1032 -0.0151
  372loPI    C3 5939   4.666   8.510   9.976  0.1871  0.1230 -0.0190
  372loPI   PO4 5940   4.965   8.738   9.501  0.0507  0.1906 -0.1080
  372loPI   GL1 5941   5.221   8.622   9.176  0.1307 -0.2025  0.0586
  372loPI   GL2 5942   5.083   9.008   9.084  0.0832  0.1551 -0.6574
  372loPI   C1A 5943   5.369   8.619   8.745  0.1389 -0.3014  0.2694
  372loPI   C2A 5944   5.448   8.288   8.442 -0.0520 -0.1452  0.0390
  372loPI   C3A 5945   5.446   8.194   8.094 -0.1440  0.3562  0.0934
  372loPI   C4A 5946   5.629   8.255   7.598 -0.2255  0.3542 -0.0416
  372loPI   C5A 5947   5.768   8.258   7.227  0.0241 -0.0271 -0.2379
  372loPI   C6A 5948   5.946   8.048   6.903 -0.0213  0.0591 -0.3195
  372loPI   C1B 5949   4.881   8.854   8.749  0.0040  0.2602 -0.3891
  372loPI   C2B 5950   4.838   8.861   8.343  0.1943  0.1459  0.0170
  372loPI   C3B 5951   4.954   8.748   7.912  0.1771  0.1137 -0.0727
  372loPI   C4B 5952   5.081   8.669   7.492 -0.3935  0.1784  0.1267
  373loPI    C1 5953   5.040   8.257   9.778 -0.3868 -0.0319  0.0781
  373loPI    C2 5954   5.367   8.156   9.984 -0.1278 -0.1869 -0.3934
  373loPI    C3 5955   5.008   8.028  10.105 -0.0616  0.2211  0.2936
  373loPI   PO4 5956   5.140   8.272   9.488  0.0056 -0.2675  0.2449
  373loPI   GL1 5957   5.031   8.011   9.123 -0.1193  0.0767  0.1090
  373loPI   GL2 5958   5.399   7.853   9.199 -0.0676  0.1416  0.0612
  373loPI   C1A 5959   4.992   8.330   8.769 -0.2383 -0.0330  0.0688
  373loPI   C2A 5960   4.914   8.385   8.312 -0.0474  0.2997  0.1915
  373loPI   C3A 5961   5.078   8.247   7.771 -0.0483  0.0156  0.1402
  373loPI   C4A 5962   5.311   7.916   7.489  0.0385  0.1098  0.1441
  373loPI   C5A 5963   5.727   7.720   7.471 -0.0390 -0.0110  0.1395
  373loPI   C6A 5964   5.703   7.325   7.275 -0.0542 -0.1654  0.0155
  373loPI   C1B 5965   5.558   7.996   8.798 -0.0908 -0.4489 -0.0097
  373loPI   C2B 5966   5.458   7.779   8.371 -0.2816 -0.0087  0.0908
  373loPI   C3B 5967   5.346   7.637   7.989 -0.0450 -0.2788  0.0534
  373loPI   C4B 5968   5.393   7.410   7.601 -0.1914  0.0855 -0.4452
  374loPI    C1 5969   2.255   5.846   9.929  0.0434  0.0260  0.0045
  374loPI    C2 5970   2.023   5.536  10.030 -0.1596  0.1420 -0.0992
  374loPI    C3 5971   2.008   5.875  10.242  0.0044  0.1096 -0.0338
  374loPI   PO4 5972   2.503   5.798   9.890 -0.0394  0.1373 -0.0601
  374loPI   GL1 5973   2.661   5.938   9.560 -0.3213 -0.0534 -0.4041
  374loPI   GL2 5974   2.910   5.978   9.696 -0.2066 -0.3878 -0.0782
  374loPI   C1A 5975   2.570   5.905   9.164 -0.0308 -0.2069  0.0170
  374loPI   C2A 5976   2.598   6.078   8.722 -0.0260 -0.0513  0.2644
  374loPI   C3A 5977   2.852   6.271   8.251 -0.1929  0.0516 -0.0897
  374loPI   C4A 5978   2.822   6.371   7.794 -0.2484  0.1168  0.0754
  374loPI   C5A 5979   3.108   6.410   7.480 -0.1769  0.3779  0.0839
  374loPI   C6A 5980   3.442   6.572   7.391  0.0587 -0.1810  0.1707
  374loPI   C1B 5981   3.080   6.029   9.258  0.2145  0.0452 -0.0502
  374loPI   C2B 5982   3.133   6.230   8.907  0.0269  0.0131  0.2605
  374loPI   C3B 5983   3.255   6.054   8.492 -0.1417  0.0079 -0.2203
  374loPI   C4B 5984   3.273   6.089   7.995 -0.3260  0.1541 -0.0666
  375loPI    C1 5985  13.310   2.407   9.357 -0.2679 -0.3034 -0.2410
  375loPI    C2 5986  12.950   2.532   9.476  0.0440  0.1174  0.3067
  375loPI    C3 5987  13.117   2.211   9.647 -0.1589 -0.2190 -0.1099
  375loPI   PO4 5988  13.380   2.690   9.314  0.2912  0.1940  0.1105
  375loPI   GL1 5989  13.157   2.915   9.087 -0.2654  0.1062 -0.1220
  375loPI   GL2 5990  12.841   2.893   9.121 -0.1160  0.3231 -0.2287
  375loPI   C1A 5991  12.986   2.996   8.638 -0.3379 -0.1792 -0.2303
  375loPI   C2A 5992  13.011   3.300   8.422  0.3416  0.2948  0.0513
  375loPI   C3A 5993  12.666   3.289   8.099  0.0504  0.0189 -0.1957
  375loPI   C4A 5994  12.658   3.501   7.763  0.2557  0.1732 -0.4707
  375loPI   C5A 5995  12.688   3.812   7.442  0.0235 -0.0298 -0.0954
  375loPI   C6A 5996  12.679   3.955   7.026  0.2390  0.0740  0.3615
  375loPI   C1B 5997  12.621   2.666   8.752 -0.1516  0.0856 -0.1061
  375loPI   C2B 5998  12.388   2.406   8.447  0.3270  0.3698 -0.2255
  375loPI   C3B 5999  12.219   2.198   8.108 -0.0289  0.0806 -0.1979
  375loPI   C4B 6000  11.925   2.006   8.146 -0.0506  0.0449 -0.2279
  376loPI    C1 6001   3.323   9.838   9.863  0.3196 -0.0567  0.0206
  376loPI    C2 6002   3.117  10.109  10.073 -0.2760 -0.3830 -0.1210
  376loPI    C3 6003   3.408   9.899  10.249 -0.2989 -0.1656  0.1845
  376loPI   PO4 6004   3.241   9.864   9.595  0.2824  0.1900  0.1291
  376loPI   GL1 6005   2.981  10.026   9.262  0.2527  0.0301  0.0419
  376loPI   GL2 6006   2.856  10.349   9.166 -0.0434 -0.0733  0.2665
  376loPI   C1A 6007   3.064   9.965   8.870 -0.1707  0.2245 -0.0235
  376loPI   C2A 6008   3.031  10.064   8.384 -0.0018 -0.1124 -0.2360
  376loPI   C3A 6009   2.946  10.178   7.980 -0.1538 -0.0084  0.2321
  376loPI   C4A 6010   2.675  10.099   7.612 -0.0578 -0.1724 -0.2354
  376loPI   C5A 6011   2.814  10.234   7.144  0.1723 -0.0101 -0.0555
  376loPI   C6A 6012   3.053  10.582   6.859 -0.0962 -0.1066 -0.2386
  376loPI   C1B 6013   2.828  10.462   8.706 -0.0028 -0.0565 -0.0121
  376loPI   C2B 6014   2.704  10.526   8.276 -0.1738  0.1806  0.0997
  376loPI   C3B 6015   2.518  10.509   7.908 -0.0478  0.0567 -0.1229
  376loPI   C4B 6016   2.623  10.536   7.487 -0.0689  0.3748  0.1750
  377loPI    C1 6017  18.533   4.465   9.698 -0.1102 -0.0247  0.0315
  377loPI    C2 6018  18.189   4.431   9.899 -0.1302 -0.0436 -0.0059
  377loPI    C3 6019  18.534   4.330  10.074 -0.0951  0.3734  0.1798
  377loPI   PO4 6020  18.493   4.372   9.471  0.0807 -0.0756 -0.0589
  377loPI   GL1 6021  18.616   4.430   8.999 -0.0658 -0.0633 -0.1302
  377loPI   GL2 6022  18.295   4.129   9.113 -0.4995  0.0206 -0.0497
  377loPI   C1A 6023  18.447   4.485   8.693 -0.2505  0.1595  0.1989
  377loPI   C2A 6024  18.289   4.490   8.389  0.0344 -0.3254 -0.4797
  377loPI   C3A 6025  17.797   4.479   8.225  0.1781  0.2318  0.1654
  377loPI   C4A 6026  17.520   4.531   7.972  0.1140 -0.3376  0.3900
  377loPI   C5A 6027  17.234   4.598   7.728  0.1471 -0.0177  0.0704
  377loPI   C6A 6028  16.974   4.303   7.563 -0.0644  0.2232  0.0052
  377loPI   C1B 6029  18.257   3.978   8.713  0.1401 -0.0227  0.0195
  377loPI   C2B 6030  18.276   3.627   8.420  0.2978  0.3556 -0.1358
  377loPI   C3B 6031  18.314   3.503   8.020  0.0513  0.1704 -0.1136
  377loPI   C4B 6032  18.087   3.524   7.644  0.4815  0.0061  0.3743
  378loPI    C1 6033  18.416  13.296   9.936  0.0062 -0.0348  0.2887
  378loPI    C2 6034  18.626  13.628  10.013  0.0752  0.0035 -0.0497
  378loPI    C3 6035  18.807  13.271  10.017 -0.0006 -0.0346  0.3220
  378loPI   PO4 6036  18.327  13.300   9.675  0.3044  0.2581  0.0299
  378loPI   GL1 6037  18.096  13.270   9.275 -0.3802 -0.0966  0.3041
  378loPI   GL2 6038  18.095  13.087   9.136 -0.3697 -0.0042  0.2338
  378loPI   C1A 6039  18.127  13.456   8.728 -0.3243  0.2743  0.0283
  378loPI   C2A 6040  17.885  13.542   8.344  0.1390  0.1294  0.0534
  378loPI   C3A 6041  17.606  13.530   7.954  0.3316  0.2247 -0.2276
  378loPI   C4A 6042  17.524  13.580   7.535  0.3625  0.0538  0.2814
  378loPI   C5A 6043  17.642  13.767   7.198  0.0416  0.0847 -0.5416
  378loPI   C6A 6044  17.683  13.919   6.718 -0.3084 -0.2855  0.2019
  378loPI   C1B 6045  18.025  12.970   8.702  0.0282  0.2963 -0.1770
  378loPI   C2B 6046  18.045  13.058   8.277  0.0413  0.2121  0.2534
  378loPI   C3B 6047  18.025  13.041   7.918  0.4220 -0.1663 -0.1494
  378loPI   C4B 6048  17.652  13.010   7.675  0.4767 -0.2009  0.4969
  379loPI    C1 6049  11.825   1.697  10.023 -0.2075  0.4069  0.2235
  379loPI    C2 6050  11.655   1.415  10.251 -0.4290  0.2404 -0.1382
  379loPI    C3 6051  11.633   1.799  10.359  0.0857  0.1123  0.4885
  379loPI   PO4 6052  11.751   1.605   9.810  0.0642  0.4478  0.0152
  379loPI   GL1 6053  11.465   1.631   9.503  0.0233 -0.1512  0.1289
  379loPI   GL2 6054  11.400   1.918   9.517  0.0775 -0.1663 -0.0560
  379loPI   C1A 6055  11.710   1.625   9.077 -0.0390  0.0745  0.0076
  379loPI   C2A 6056  11.512   1.556   8.648 -0.1392 -0.2233  0.0901
  379loPI   C3A 6057  11.199   1.693   8.236 -0.2961  0.3000 -0.0520
  379loPI   C4A 6058  11.038   1.843   7.877 -0.1932 -0.3823  0.1512
  379loPI   C5A 6059  10.715   1.834   7.526  0.2813  0.0671  0.0327
  379loPI   C6A 6060  10.351   1.924   7.208  0.3843  0.0627  0.2343
  379loPI   C1B 6061  11.224   2.129   9.196 -0.0595 -0.0282  0.2218
  379loPI   C2B 6062  10.834   2.341   8.961 -0.4080 -0.1017 -0.0577
  379loPI   C3B 6063  10.459   2.358   8.752  0.1415 -0.1392 -0.0519
  379loPI   C4B 6064  10.108   2.222   8.710 -0.0017  0.3788 -0.3619
  380loPI    C1 6065   8.516  15.262   9.735 -0.1643 -0.1244 -0.1556
  380loPI    C2 6066   8.213  15.119   9.954 -0.0805  0.0594  0.0848
  380loPI    C3 6067   8.255  15.514   9.904  0.1760  0.0409  0.1377
  380loPI   PO4 6068   8.565  15.104   9.485  0.0221 -0.1011 -0.0996
  380loPI   GL1 6069   8.700  14.693   9.308  0.0918  0.0632 -0.2337
  380loPI   GL2 6070   8.789  14.378   9.082  0.0954  0.0378 -0.0269
  380loPI   C1A 6071   8.785  14.834   8.943 -0.0893  0.0707  0.0380
  380loPI   C2A 6072   8.788  14.737   8.527 -0.1684 -0.0384  0.0884
  380loPI   C3A 6073   8.766  14.451   8.226 -0.0580 -0.1601  0.2095
  380loPI   C4A 6074   8.690  14.507   7.845 -0.1888  0.0928  0.0490
  380loPI   C5A 6075   8.876  14.306   7.595  0.4487  0.0220 -0.1746
  380loPI   C6A 6076   9.173  14.365   7.365 -0.2100 -0.2662 -0.2950
  380loPI   C1B 6077   8.979  14.101   8.865  0.3893  0.1965 -0.0731
  380loPI   C2B 6078   9.105  14.128   8.466  0.0184 -0.1954 -0.0520
  380loPI   C3B 6079   9.204  14.036   8.057  0.0189  0.3101  0.1657
  380loPI   C4B 6080   9.486  14.051   7.608  0.4353 -0.0130 -0.2736
  381loPI    C1 6081  12.143  12.363  10.189 -0.1221  0.0910 -0.1895
  381loPI    C2 6082  12.469  12.305  10.414 -0.0695  0.2526 -0.2227
  381loPI    C3 6083  12.107  12.228  10.564 -0.0077 -0.0994 -0.2455
  381loPI   PO4 6084  12.208  12.261   9.893  0.1019 -0.2463  0.0910
  381loPI   GL1 6085  12.076  12.256   9.450 -0.0116 -0.0669  0.2140
  381loPI   GL2 6086  12.475  12.225   9.327  0.1600  0.2670  0.1081
  381loPI   C1A 6087  11.957  12.100   9.077 -0.2194 -0.3290  0.1645
  381loPI   C2A 6088  11.865  11.842   8.669 -0.2125 -0.4083  0.2464
  381loPI   C3A 6089  11.598  11.865   8.330 -0.1713 -0.0814 -0.4781
  381loPI   C4A 6090  11.189  11.834   8.247  0.2305 -0.1718 -0.0887
  381loPI   C5A 6091  11.075  11.558   7.897  0.0698 -0.1329  0.1439
  381loPI   C6A 6092  10.877  11.333   7.711 -0.0734 -0.0062  0.1530
  381loPI   C1B 6093  12.936  12.231   9.058  0.1408 -0.1863 -0.1848
  381loPI   C2B 6094  12.891  11.981   8.630 -0.3475 -0.1165 -0.3547
  381loPI   C3B 6095  12.531  11.687   8.455  0.0563  0.1016  0.0327
  381loPI   C4B 6096  12.650  11.320   8.188 -0.0353  0.0093 -0.0170
  382loPI    C1 6097   5.182   9.998   9.893 -0.1424  0.1164 -0.2784
  382loPI    C2 6098   4.892   9.916  10.156  0.2153 -0.2613  0.0110
  382loPI    C3 6099   5.223  10.106  10.276  0.1819 -0.0160 -0.2731
  382loPI   PO4 6100   5.016  10.011   9.617  0.1304 -0.3452 -0.1631
  382loPI   GL1 6101   5.271   9.918   9.251 -0.0862  0.1089  0.1923
  382loPI   GL2 6102   4.996   9.725   9.182  0.0197  0.1479 -0.1550
  382loPI   C1A 6103   5.538   9.980   8.851 -0.0873 -0.2046 -0.0788
  382loPI   C2A 6104   5.795  10.163   8.637 -0.1033 -0.0474  0.2558
  382loPI   C3A 6105   6.061  10.281   8.293  0.0039  0.1155 -0.3826
  382loPI   C4A 6106   6.368  10.037   8.185  0.1486 -0.0630 -0.5386
  382loPI   C5A 6107   6.357   9.655   7.910 -0.2376 -0.2452  0.0491
  382loPI   C6A 6108   6.268   9.332   7.525 -0.2467 -0.0243  0.0939
  382loPI   C1B 6109   4.983   9.858   8.696 -0.2192 -0.1164 -0.3810
  382loPI   C2B 6110   5.358   9.832   8.411  0.1002  0.2693 -0.1093
  382loPI   C3B 6111   5.514   9.401   8.073 -0.1387 -0.5530  0.3520
  382loPI   C4B 6112   5.726   9.468   7.664 -0.1526  0.4845 -0.0260
  383loPI    C1 6113   2.563  11.858   9.669  0.1212 -0.2425  0.1907
  383loPI    C2 6114   2.916  11.776   9.838  0.1330 -0.2648  0.1552
  383loPI    C3 6115   2.578  11.711  10.041  0.1476 -0.2808  0.1744
  383loPI   PO4 6116   2.507  11.751   9.539 -0.0898  0.0288  0.0271
  383loPI   GL1 6117   2.495  11.704   9.169  0.1788  0.1048  0.0401
  383loPI   GL2 6118   2.190  11.617   9.040  0.0424 -0.1151 -0.1742
  383loPI   C1A 6119   2.798  11.658   8.874  0.1009  0.0691 -0.3677
  383loPI   C2A 6120   2.981  11.583   8.563  0.2975  0.3625 -0.0312
  383loPI   C3A 6121   2.919  11.589   8.135  0.0571 -0.0097  0.2926
  383loPI   C4A 6122   2.826  11.600   7.785 -0.3496  0.1633 -0.1197
  383loPI   C5A 6123   2.892  11.737   7.257  0.1102  0.3086 -0.0543
  383loPI   C6A 6124   3.074  12.103   7.076  0.1788 -0.0038  0.1101
  383loPI   C1B 6125   2.417  11.272   8.708 -0.0829  0.2690  0.3003
  383loPI   C2B 6126   2.481  11.134   8.210 -0.0030  0.0951  0.2349
  383loPI   C3B 6127   2.697  11.057   7.704 -0.1801  0.2161 -0.0491
  383loPI   C4B 6128   2.917  10.902   7.377 -0.0710 -0.4368 -0.0019
  384loPI    C1 6129  10.417  13.101  10.137 -0.0016  0.1198 -0.1590
  384loPI    C2 6130  10.631  13.418  10.254  0.0355  0.0844 -0.1303
  384loPI    C3 6131  10.351  13.266  10.495  0.2035 -0.0706 -0.0310
  384loPI   PO4 6132  10.379  13.149   9.843 -0.2588  0.2394 -0.0614
  384loPI   GL1 6133  10.642  13.088   9.482 -0.1116 -0.1810  0.0299
  384loPI   GL2 6134  10.898  12.913   9.442  0.0606  0.0151  0.0830
  384loPI   C1A 6135  10.589  13.305   9.090 -0.1650 -0.1301  0.1974
  384loPI   C2A 6136  10.439  13.540   8.750  0.0223 -0.1293  0.0829
  384loPI   C3A 6137  10.337  13.705   8.359 -0.2968 -0.0299 -0.2645
  384loPI   C4A 6138  10.342  13.650   7.902 -0.2536 -0.1016 -0.3292
  384loPI   C5A 6139  10.587  13.755   7.563  0.4461  0.2770  0.0701
  384loPI   C6A 6140  10.874  14.075   7.335 -0.0922 -0.1322 -0.2287
  384loPI   C1B 6141  10.825  12.701   9.139  0.0253 -0.1867 -0.0991
  384loPI   C2B 6142  10.790  12.840   8.710  0.0535  0.0079 -0.3611
  384loPI   C3B 6143  10.816  12.848   8.243  0.1735  0.0867  0.0276
  384loPI   C4B 6144  10.840  12.858   7.744 -0.0387 -0.0980 -0.1220
  385loPI    C1 6145   0.695   5.413   9.937  0.3965 -0.0391  0.0776
  385loPI    C2 6146   0.789   5.801   9.904  0.3518 -0.0250  0.1142
  385loPI    C3 6147   0.582   5.672  10.221 -0.0859  0.0096 -0.1482
  385loPI   PO4 6148   0.636   5.365   9.655  0.0139 -0.1319 -0.1563
  385loPI   GL1 6149   1.007   5.287   9.285  0.1044  0.2681  0.2537
  385loPI   GL2 6150   1.187   5.632   9.206  0.2810 -0.2509  0.2066
  385loPI   C1A 6151   1.088   4.993   9.011 -0.1102  0.0135  0.0810
  385loPI   C2A 6152   1.060   4.820   8.548 -0.0401 -0.7076  0.0742
  385loPI   C3A 6153   1.139   4.927   8.184  0.0318 -0.2351 -0.1573
  385loPI   C4A 6154   1.259   5.114   7.947  0.0483  0.1434  0.2554
  385loPI   C5A 6155   0.984   5.416   7.771  0.1049  0.0050  0.0793
  385loPI   C6A 6156   1.040   5.592   7.360  0.0204  0.1442 -0.3041
  385loPI   C1B 6157   1.193   5.386   8.774  0.1519  0.1042  0.1620
  385loPI   C2B 6158   1.512   5.116   8.519  0.0102 -0.1354  0.4846
  385loPI   C3B 6159   1.638   4.810   8.588  0.1236  0.0983 -0.1219
  385loPI   C4B 6160   1.710   4.465   8.317  0.2199  0.1216 -0.0287
  386loPI    C1 6161   1.729   4.331   9.868  0.0437 -0.3024 -0.2762
  386loPI    C2 6162   2.121   4.257   9.899  0.0900 -0.0377 -0.2054
  386loPI    C3 6163   1.856   4.005  10.062  0.2446 -0.0205  0.0788
  386loPI   PO4 6164   1.553   4.362   9.533  0.0349 -0.1433 -0.0530
  386loPI   GL1 6165   1.222   4.338   9.289 -0.1287 -0.1816  0.3286
  386loPI   GL2 6166   1.452   4.114   9.100  0.1688  0.1283 -0.1723
  386loPI   C1A 6167   0.945   4.558   9.000  0.1385  0.0019 -0.4785
  386loPI   C2A 6168   0.736   4.490   8.560 -0.1948 -0.3285  0.2494
  386loPI   C3A 6169   0.750   4.363   8.063 -0.1050  0.0328  0.0762
  386loPI   C4A 6170   0.762   4.191   7.633  0.1424  0.1580  0.0443
  386loPI   C5A 6171   1.095   4.079   7.265 -0.4355 -0.1667 -0.5305
  386loPI   C6A 6172   1.209   4.022   6.849  0.3634 -0.0207  0.0839
  386loPI   C1B 6173   1.349   4.391   8.696  0.1644 -0.1711 -0.2328
  386loPI   C2B 6174   1.222   4.492   8.240  0.0509 -0.1179  0.0460
  386loPI   C3B 6175   0.989   4.702   7.781 -0.2585 -0.3786 -0.2838
  386loPI   C4B 6176   0.704   4.869   7.899  0.1467 -0.3437 -0.1455
  387loPI    C1 6177  12.701   4.766  10.180  0.0396  0.0477 -0.1996
  387loPI    C2 6178  12.610   4.830  10.565 -0.1375 -0.0783 -0.2188
  387loPI    C3 6179  12.722   4.466  10.444 -0.1892 -0.0653 -0.3069
  387loPI   PO4 6180  12.545   4.795   9.973  0.1381 -0.0259  0.0429
  387loPI   GL1 6181  12.459   5.281   9.699  0.0032  0.0970 -0.0354
  387loPI   GL2 6182  12.510   5.601   9.604 -0.1730  0.1072 -0.3165
  387loPI   C1A 6183  12.585   5.228   9.153 -0.0190  0.2297 -0.1875
  387loPI   C2A 6184  12.414   5.262   8.771 -0.0145  0.0786 -0.0767
  387loPI   C3A 6185  12.510   5.225   8.359  0.2825 -0.0012 -0.1584
  387loPI   C4A 6186  12.610   5.386   7.968  0.0521 -0.4806  0.0915
  387loPI   C5A 6187  12.505   5.769   7.759 -0.1430  0.3591  0.1213
  387loPI   C6A 6188  12.460   6.126   7.711 -0.2291  0.1107 -0.0458
  387loPI   C1B 6189  12.340   5.632   9.087  0.3430  0.1722 -0.1885
  387loPI   C2B 6190  12.247   5.696   8.647 -0.1148 -0.1706  0.1121
  387loPI   C3B 6191  11.787   5.773   8.420  0.1361 -0.0709  0.0289
  387loPI   C4B 6192  11.643   5.389   8.051 -0.0529  0.2870  0.1058
  388loPI    C1 6193  10.258  12.643  10.113  0.1031 -0.2386  0.0469
  388loPI    C2 6194  10.244  12.321  10.350 -0.4599 -0.2177  0.0569
  388loPI    C3 6195  10.067  12.661  10.464  0.0659  0.0818  0.0132
  388loPI   PO4 6196  10.400  12.487   9.898  0.1334  0.1007 -0.2905
  388loPI   GL1 6197  10.504  12.591   9.523 -0.0336  0.1534  0.1600
  388loPI   GL2 6198  10.436  12.327   9.200 -0.0468  0.1221  0.2685
  388loPI   C1A 6199  10.267  12.842   9.216  0.1392 -0.3290  0.1126
  388loPI   C2A 6200  10.292  13.093   8.774 -0.1191 -0.1956 -0.0924
  388loPI   C3A 6201  10.384  13.147   8.347  0.1389 -0.4201  0.1459
  388loPI   C4A 6202  10.385  13.077   7.913 -0.0235  0.0088 -0.0544
  388loPI   C5A 6203  10.370  13.266   7.527  0.0653 -0.1603  0.1356
  388loPI   C6A 6204  10.104  13.528   7.325 -0.0883 -0.0497  0.4899
  388loPI   C1B 6205  10.353  12.200   8.863 -0.1270 -0.2061  0.0242
  388loPI   C2B 6206  10.566  11.958   8.535 -0.1732 -0.5343 -0.0884
  388loPI   C3B 6207  10.678  11.592   8.205  0.3643  0.0205 -0.2410
  388loPI   C4B 6208  10.501  11.304   8.106  0.0722  0.0756 -0.1372
  389loPI    C1 6209   5.824  13.701   8.984 -0.2897 -0.1291 -0.0607
  389loPI    C2 6210   5.524  13.883   9.176 -0.0521  0.1029  0.0981
  389loPI    C3 6211   5.745  13.608   9.365 -0.2445 -0.1662 -0.0603
  389loPI   PO4 6212   6.087  13.906   8.940 -0.5056 -0.0240 -0.1648
  389loPI   GL1 6213   6.128  14.002   8.474  0.2323  0.0406  0.0783
  389loPI   GL2 6214   6.213  14.371   8.530  0.2202  0.1055  0.2082
  389loPI   C1A 6215   6.127  13.752   8.094 -0.3515 -0.0608 -0.0093
  389loPI   C2A 6216   6.216  13.820   7.621  0.2735 -0.1367 -0.3540
  389loPI   C3A 6217   6.367  13.547   7.240  0.0426 -0.1100 -0.1326
  389loPI   C4A 6218   6.502  13.164   7.215  0.3047  0.1120 -0.1735
  389loPI   C5A 6219   6.378  12.759   7.396  0.0498  0.0531  0.0415
  389loPI   C6A 6220   6.430  12.333   7.207 -0.1256  0.3485  0.1003
  389loPI   C1B 6221   6.134  14.362   8.096 -0.2979 -0.1036 -0.1419
  389loPI   C2B 6222   6.249  14.443   7.688 -0.3321 -0.0714  0.0529
  389loPI   C3B 6223   6.377  14.256   7.339  0.1362 -0.0425 -0.1448
  389loPI   C4B 6224   6.142  13.932   7.047 -0.0429  0.1094  0.1134
  390loPI    C1 6225   0.163  11.509   9.699 -0.1756  0.0146  0.0927
  390loPI    C2 6226   0.445  11.791   9.738  0.0664 -0.1341 -0.4834
  390loPI    C3 6227   0.380  11.531  10.035  0.3734  0.0484 -0.2504
  390loPI   PO4 6228   0.130  11.569   9.372  0.1251  0.1298  0.0879
  390loPI   GL1 6229   0.098  11.184   9.177  0.0017 -0.0964 -0.0592
  390loPI   GL2 6230   0.034  10.846   9.006 -0.0468  0.1840 -0.0405
  390loPI   C1A 6231   0.106  11.280   8.685 -0.0410 -0.0363 -0.1304
  390loPI   C2A 6232   0.059  11.353   8.255  0.0464 -0.0615  0.2990
  390loPI   C3A 6233   0.234  11.653   7.983  0.0206  0.0783 -0.1860
  390loPI   C4A 6234   0.298  11.845   7.671  0.0673 -0.0579  0.0045
  390loPI   C5A 6235   0.366  12.153   7.345  0.0401 -0.3258 -0.1647
  390loPI   C6A 6236   0.619  12.325   7.076  0.1226 -0.4057 -0.0425
  390loPI   C1B 6237  -0.115  10.820   8.648 -0.0951 -0.0791  0.0576
  390loPI   C2B 6238  -0.242  10.970   8.265 -0.3592  0.1803 -0.1239
  390loPI   C3B 6239  -0.433  11.141   7.855  0.1683  0.1485  0.1630
  390loPI   C4B 6240  -0.246  11.126   7.427  0.1622 -0.0258  0.0105
  391loPI    C1 6241   3.488   3.918   9.964  0.0642  0.0484 -0.2058
  391loPI    C2 6242   3.647   4.173  10.228 -0.1057 -0.0807  0.0253
  391loPI    C3 6243   3.255   4.184  10.150 -0.0955 -0.2005 -0.0445
  391loPI   PO4 6244   3.701   3.965   9.711 -0.2735 -0.2229 -0.1575
  391loPI   GL1 6245   3.701   4.013   9.294  0.0625  0.2340 -0.2097
  391loPI   GL2 6246   3.767   3.881   8.998 -0.1502  0.1379  0.0648
  391loPI   C1A 6247   3.833   4.395   9.013 -0.1984 -0.2988  0.1498
  391loPI   C2A 6248   3.758   4.564   8.472 -0.0344 -0.0969 -0.2424
  391loPI   C3A 6249   3.862   4.657   8.045 -0.1439 -0.1726  0.2053
  391loPI   C4A 6250   3.719   4.552   7.612 -0.0330 -0.0466  0.1283
  391loPI   C5A 6251   3.438   4.680   7.389  0.0705 -0.0742 -0.1695
  391loPI   C6A 6252   3.458   5.012   7.389  0.2286  0.0442  0.2140
  391loPI   C1B 6253   4.124   3.995   8.714  0.0501  0.4789 -0.2286
  391loPI   C2B 6254   4.287   4.307   8.409  0.2247  0.0337  0.2030
  391loPI   C3B 6255   4.477   4.534   8.030 -0.0762  0.1962 -0.1272
  391loPI   C4B 6256   4.178   4.749   7.631 -0.0384  0.2566 -0.1850
  392loPI    C1 6257   9.529  13.123   9.921 -0.1464  0.0841  0.0149
  392loPI    C2 6258   9.313  13.418  10.084 -0.1021  0.0599  0.1184
  392loPI    C3 6259   9.182  13.040  10.103 -0.0550  0.0462  0.1741
  392loPI   PO4 6260   9.799  13.303   9.786 -0.1996  0.1115 -0.1810
  392loPI   GL1 6261  10.136  13.400   9.467 -0.0255 -0.1908 -0.1408
  392loPI   GL2 6262  10.317  13.571   9.395 -0.1910 -0.2686 -0.0794
  392loPI   C1A 6263   9.990  13.449   8.988 -0.0347 -0.1996 -0.0677
  392loPI   C2A 6264   9.850  13.554   8.674  0.1221 -0.4586  0.3783
  392loPI   C3A 6265   9.884  13.518   8.373 -0.2172 -0.0485  0.2598
  392loPI   C4A 6266   9.900  13.482   7.981  0.1288 -0.3524 -0.1395
  392loPI   C5A 6267   9.930  13.111   7.715  0.3292 -0.1008 -0.0880
  392loPI   C6A 6268   9.917  12.757   7.526  0.0911 -0.0208 -0.2602
  392loPI   C1B 6269  10.270  13.945   9.089  0.0188 -0.0882  0.1999
  392loPI   C2B 6270  10.566  14.044   8.878  0.0806 -0.0446  0.1346
  392loPI   C3B 6271  10.595  14.193   8.458  0.1625  0.2451 -0.0148
  392loPI   C4B 6272  10.561  14.462   8.082  0.1968  0.2849  0.0349
  393loPI    C1 6273   4.865   6.965   9.484 -0.1097  0.1704 -0.0144
  393loPI    C2 6274   4.556   6.714   9.445 -0.0602  0.1357 -0.1910
  393loPI    C3 6275   4.599   6.928   9.780 -0.1158 -0.0739 -0.0481
  393loPI   PO4 6276   4.895   7.034   9.184 -0.0632 -0.0765  0.0067
  393loPI   GL1 6277   4.683   6.778   8.977 -0.1846  0.1219  0.0540
  393loPI   GL2 6278   4.982   6.856   8.710  0.2331  0.4098  0.3173
  393loPI   C1A 6279   4.551   6.769   8.525  0.1066  0.1923  0.1184
  393loPI   C2A 6280   4.259   6.876   8.139  0.0882 -0.0384 -0.0304
  393loPI   C3A 6281   4.061   6.715   7.837 -0.1664 -0.1748  0.1114
  393loPI   C4A 6282   3.776   6.430   7.790 -0.0995 -0.0138 -0.1996
  393loPI   C5A 6283   3.497   6.083   7.563 -0.3369 -0.1926 -0.1267
  393loPI   C6A 6284   3.152   5.894   7.497  0.2475 -0.0260  0.1152
  393loPI   C1B 6285   4.881   6.764   8.145 -0.0254 -0.1916 -0.2527
  393loPI   C2B 6286   4.706   6.600   7.744 -0.0593  0.0348 -0.2284
  393loPI   C3B 6287   4.378   6.416   7.525 -0.0199  0.4004  0.2297
  393loPI   C4B 6288   3.938   6.251   7.334  0.2698 -0.1505  0.2136
  394loPI    C1 6289  11.145  14.291   9.828 -0.1662 -0.1791  0.0126
  394loPI    C2 6290  10.806  14.265  10.038 -0.1103 -0.3511  0.0828
  394loPI    C3 6291  11.148  14.361  10.221 -0.1456 -0.0323 -0.0132
  394loPI   PO4 6292  11.146  14.019   9.689  0.1311 -0.1045  0.1851
  394loPI   GL1 6293  11.249  14.016   9.262  0.0886  0.1183  0.0022
  394loPI   GL2 6294  11.519  14.207   9.442  0.0579 -0.2455  0.1578
  394loPI   C1A 6295  11.394  13.696   9.017  0.0892 -0.3720  0.2061
  394loPI   C2A 6296  11.326  13.638   8.658  0.1640  0.1546  0.1139
  394loPI   C3A 6297  11.283  13.578   8.227  0.2969  0.1033 -0.2805
  394loPI   C4A 6298  11.487  13.531   7.876 -0.0479 -0.0034 -0.1393
  394loPI   C5A 6299  11.690  13.812   7.645 -0.1803 -0.1290  0.0376
  394loPI   C6A 6300  11.796  14.093   7.380  0.0517 -0.0770  0.2436
  394loPI   C1B 6301  11.620  14.121   9.014 -0.0750 -0.0172  0.2190
  394loPI   C2B 6302  11.735  13.951   8.666 -0.0989 -0.0564 -0.2334
  394loPI   C3B 6303  12.105  13.750   8.363 -0.1080 -0.1866 -0.0501
  394loPI   C4B 6304  12.120  13.666   7.944 -0.1741 -0.2177 -0.0551
  395loPI    C1 6305  13.816   7.974  10.352  0.2814  0.0026  0.2308
  395loPI    C2 6306  13.905   7.753  10.031 -0.1491 -0.2450  0.2749
  395loPI    C3 6307  14.198   7.924  10.243  0.1427 -0.1063 -0.2245
  395loPI   PO4 6308  13.674   8.129  10.283  0.1112 -0.6192  0.0757
  395loPI   GL1 6309  13.714   8.366   9.875 -0.0745 -0.1629 -0.2147
  395loPI   GL2 6310  13.970   8.236   9.825  0.2880  0.3347 -0.0191
  395loPI   C1A 6311  13.623   7.958   9.556  0.0211  0.2052 -0.2133
  395loPI   C2A 6312  13.492   7.714   9.150  0.1077  0.1849 -0.0093
  395loPI   C3A 6313  13.378   7.826   8.775 -0.1331 -0.3375  0.1265
  395loPI   C4A 6314  13.325   7.955   8.369 -0.2333  0.2982 -0.0781
  395loPI   C5A 6315  13.393   7.768   7.913  0.4421  0.1318  0.0788
  395loPI   C6A 6316  13.333   7.557   7.573 -0.0565  0.1586  0.4268
  395loPI   C1B 6317  13.931   8.410   9.412 -0.0740 -0.0536 -0.0667
  395loPI   C2B 6318  14.103   8.579   8.957  0.1456 -0.1598  0.0535
  395loPI   C3B 6319  14.321   8.600   8.606 -0.0232  0.0900 -0.3405
  395loPI   C4B 6320  14.573   8.447   8.362  0.0482  0.4231 -0.3041
  396loPI    C1 6321  17.607   7.071   9.921  0.1419 -0.1366  0.1417
  396loPI    C2 6322  17.775   7.357   9.698 -0.1343 -0.1048 -0.0310
  396loPI    C3 6323  17.468   7.445   9.938 -0.2188 -0.2546 -0.0830
  396loPI   PO4 6324  17.531   6.912   9.737  0.0088 -0.0316  0.1941
  396loPI   GL1 6325  17.719   6.602   9.486  0.1132  0.2656 -0.2089
  396loPI   GL2 6326  17.785   6.384   9.543 -0.0746 -0.0225 -0.4052
  396loPI   C1A 6327  17.829   6.837   9.044 -0.2365  0.1779 -0.2174
  396loPI   C2A 6328  17.670   6.793   8.546  0.0613 -0.0223 -0.0483
  396loPI   C3A 6329  17.871   6.885   8.211  0.0623  0.1667  0.0745
  396loPI   C4A 6330  17.873   7.025   7.924  0.4022  0.1707 -0.0480
  396loPI   C5A 6331  17.848   7.144   7.464  0.1188 -0.2549  0.2040
  396loPI   C6A 6332  18.291   7.371   7.365  0.3017 -0.0315 -0.2990
  396loPI   C1B 6333  18.021   6.327   9.138  0.2667 -0.1044 -0.2199
  396loPI   C2B 6334  18.037   6.507   8.683 -0.1864 -0.2828 -0.2771
  396loPI   C3B 6335  17.992   6.428   8.296 -0.0003 -0.0166 -0.0107
  396loPI   C4B 6336  18.289   6.603   7.975 -0.0106  0.0482 -0.1030
  397loPI    C1 6337   3.261   6.237  10.087  0.1055  0.1693 -0.0661
  397loPI    C2 6338   3.340   6.624  10.146 -0.0403  0.1600  0.2103
  397loPI    C3 6339   3.548   6.345  10.343  0.0856  0.0945 -0.0116
  397loPI   PO4 6340   3.314   6.272   9.781  0.1792 -0.0355 -0.0019
  397loPI   GL1 6341   3.665   6.198   9.454 -0.3848 -0.1022 -0.0514
  397loPI   GL2 6342   3.398   6.408   9.284  0.2020  0.1258 -0.0846
  397loPI   C1A 6343   3.977   5.885   9.256  0.0734 -0.0579  0.0035
  397loPI   C2A 6344   4.256   5.716   8.967  0.0362  0.1331 -0.3908
  397loPI   C3A 6345   4.277   5.521   8.578 -0.0738 -0.2456 -0.0460
  397loPI   C4A 6346   4.291   5.354   8.254  0.2483  0.0963 -0.0094
  397loPI   C5A 6347   3.953   5.223   7.853 -0.0517  0.0821  0.1975
  397loPI   C6A 6348   3.592   5.008   7.845  0.1426  0.0934  0.1644
  397loPI   C1B 6349   3.231   6.703   9.019 -0.0001  0.2067  0.2760
  397loPI   C2B 6350   2.938   7.055   8.905  0.2600  0.1472  0.1536
  397loPI   C3B 6351   2.749   7.216   8.492 -0.1819  0.3271  0.3108
  397loPI   C4B 6352   2.668   7.401   8.135 -0.0166 -0.1310  0.0747
  398loPI    C1 6353  11.490  11.548   9.602 -0.0671  0.2973  0.2512
  398loPI    C2 6354  11.181  11.432   9.829 -0.0443  0.1755  0.2211
  398loPI    C3 6355  11.128  11.706   9.543 -0.0894  0.2735  0.3226
  398loPI   PO4 6356  11.713  11.345   9.643  0.1777 -0.2387 -0.1948
  398loPI   GL1 6357  12.049  11.337   9.401 -0.5000  0.0371  0.0570
  398loPI   GL2 6358  12.028  11.655   9.263  0.1858  0.1289 -0.0679
  398loPI   C1A 6359  12.016  11.085   9.140  0.2491 -0.1360  0.0586
  398loPI   C2A 6360  12.106  10.896   8.797 -0.3868 -0.2054 -0.1939
  398loPI   C3A 6361  12.349  10.794   8.481 -0.2053 -0.0724 -0.2406
  398loPI   C4A 6362  12.642  10.755   8.008 -0.0261  0.1875  0.3358
  398loPI   C5A 6363  12.922  10.795   7.707 -0.1837 -0.1488 -0.0833
  398loPI   C6A 6364  12.815  11.023   7.312  0.0973  0.1449  0.0452
  398loPI   C1B 6365  12.289  11.503   8.993  0.0084  0.2851  0.0895
  398loPI   C2B 6366  12.294  11.300   8.580  0.1784 -0.0600 -0.3508
  398loPI   C3B 6367  12.095  11.613   8.258  0.1218  0.1914 -0.3287
  398loPI   C4B 6368  12.153  11.957   8.031 -0.0906  0.0695 -0.1180
  399loPI    C1 6369  15.741   0.982   9.724 -0.0795  0.1686 -0.1869
  399loPI    C2 6370  15.710   0.660   9.488  0.0480 -0.0910  0.1425
  399loPI    C3 6371  15.469   0.700   9.804  0.1551  0.0472  0.2081
  399loPI   PO4 6372  15.757   1.187   9.454 -0.6107  0.1590 -0.0880
  399loPI   GL1 6373  15.724   1.504   9.158  0.0999 -0.1095 -0.0373
  399loPI   GL2 6374  15.619   1.792   9.195 -0.3807  0.1545  0.0635
  399loPI   C1A 6375  15.847   1.512   8.720  0.0260 -0.0529  0.0632
  399loPI   C2A 6376  15.968   1.471   8.271 -0.0112  0.0415  0.1440
  399loPI   C3A 6377  15.810   1.254   7.886  0.2403 -0.0291 -0.0464
  399loPI   C4A 6378  15.570   1.017   7.534 -0.2840  0.4356  0.0474
  399loPI   C5A 6379  15.687   0.615   7.343 -0.0250 -0.1002  0.0122
  399loPI   C6A 6380  15.672   0.276   7.175  0.0055  0.0141 -0.0865
  399loPI   C1B 6381  15.394   1.740   8.786 -0.0689  0.0469 -0.1477
  399loPI   C2B 6382  15.575   1.772   8.355  0.4916 -0.1032  0.0164
  399loPI   C3B 6383  15.524   1.758   7.908 -0.2173 -0.1852 -0.0302
  399loPI   C4B 6384  15.707   1.623   7.618  0.3378 -0.0994 -0.0506
  400loPI    C1 6385   2.485   3.124  10.059  0.1686 -0.0822 -0.1357
  400loPI    C2 6386   2.111   3.165  10.194  0.0504  0.0009 -0.4784
  400loPI    C3 6387   2.408   3.374  10.362 -0.0487 -0.0919 -0.1811
  400loPI   PO4 6388   2.458   3.215   9.707 -0.1293 -0.2681  0.0113
  400loPI   GL1 6389   2.611   3.168   9.277 -0.0135  0.0370 -0.0662
  400loPI   GL2 6390   2.711   3.458   9.054  0.3574 -0.2191 -0.0674
  400loPI   C1A 6391   2.299   3.025   8.924  0.1425  0.1825  0.4052
  400loPI   C2A 6392   2.125   3.102   8.545 -0.0342  0.0141  0.2000
  400loPI   C3A 6393   2.256   3.275   8.228  0.2147  0.1229 -0.1604
  400loPI   C4A 6394   2.153   3.130   7.867  0.2127  0.0073  0.2073
  400loPI   C5A 6395   2.152   3.176   7.426  0.0803 -0.2500  0.0023
  400loPI   C6A 6396   2.458   2.939   7.121  0.2148  0.0406 -0.0688
  400loPI   C1B 6397   2.977   3.866   8.857  0.1645  0.0578  0.1754
  400loPI   C2B 6398   3.094   4.058   8.455 -0.0595 -0.1583  0.0570
  400loPI   C3B 6399   3.299   4.387   8.267 -0.1634 -0.5224 -0.0202
  400loPI   C4B 6400   3.215   4.663   7.838  0.1191 -0.2021  0.1008
  401loPI    C1 6401   0.394  11.009   9.894  0.0950 -0.0824 -0.0075
  401loPI    C2 6402   0.467  10.618   9.852 -0.0005 -0.0906 -0.1011
  401loPI    C3 6403   0.458  10.782  10.217 -0.2060 -0.2238 -0.0442
  401loPI   PO4 6404   0.467  11.087   9.654 -0.3030 -0.0152 -0.1152
  401loPI   GL1 6405   0.655  11.221   9.337 -0.1268  0.0508 -0.3575
  401loPI   GL2 6406   0.539  11.489   9.106 -0.0073 -0.0014  0.1942
  401loPI   C1A 6407   0.526  10.976   8.941  0.1789 -0.3636  0.0245
  401loPI   C2A 6408   0.440  10.859   8.553 -0.0250 -0.0327 -0.1038
  401loPI   C3A 6409   0.302  10.678   8.118 -0.0911 -0.0282  0.2642
  401loPI   C4A 6410   0.121  10.386   7.804 -0.0798  0.0639  0.2842
  401loPI   C5A 6411  -0.297  10.175   7.668  0.1890 -0.2454 -0.0363
  401loPI   C6A 6412  -0.452  10.051   7.330 -0.2019  0.1186 -0.1549
  401loPI   C1B 6413   0.608  11.362   8.707  0.0240 -0.0887  0.1374
  401loPI   C2B 6414   0.568  11.257   8.346  0.2817 -0.0501 -0.0929
  401loPI   C3B 6415   0.451  11.172   8.039 -0.0022 -0.0424 -0.0256
  401loPI   C4B 6416   0.043  11.023   7.833  0.0309  0.3254  0.1331
  402loPI    C1 6417   5.264  13.277   9.527  0.1311 -0.1880  0.2386
  402loPI    C2 6418   4.888  13.202   9.640  0.0055  0.0578 -0.0043
  402loPI    C3 6419   5.025  13.578   9.636  0.1794 -0.0054 -0.1413
  402loPI   PO4 6420   5.314  13.231   9.234 -0.0977  0.0673  0.2461
  402loPI   GL1 6421   5.406  13.427   8.855 -0.0460  0.2069  0.1713
  402loPI   GL2 6422   5.086  13.681   8.682  0.2908  0.3914  0.3047
  402loPI   C1A 6423   5.764  13.597   8.489 -0.2952  0.0264 -0.2055
  402loPI   C2A 6424   5.628  13.817   8.169  0.2722 -0.1547 -0.0022
  402loPI   C3A 6425   5.826  14.037   7.818 -0.0203 -0.1960  0.2050
  402loPI   C4A 6426   5.807  14.110   7.379  0.0571  0.2109 -0.3474
  402loPI   C5A 6427   5.678  14.256   7.029 -0.1482  0.0709  0.1507
  402loPI   C6A 6428   5.751  14.663   6.751 -0.0963  0.1743 -0.1384
  402loPI   C1B 6429   5.095  13.810   8.255 -0.0604 -0.1313  0.0711
  402loPI   C2B 6430   5.179  13.857   7.925 -0.0595 -0.1408 -0.1253
  402loPI   C3B 6431   5.219  14.233   7.576  0.1080 -0.1351  0.2055
  402loPI   C4B 6432   5.096  14.377   7.193 -0.0520 -0.0967 -0.0323
  403loPI    C1 6433   4.693  16.839   9.636  0.0192  0.0303 -0.1430
  403loPI    C2 6434   4.550  17.212   9.637 -0.2464 -0.0673  0.1732
  403loPI    C3 6435   4.904  17.133   9.805 -0.0695  0.0819 -0.1215
  403loPI   PO4 6436   4.669  16.804   9.316 -0.1523 -0.1298 -0.0215
  403loPI   GL1 6437   4.839  16.789   8.886 -0.1402 -0.0609  0.0235
  403loPI   GL2 6438   5.187  16.821   8.854  0.0360 -0.0760 -0.0054
  403loPI   C1A 6439   5.002  16.936   8.387  0.0045  0.2688 -0.0669
  403loPI   C2A 6440   4.848  17.003   8.031 -0.0904 -0.0065 -0.4437
  403loPI   C3A 6441   4.637  17.066   7.693  0.2147 -0.0424  0.1377
  403loPI   C4A 6442   4.682  16.981   7.299  0.1245  0.0217 -0.1329
  403loPI   C5A 6443   5.000  16.663   7.311  0.0857 -0.0743 -0.1560
  403loPI   C6A 6444   5.344  16.187   7.423 -0.0492  0.2210  0.0016
  403loPI   C1B 6445   5.113  16.417   8.713 -0.0033 -0.1752  0.0973
  403loPI   C2B 6446   5.041  16.408   8.301 -0.1942 -0.2228 -0.3657
  403loPI   C3B 6447   5.055  16.043   8.335 -0.2710 -0.0370  0.2120
  403loPI   C4B 6448   4.772  15.773   8.473 -0.0254  0.0027  0.1494
  404loPI    C1 6449   4.264  12.648   9.580  0.0820 -0.0213 -0.0504
  404loPI    C2 6450   4.028  12.915   9.761 -0.2686 -0.3291 -0.0419
  404loPI    C3 6451   4.402  13.014   9.660 -0.2754  0.0469  0.2804
  404loPI   PO4 6452   4.163  12.488   9.350 -0.1304 -0.0612  0.0286
  404loPI   GL1 6453   4.321  12.182   8.935  0.0071 -0.2680 -0.0838
  404loPI   GL2 6454   4.361  12.273   8.589  0.4612 -0.1539 -0.1534
  404loPI   C1A 6455   4.278  11.823   8.681 -0.3643  0.2058 -0.0549
  404loPI   C2A 6456   4.264  11.879   8.250 -0.0300  0.1565 -0.1842
  404loPI   C3A 6457   4.132  12.088   7.922  0.0372 -0.2334 -0.1057
  404loPI   C4A 6458   4.385  12.395   7.620  0.0231  0.0694 -0.1029
  404loPI   C5A 6459   4.751  12.428   7.300 -0.0925  0.1855 -0.3260
  404loPI   C6A 6460   4.960  12.579   6.903  0.0436 -0.1817 -0.0775
  404loPI   C1B 6461   4.461  12.460   8.178 -0.0204  0.0331 -0.1783
  404loPI   C2B 6462   4.808  12.467   7.873  0.1525  0.0247 -0.2398
  404loPI   C3B 6463   5.112  12.196   7.612 -0.2961 -0.1811 -0.1002
  404loPI   C4B 6464   5.275  12.248   7.219  0.0044 -0.1204  0.0380
  405loPI    C1 6465   3.708  12.716   9.424  0.0367  0.0258  0.0814
  405loPI    C2 6466   3.476  12.663   9.746 -0.0096  0.0270  0.0485
  405loPI    C3 6467   3.800  12.434   9.693  0.0830  0.1272  0.1727
  405loPI   PO4 6468   3.578  12.681   9.244  0.3620 -0.0053 -0.2434
  405loPI   GL1 6469   3.588  12.399   8.782  0.0696  0.3845  0.2195
  405loPI   GL2 6470   3.871  12.086   8.667  0.0103 -0.1611 -0.1281
  405loPI   C1A 6471   3.453  12.466   8.423  0.0935  0.0705 -0.0366
  405loPI   C2A 6472   3.523  12.408   7.968  0.0119  0.1677 -0.0509
  405loPI   C3A 6473   3.427  12.423   7.580 -0.2967  0.0421  0.1448
  405loPI   C4A 6474   3.430  12.524   7.127 -0.3595  0.1340 -0.1102
  405loPI   C5A 6475   3.816  12.756   6.909 -0.0108 -0.1129  0.0291
  405loPI   C6A 6476   4.030  13.108   6.968  0.0786  0.0659 -0.1442
  405loPI   C1B 6477   3.978  12.362   8.333  0.0677  0.0159  0.1985
  405loPI   C2B 6478   4.037  12.566   7.928  0.0881 -0.3035 -0.5016
  405loPI   C3B 6479   3.880  12.473   7.502 -0.0184  0.4098  0.1556
  405loPI   C4B 6480   3.849  12.227   7.237  0.1517 -0.2641 -0.1053
  406loPI    C1 6481  15.781  12.874  10.076  0.0432  0.0824  0.0839
  406loPI    C2 6482  16.145  13.007  10.172  0.0173 -0.0303  0.3445
  406loPI    C3 6483  15.880  12.922  10.460 -0.1026 -0.2628  0.1687
  406loPI   PO4 6484  15.736  13.106   9.955  0.1526  0.0325  0.1656
  406loPI   GL1 6485  15.805  13.179   9.507 -0.0537 -0.0637  0.0498
  406loPI   GL2 6486  15.652  12.969   9.276  0.2288 -0.0933  0.1875
  406loPI   C1A 6487  16.119  12.962   9.265 -0.0882 -0.0555  0.1330
  406loPI   C2A 6488  16.269  12.806   8.833  0.3452  0.2442  0.1945
  406loPI   C3A 6489  16.411  12.565   8.528 -0.0392  0.0994  0.0107
  406loPI   C4A 6490  16.181  12.671   8.124 -0.1934 -0.0562  0.1562
  406loPI   C5A 6491  16.170  12.481   7.645  0.1463  0.0489  0.2435
  406loPI   C6A 6492  16.510  12.434   7.380 -0.1995  0.3546 -0.3797
  406loPI   C1B 6493  15.730  12.979   8.872 -0.0388  0.1305 -0.2217
  406loPI   C2B 6494  15.945  13.010   8.494  0.4892  0.1786  0.1545
  406loPI   C3B 6495  15.993  13.167   7.965  0.0425 -0.0182 -0.0033
  406loPI   C4B 6496  16.188  12.970   7.638  0.0607  0.1986  0.1692
  407loPI    C1 6497  10.107  11.308   9.831 -0.0973 -0.1079 -0.0112
  407loPI    C2 6498  10.040  11.607  10.088  0.1589 -0.0754  0.0196
  407loPI    C3 6499   9.735  11.385   9.956 -0.0359  0.2104 -0.0173
  407loPI   PO4 6500  10.197  11.412   9.629  0.0494  0.2010  0.0843
  407loPI   GL1 6501  10.439  11.460   9.252  0.2948 -0.2875  0.0413
  407loPI   GL2 6502  10.709  11.421   9.339  0.1348 -0.1120  0.1568
  407loPI   C1A 6503  10.346  11.253   8.849  0.0893 -0.2614 -0.1628
  407loPI   C2A 6504  10.604  10.957   8.584  0.1211 -0.0324 -0.0395
  407loPI   C3A 6505  10.625  10.815   8.146  0.4597  0.2472  0.3206
  407loPI   C4A 6506  10.716  10.738   7.727 -0.3349  0.1455 -0.1768
  407loPI   C5A 6507  10.851  10.634   7.299  0.1291 -0.0340 -0.1920
  407loPI   C6A 6508  10.387  10.715   6.973 -0.2099 -0.1827 -0.2295
  407loPI   C1B 6509  11.035  11.518   9.108 -0.1726 -0.1438 -0.1729
  407loPI   C2B 6510  11.153  11.809   8.765 -0.2300  0.0888  0.0508
  407loPI   C3B 6511  11.434  12.168   8.699 -0.2144 -0.2012 -0.1178
  407loPI   C4B 6512  11.871  12.505   8.711 -0.3883  0.0367 -0.0713
  408loPI    C1 6513  17.495  13.411   9.648  0.1479  0.0351 -0.3120
  408loPI    C2 6514  17.835  13.277   9.811  0.1458 -0.0576 -0.3831
  408loPI    C3 6515  17.514  13.039   9.793 -0.0365  0.1468  0.0111
  408loPI   PO4 6516  17.507  13.508   9.346 -0.0824 -0.1147  0.0788
  408loPI   GL1 6517  17.773  13.623   8.973  0.2010  0.1467  0.1869
  408loPI   GL2 6518  17.629  13.288   8.890  0.3106  0.0574 -0.1322
  408loPI   C1A 6519  17.802  13.914   8.688 -0.1563 -0.1051 -0.1277
  408loPI   C2A 6520  17.823  14.008   8.221  0.0049  0.0525  0.1674
  408loPI   C3A 6521  17.807  13.965   7.778 -0.1696 -0.0524  0.2252
  408loPI   C4A 6522  17.924  14.103   7.387  0.0295  0.0353  0.1721
  408loPI   C5A 6523  18.214  14.171   7.097 -0.2408 -0.0067  0.3098
  408loPI   C6A 6524  18.479  14.272   6.812  0.2517  0.4836 -0.1092
  408loPI   C1B 6525  17.574  13.053   8.513  0.0234 -0.1408 -0.4092
  408loPI   C2B 6526  17.392  12.948   8.175  0.3004 -0.1169 -0.1627
  408loPI   C3B 6527  17.303  12.691   7.767  0.0935 -0.3814  0.4259
  408loPI   C4B 6528  17.541  12.549   7.353  0.0601  0.2718 -0.2253
  409loPI    C1 6529   4.134  10.294  10.011 -0.1361 -0.1680  0.1234
  409loPI    C2 6530   4.394   9.997   9.945  0.0700  0.0445 -0.0424
  409loPI    C3 6531   4.372  10.167  10.306  0.3074  0.1597 -0.0802
  409loPI   PO4 6532   4.130  10.436   9.715 -0.1856 -0.4149 -0.2025
  409loPI   GL1 6533   4.163  10.411   9.308 -0.3645  0.1206  0.1324
  409loPI   GL2 6534   3.848  10.554   9.239  0.2075  0.0332  0.3490
  409loPI   C1A 6535   4.367  10.305   8.871  0.3248  0.1380  0.0265
  409loPI   C2A 6536   4.479  10.408   8.420 -0.0373 -0.0243 -0.0828
  409loPI   C3A 6537   4.569  10.490   7.997  0.1953 -0.0571  0.0539
  409loPI   C4A 6538   4.654  10.200   7.730 -0.1296  0.2977 -0.1867
  409loPI   C5A 6539   4.855  10.071   7.453  0.1270 -0.1674  0.1021
  409loPI   C6A 6540   4.788  10.017   7.016  0.1243  0.3003 -0.2673
  409loPI   C1B 6541   3.834  10.565   8.816 -0.0874  0.1634  0.1219
  409loPI   C2B 6542   3.773  10.592   8.376 -0.0748  0.2611 -0.1148
  409loPI   C3B 6543   3.720  10.634   7.965  0.4281  0.1663  0.1628
  409loPI   C4B 6544   3.451  10.815   7.660  0.2148 -0.3736  0.6039
  410loPI    C1 6545  18.855  12.887   9.722 -0.1083 -0.4527  0.0486
  410loPI    C2 6546  18.804  12.717  10.081  0.2029 -0.0789  0.2772
  410loPI    C3 6547  19.138  12.925  10.003  0.0006  0.1067 -0.1236
  410loPI   PO4 6548  18.869  12.702   9.560 -0.2580  0.1381 -0.0238
  410loPI   GL1 6549  19.076  12.642   9.111  0.0721 -0.0191 -0.0788
  410loPI   GL2 6550  19.123  12.943   8.917  0.0981  0.1761  0.0387
  410loPI   C1A 6551  18.857  12.373   8.856  0.3004  0.0264  0.2520
  410loPI   C2A 6552  18.779  12.263   8.346  0.1331  0.1834 -0.1250
  410loPI   C3A 6553  18.614  12.148   7.974 -0.2359 -0.1377  0.0887
  410loPI   C4A 6554  18.375  12.307   7.640  0.1401 -0.0008  0.1703
  410loPI   C5A 6555  17.928  12.191   7.637  0.1165  0.0828  0.0532
  410loPI   C6A 6556  17.789  12.114   7.247 -0.0383  0.1656  0.3965
  410loPI   C1B 6557  19.013  12.768   8.558  0.0578  0.0983 -0.1379
  410loPI   C2B 6558  18.874  12.714   8.130  0.1631 -0.0749 -0.0260
  410loPI   C3B 6559  18.922  12.431   7.688  0.4056 -0.1110 -0.0975
  410loPI   C4B 6560  19.029  12.541   7.308  0.1909  0.1394  0.3113
  411loPI    C1 6561   6.272   9.936  10.180 -0.1989 -0.2060 -0.0497
  411loPI    C2 6562   6.238  10.229   9.910 -0.0610 -0.1450 -0.0017
  411loPI    C3 6563   6.484  10.273  10.223 -0.0868 -0.2871  0.0392
  411loPI   PO4 6564   6.307   9.705   9.975  0.0093  0.2693 -0.2846
  411loPI   GL1 6565   6.368   9.799   9.496  0.0132  0.3178 -0.3864
  411loPI   GL2 6566   6.062   9.913   9.536 -0.2289 -0.1757  0.1754
  411loPI   C1A 6567   6.633   9.686   9.369  0.1349 -0.0094 -0.1638
  411loPI   C2A 6568   6.760   9.230   9.231  0.1393  0.0939  0.1768
  411loPI   C3A 6569   6.752   8.867   8.971 -0.0538 -0.0907 -0.3617
  411loPI   C4A 6570   6.549   8.853   8.576 -0.0202 -0.2037 -0.0142
  411loPI   C5A 6571   6.424   8.719   8.128 -0.1844 -0.1054  0.0102
  411loPI   C6A 6572   6.409   8.898   7.716 -0.3513 -0.1179 -0.0635
  411loPI   C1B 6573   5.851   9.705   9.220  0.1243 -0.2715  0.0519
  411loPI   C2B 6574   5.815   9.515   8.925 -0.0876 -0.0376  0.1976
  411loPI   C3B 6575   5.722   9.444   8.543 -0.1001  0.4020 -0.1078
  411loPI   C4B 6576   5.933   9.717   8.158 -0.1237 -0.0220  0.0095
  412loPI    C1 6577   1.838   1.452   8.908 -0.0037  0.1276  0.2160
  412loPI    C2 6578   1.865   1.565   9.291 -0.2190 -0.2677  0.3531
  412loPI    C3 6579   1.513   1.582   9.101 -0.0690  0.1368  0.1007
  412loPI   PO4 6580   1.899   1.190   8.921  0.3125 -0.0544 -0.2028
  412loPI   GL1 6581   1.814   1.028   8.527 -0.0347  0.0415 -0.0510
  412loPI   GL2 6582   1.658   1.290   8.443 -0.0530 -0.2748  0.0587
  412loPI   C1A 6583   1.743   0.775   8.190 -0.0095 -0.2095 -0.1946
  412loPI   C2A 6584   1.413   0.648   7.877  0.0269  0.0954  0.3515
  412loPI   C3A 6585   1.250   0.622   7.466 -0.2291  0.1995 -0.0112
  412loPI   C4A 6586   0.960   0.638   7.197 -0.3482  0.4502 -0.0936
  412loPI   C5A 6587   0.618   0.730   7.092 -0.1395  0.1095  0.1512
  412loPI   C6A 6588   0.131   0.583   7.081 -0.1442 -0.0351  0.0073
  412loPI   C1B 6589   1.414   1.652   8.529  0.3348 -0.1703  0.1571
  412loPI   C2B 6590   1.245   1.782   8.182  0.5091  0.0210 -0.1558
  412loPI   C3B 6591   1.242   2.133   7.857 -0.1515  0.1343 -0.2141
  412loPI   C4B 6592   1.476   2.458   7.667 -0.1842  0.0818  0.2265
  413loPI    C1 6593   4.461   0.367   9.324 -0.2171  0.0252  0.1757
  413loPI    C2 6594   4.219   0.286   9.632 -0.1200 -0.1507  0.2074
  413loPI    C3 6595   4.579   0.113   9.610 -0.1299 -0.1467 -0.0101
  413loPI   PO4 6596   4.334   0.648   9.215  0.0832  0.1829 -0.0955
  413loPI   GL1 6597   4.633   0.841   8.836  0.1736 -0.3101  0.1294
  413loPI   GL2 6598   4.642   0.536   8.773  0.0109  0.2541  0.3233
  413loPI   C1A 6599   4.459   0.977   8.486 -0.1764  0.3512  0.1965
  413loPI   C2A 6600   4.288   1.114   8.118 -0.0554 -0.3491 -0.5574
  413loPI   C3A 6601   4.151   1.302   7.831  0.1234  0.0068  0.3401
  413loPI   C4A 6602   3.973   1.538   7.507  0.1513 -0.1781 -0.0517
  413loPI   C5A 6603   3.725   1.388   7.121 -0.2216  0.2856 -0.1933
  413loPI   C6A 6604   3.425   1.198   7.029 -0.0150  0.0553  0.0557
  413loPI   C1B 6605   4.753   0.645   8.356 -0.5205  0.0704 -0.4207
  413loPI   C2B 6606   4.580   0.730   7.994 -0.2319  0.1424 -0.0891
  413loPI   C3B 6607   4.445   0.902   7.697 -0.2513 -0.2803  0.0037
  413loPI   C4B 6608   4.493   1.200   7.460  0.0265  0.1800 -0.2014
  414loPI    C1 6609   7.656  10.357   9.828 -0.3008 -0.0076  0.2062
  414loPI    C2 6610   7.966  10.122   9.921 -0.1187  0.1055 -0.0992
  414loPI    C3 6611   7.856  10.415  10.170 -0.0551 -0.0082  0.0651
  414loPI   PO4 6612   7.795  10.500   9.567 -0.0608 -0.1468 -0.0207
  414loPI   GL1 6613   8.062  10.591   9.280  0.2598  0.1614 -0.3022
  414loPI   GL2 6614   7.795  10.372   9.095  0.3536 -0.0509  0.0419
  414loPI   C1A 6615   8.237  10.656   8.973  0.0456  0.0117 -0.0780
  414loPI   C2A 6616   8.335  10.384   8.635  0.0844 -0.5234  0.0964
  414loPI   C3A 6617   8.435  10.266   8.246  0.2536 -0.3108 -0.0757
  414loPI   C4A 6618   8.350  10.281   7.877 -0.3917 -0.2428  0.1502
  414loPI   C5A 6619   8.270  10.289   7.429  0.2303  0.1156  0.0250
  414loPI   C6A 6620   8.082  10.497   7.215 -0.4142  0.2744  0.0594
  414loPI   C1B 6621   7.735  10.194   8.815 -0.0468 -0.2357 -0.3274
  414loPI   C2B 6622   7.840  10.062   8.424  0.2022 -0.3239 -0.0459
  414loPI   C3B 6623   7.972   9.994   8.148 -0.0449  0.2286 -0.1971
  414loPI   C4B 6624   7.920  10.093   7.746  0.2114  0.1343  0.2361
  415loPI    C1 6625   5.443   4.512  10.017 -0.0373  0.0451 -0.1630
  415loPI    C2 6626   5.779   4.359  10.173 -0.1289 -0.0099 -0.0178
  415loPI    C3 6627   5.670   4.734  10.261 -0.0651  0.0347 -0.1275
  415loPI   PO4 6628   5.356   4.305   9.708 -0.2271 -0.1229  0.0034
  415loPI   GL1 6629   5.554   4.207   9.248  0.1843  0.1209 -0.1041
  415loPI   GL2 6630   5.737   4.350   9.405 -0.2231 -0.0605  0.0912
  415loPI   C1A 6631   5.507   3.948   8.927 -0.0723 -0.3824 -0.0083
  415loPI   C2A 6632   5.507   3.724   8.519 -0.0507 -0.2106  0.1453
  415loPI   C3A 6633   5.474   3.564   8.111  0.1472 -0.1348 -0.0705
  415loPI   C4A 6634   5.174   3.340   7.872 -0.2810  0.3775 -0.0721
  415loPI   C5A 6635   5.107   3.244   7.527 -0.1594 -0.1547  0.1602
  415loPI   C6A 6636   5.213   2.838   7.325 -0.0001 -0.0887 -0.2687
  415loPI   C1B 6637   5.823   4.484   8.933  0.4873  0.1264  0.4378
  415loPI   C2B 6638   5.915   4.555   8.416  0.4701  0.2206 -0.1186
  415loPI   C3B 6639   5.879   4.467   7.977 -0.5198  0.3459  0.2125
  415loPI   C4B 6640   6.032   4.584   7.591 -0.1388  0.3116  0.1844
  416loPI    C1 6641  17.292   9.670   9.850  0.2715  0.1318  0.0074
  416loPI    C2 6642  17.192   9.858  10.189  0.0070 -0.0350  0.0246
  416loPI    C3 6643  16.963   9.561  10.050  0.1005  0.0469 -0.3135
  416loPI   PO4 6644  17.645   9.680   9.891 -0.0064 -0.1741 -0.0009
  416loPI   GL1 6645  17.970   9.691   9.690  0.2656 -0.2253  0.1044
  416loPI   GL2 6646  18.232   9.983   9.594 -0.2372 -0.0530 -0.0125
  416loPI   C1A 6647  18.074   9.520   9.241  0.1189 -0.0938 -0.0193
  416loPI   C2A 6648  18.128   9.473   8.868  0.0747 -0.2617  0.1143
  416loPI   C3A 6649  17.866   9.651   8.497  0.0683  0.0645 -0.0834
  416loPI   C4A 6650  17.908   9.694   8.065  0.1613  0.2534 -0.1541
  416loPI   C5A 6651  17.594   9.530   7.758  0.1272  0.1163  0.0550
  416loPI   C6A 6652  17.454   9.352   7.397  0.1155  0.1109 -0.1374
  416loPI   C1B 6653  18.140   9.969   9.058  0.2493  0.0255  0.1785
  416loPI   C2B 6654  17.996  10.104   8.627  0.0752 -0.0318 -0.2821
  416loPI   C3B 6655  18.208  10.045   8.216  0.4076 -0.0453  0.0448
  416loPI   C4B 6656  18.211   9.998   7.727  0.0350  0.0612 -0.2579
  417loPI    C1 6657   2.201   3.658   9.987 -0.0784 -0.1802  0.2194
  417loPI    C2 6658   2.523   3.894   9.958 -0.0666 -0.2143  0.0651
  417loPI    C3 6659   2.294   3.908  10.286 -0.0521 -0.0065  0.0674
  417loPI   PO4 6660   2.150   3.661   9.712 -0.0206  0.1255 -0.1364
  417loPI   GL1 6661   2.179   3.487   9.246 -0.1181  0.1130 -0.2566
  417loPI   GL2 6662   1.905   3.673   9.276 -0.3531 -0.4420  0.2107
  417loPI   C1A 6663   2.294   3.518   8.809  0.0936 -0.1252 -0.2127
  417loPI   C2A 6664   2.281   3.682   8.509 -0.2928  0.0657 -0.1947
  417loPI   C3A 6665   2.308   3.723   8.079 -0.2113  0.3515 -0.0400
  417loPI   C4A 6666   2.461   3.547   7.806 -0.1859 -0.3750 -0.2056
  417loPI   C5A 6667   2.565   3.377   7.314  0.0246 -0.1582 -0.1386
  417loPI   C6A 6668   2.499   3.296   6.793 -0.0397 -0.2823  0.0344
  417loPI   C1B 6669   1.921   3.922   9.016 -0.1957 -0.0412 -0.0818
  417loPI   C2B 6670   1.837   4.062   8.685  0.0100 -0.0906 -0.0123
  417loPI   C3B 6671   1.949   3.999   8.325 -0.1505  0.2909  0.0814
  417loPI   C4B 6672   1.981   4.290   7.839  0.0303  0.2016  0.1204
  418loPI    C1 6673   4.073   2.446   9.544 -0.0146  0.0194  0.1155
  418loPI    C2 6674   4.275   2.665   9.811  0.2899 -0.1718  0.0469
  418loPI    C3 6675   4.031   2.373   9.935 -0.1490  0.2228  0.1405
  418loPI   PO4 6676   3.899   2.599   9.417 -0.1001  0.2852  0.0589
  418loPI   GL1 6677   3.803   2.937   9.224 -0.1702  0.0833 -0.2892
  418loPI   GL2 6678   3.822   3.278   9.207  0.1167  0.2022  0.1333
  418loPI   C1A 6679   3.557   2.928   8.782  0.0063  0.1552 -0.0195
  418loPI   C2A 6680   3.469   3.076   8.467  0.0571  0.3154  0.2889
  418loPI   C3A 6681   3.695   3.284   8.077 -0.0053  0.1643 -0.0766
  418loPI   C4A 6682   3.787   3.584   7.772  0.1201  0.2113  0.0781
  418loPI   C5A 6683   3.779   3.922   7.693 -0.3118 -0.0963 -0.0923
  418loPI   C6A 6684   3.427   4.114   7.877 -0.0467 -0.3704 -0.0059
  418loPI   C1B 6685   3.817   3.409   8.799 -0.1627 -0.1652  0.0017
  418loPI   C2B 6686   3.920   3.563   8.414  0.0625  0.0332 -0.1723
  418loPI   C3B 6687   4.207   3.798   8.192  0.1660 -0.0783 -0.0679
  418loPI   C4B 6688   4.297   3.693   7.717  0.0676  0.0086  0.1239
  419loPI    C1 6689  12.944  14.842   9.981  0.2346 -0.0155 -0.1170
  419loPI    C2 6690  12.599  14.665   9.884  0.0427  0.2390  0.0833
  419loPI    C3 6691  12.902  14.447  10.029 -0.0346  0.0151 -0.0852
  419loPI   PO4 6692  12.954  14.953   9.756 -0.3335 -0.0600  0.0282
  419loPI   GL1 6693  12.792  15.011   9.291  0.2798 -0.1878  0.3062
  419loPI   GL2 6694  12.969  15.214   9.174 -0.0553  0.1720 -0.1579
  419loPI   C1A 6695  12.564  15.066   8.947  0.2628 -0.4373 -0.4603
  419loPI   C2A 6696  12.679  14.826   8.613  0.2756  0.1417 -0.0388
  419loPI   C3A 6697  12.650  14.903   8.206 -0.2572  0.1064  0.2172
  419loPI   C4A 6698  12.720  14.774   7.784 -0.1650  0.1966 -0.1012
  419loPI   C5A 6699  12.728  14.933   7.373  0.0272  0.3247 -0.1252
  419loPI   C6A 6700  12.864  14.587   7.069 -0.3560  0.2248  0.0681
  419loPI   C1B 6701  13.125  15.057   8.799  0.0630 -0.0482 -0.2102
  419loPI   C2B 6702  13.148  14.918   8.448  0.1586  0.1632  0.3646
  419loPI   C3B 6703  13.238  14.736   8.058 -0.0786 -0.3111 -0.3279
  419loPI   C4B 6704  13.377  14.897   7.645 -0.1707  0.1789 -0.2386
  420loPI    C1 6705   2.683   1.202   9.340  0.1727  0.0676 -0.0973
  420loPI    C2 6706   2.788   1.026   9.684  0.0190 -0.0061 -0.0874
  420loPI    C3 6707   2.711   1.418   9.676  0.0831  0.0073 -0.0505
  420loPI   PO4 6708   2.637   0.989   9.176 -0.3273 -0.1186 -0.1153
  420loPI   GL1 6709   2.544   1.001   8.762  0.0877  0.4839  0.3601
  420loPI   GL2 6710   2.324   1.171   8.783  0.0408 -0.1927  0.0493
  420loPI   C1A 6711   2.729   0.817   8.382  0.0177  0.0736 -0.1765
  420loPI   C2A 6712   2.516   0.749   7.975 -0.0129 -0.1558  0.1118
  420loPI   C3A 6713   2.601   0.442   7.761  0.1927 -0.2566  0.2823
  420loPI   C4A 6714   2.667   0.212   7.411  0.1934 -0.0662  0.1310
  420loPI   C5A 6715   2.875  -0.035   7.061 -0.0669 -0.0643 -0.3136
  420loPI   C6A 6716   2.832  -0.154   6.766  0.2073  0.0521 -0.0850
  420loPI   C1B 6717   2.233   1.465   8.447 -0.3243 -0.2149  0.3130
  420loPI   C2B 6718   1.883   1.661   8.245 -0.2185 -0.1761 -0.2403
  420loPI   C3B 6719   1.614   1.462   7.981  0.4813  0.2641 -0.0068
  420loPI   C4B 6720   1.770   1.090   7.778  0.0825  0.1458 -0.3062
  421loPI    C1 6721  13.801   6.041  10.087 -0.1597  0.2715  0.0283
  421loPI    C2 6722  14.019   6.144  10.406  0.1004 -0.1384 -0.0100
  421loPI    C3 6723  13.709   5.895  10.448  0.0274 -0.0551 -0.0521
  421loPI   PO4 6724  14.065   5.961   9.943 -0.0392 -0.3370  0.0167
  421loPI   GL1 6725  13.956   5.900   9.570 -0.0542 -0.7404  0.0554
  421loPI   GL2 6726  13.825   5.544   9.412 -0.2747 -0.1240  0.1466
  421loPI   C1A 6727  13.803   6.055   9.282 -0.1452 -0.2472 -0.1328
  421loPI   C2A 6728  13.641   6.221   8.833 -0.1201  0.1642  0.1416
  421loPI   C3A 6729  13.480   6.391   8.513 -0.1993 -0.4831  0.2929
  421loPI   C4A 6730  13.532   6.481   8.086  0.2207  0.1037 -0.0546
  421loPI   C5A 6731  13.501   6.713   7.700  0.0508 -0.0300  0.0455
  421loPI   C6A 6732  13.849   6.764   7.508  0.1750  0.2149  0.1487
  421loPI   C1B 6733  13.558   5.618   9.121  0.4290 -0.1357 -0.0299
  421loPI   C2B 6734  13.385   5.740   8.738 -0.2397 -0.1125 -0.2015
  421loPI   C3B 6735  13.321   5.887   8.334 -0.3509  0.1934 -0.1821
  421loPI   C4B 6736  13.519   6.011   7.968  0.2276  0.1183 -0.2288
  422loPI    C1 6737   4.907   0.226   9.063  0.0243  0.2127  0.1967
  422loPI    C2 6738   5.237   0.001   9.039 -0.2943 -0.2694  0.1921
  422loPI    C3 6739   5.036   0.025   9.383 -0.2752  0.0000  0.1873
  422loPI   PO4 6740   4.748   0.042   8.907 -0.3093  0.0690 -0.5252
  422loPI   GL1 6741   5.008   0.000   8.594 -0.0388 -0.1564 -0.2304
  422loPI   GL2 6742   5.083   0.304   8.487 -0.1195  0.0795 -0.0139
  422loPI   C1A 6743   5.179  -0.028   8.204  0.0824 -0.1406  0.0267
  422loPI   C2A 6744   4.990  -0.112   7.797  0.0756  0.2348  0.2926
  422loPI   C3A 6745   4.734   0.030   7.404  0.3325  0.0110 -0.0699
  422loPI   C4A 6746   4.331   0.147   7.235  0.0675 -0.0601 -0.0070
  422loPI   C5A 6747   4.140   0.520   7.224  0.2961 -0.3230 -0.3978
  422loPI   C6A 6748   4.178   0.915   7.191  0.1407 -0.2585  0.3492
  422loPI   C1B 6749   4.958   0.370   8.045  0.1020 -0.0465  0.1170
  422loPI   C2B 6750   5.164   0.295   7.652  0.0563 -0.1929  0.1528
  422loPI   C3B 6751   5.199   0.037   7.264  0.0019  0.0855  0.1844
  422loPI   C4B 6752   5.291  -0.072   6.921  0.0207  0.0091 -0.2499
  423loPI    C1 6753   4.697  18.419   8.766  0.0804 -0.1113 -0.0606
  423loPI    C2 6754   4.977  18.698   8.703  0.0335 -0.0532 -0.0131
  423loPI    C3 6755   4.939  18.531   9.065  0.0311 -0.0877 -0.0293
  423loPI   PO4 6756   4.529  18.488   8.561 -0.1702 -0.1398 -0.1856
  423loPI   GL1 6757   4.353  18.326   8.248 -0.2195  0.1557 -0.3311
  423loPI   GL2 6758   4.321  18.048   8.126 -0.2197  0.0125  0.0453
  423loPI   C1A 6759   4.655  18.341   7.874  0.2230 -0.1940  0.0402
  423loPI   C2A 6760   4.708  18.053   7.528  0.1960 -0.0199 -0.1264
  423loPI   C3A 6761   4.856  17.879   7.150  0.4502  0.0898  0.1719
  423loPI   C4A 6762   4.829  17.439   7.035  0.2108  0.0634  0.1284
  423loPI   C5A 6763   4.844  17.084   6.735  0.0726 -0.0942 -0.2344
  423loPI   C6A 6764   5.302  16.833   6.682  0.0182  0.5346  0.1556
  423loPI   C1B 6765   4.706  17.906   8.005  0.0604 -0.0824 -0.0564
  423loPI   C2B 6766   5.134  18.020   7.793 -0.5235  0.0753 -0.1141
  423loPI   C3B 6767   5.607  18.194   7.832  0.1874  0.0590  0.2699
  423loPI   C4B 6768   5.912  18.377   7.676 -0.5033  0.0680  0.0102
  424loPI    C1 6769   1.271  13.051   9.795  0.1866  0.1523  0.0706
  424loPI    C2 6770   0.946  13.154  10.005  0.0749  0.1504 -0.0991
  424loPI    C3 6771   1.308  13.280  10.121  0.0320  0.0280  0.1772
  424loPI   PO4 6772   1.267  13.115   9.547 -0.0111 -0.1747  0.2466
  424loPI   GL1 6773   1.493  12.859   9.168 -0.0620 -0.5280  0.1134
  424loPI   GL2 6774   1.468  12.577   9.120 -0.3487  0.0095  0.0258
  424loPI   C1A 6775   1.372  12.886   8.644 -0.1239  0.2341 -0.3937
  424loPI   C2A 6776   1.391  12.989   8.246  0.0905  0.1412  0.2723
  424loPI   C3A 6777   1.244  12.955   7.751 -0.1098  0.1923  0.2176
  424loPI   C4A 6778   1.373  12.892   7.299 -0.0342  0.0889 -0.2087
  424loPI   C5A 6779   1.421  12.794   6.821 -0.1525  0.0209 -0.1846
  424loPI   C6A 6780   1.599  12.929   6.429 -0.4948 -0.0705  0.1179
  424loPI   C1B 6781   1.535  12.436   8.725 -0.2637 -0.1558 -0.2304
  424loPI   C2B 6782   1.369  12.510   8.281 -0.0234  0.0720  0.0005
  424loPI   C3B 6783   1.056  12.581   8.026  0.0550 -0.4089  0.1676
  424loPI   C4B 6784   0.742  12.816   7.944 -0.2764 -0.0195 -0.4638
  425loPI    C1 6785   8.272   4.597  10.228 -0.0981  0.1358  0.0976
  425loPI    C2 6786   8.580   4.392  10.380  0.0292  0.2285 -0.0331
  425loPI    C3 6787   8.206   4.304  10.492  0.1097  0.1819  0.2021
  425loPI   PO4 6788   8.337   4.670   9.957 -0.1470 -0.1246 -0.0596
  425loPI   GL1 6789   8.149   4.502   9.532 -0.1456 -0.0276 -0.0615
  425loPI   GL2 6790   7.909   4.165   9.476 -0.1766  0.0959 -0.2169
  425loPI   C1A 6791   8.451   4.402   9.173 -0.1995  0.1748 -0.2255
  425loPI   C2A 6792   8.391   4.279   8.783  0.0013 -0.1362  0.2663
  425loPI   C3A 6793   8.131   4.276   8.443 -0.0561 -0.1512 -0.2962
  425loPI   C4A 6794   7.987   4.425   8.057  0.1200  0.2352 -0.0354
  425loPI   C5A 6795   8.081   4.441   7.611 -0.0721 -0.1298  0.2673
  425loPI   C6A 6796   8.108   4.648   7.201  0.1639 -0.1616 -0.1914
  425loPI   C1B 6797   8.118   3.845   9.202 -0.2576 -0.2585  0.2167
  425loPI   C2B 6798   7.902   3.746   8.707 -0.2800 -0.3551 -0.0274
  425loPI   C3B 6799   8.123   3.764   8.291  0.0016 -0.0294  0.0311
  425loPI   C4B 6800   8.063   3.629   7.988 -0.4772  0.0624  0.2307
  426loPI    C1 6801   1.007  17.765   9.784 -0.0675 -0.2122  0.2211
  426loPI    C2 6802   1.382  17.714   9.655 -0.2241 -0.3568 -0.1943
  426loPI    C3 6803   1.314  17.859  10.022  0.2358 -0.0924 -0.2060
  426loPI   PO4 6804   0.866  17.724   9.555 -0.2301 -0.2264  0.1022
  426loPI   GL1 6805   0.733  17.742   9.180  0.0749  0.0298  0.1023
  426loPI   GL2 6806   0.879  17.611   9.004 -0.3578  0.1818 -0.2175
  426loPI   C1A 6807   0.561  17.880   8.811 -0.1958 -0.2993 -0.2251
  426loPI   C2A 6808   0.425  18.092   8.432  0.0664  0.2879  0.0999
  426loPI   C3A 6809   0.516  18.147   7.973 -0.0697 -0.0958 -0.0460
  426loPI   C4A 6810   0.517  18.139   7.619 -0.0911 -0.0439  0.2072
  426loPI   C5A 6811   0.272  18.033   7.248 -0.0139 -0.0464  0.0643
  426loPI   C6A 6812  -0.197  17.959   7.161  0.1546 -0.2795 -0.0497
  426loPI   C1B 6813   0.941  17.494   8.534  0.0110  0.2921 -0.0237
  426loPI   C2B 6814   0.698  17.280   8.190  0.1814 -0.1616  0.1661
  426loPI   C3B 6815   0.555  17.136   7.704 -0.0299  0.3082 -0.1948
  426loPI   C4B 6816   0.565  17.233   7.270  0.0326 -0.1415 -0.0108
  427loPI    C1 6817   6.430  15.789   9.543  0.1994  0.2462  0.0612
  427loPI    C2 6818   6.816  15.776   9.650  0.1624 -0.0126  0.1708
  427loPI    C3 6819   6.536  15.629   9.895 -0.0065  0.1669  0.0882
  427loPI   PO4 6820   6.341  15.983   9.325 -0.0188 -0.1225 -0.3192
  427loPI   GL1 6821   6.590  16.124   8.924  0.4022  0.1223 -0.0675
  427loPI   GL2 6822   6.311  15.985   8.694  0.4200 -0.0421 -0.2277
  427loPI   C1A 6823   6.814  16.186   8.421 -0.2209 -0.0648 -0.2446
  427loPI   C2A 6824   6.645  16.338   8.024  0.2922  0.1970  0.0722
  427loPI   C3A 6825   6.689  16.209   7.609  0.1017  0.2198  0.0766
  427loPI   C4A 6826   6.831  16.023   7.228  0.0313 -0.0441 -0.1287
  427loPI   C5A 6827   6.812  15.776   6.941  0.0020 -0.2898  0.1364
  427loPI   C6A 6828   6.583  15.783   6.678 -0.3064  0.0770  0.1340
  427loPI   C1B 6829   6.223  16.261   8.323 -0.1946 -0.0931  0.1161
  427loPI   C2B 6830   6.018  16.223   7.979 -0.2915 -0.2419 -0.2877
  427loPI   C3B 6831   5.785  16.062   7.712  0.0677 -0.2385  0.3048
  427loPI   C4B 6832   5.802  16.149   7.334 -0.1523 -0.2036 -0.1954
  428loPI    C1 6833   9.876   5.849   9.946 -0.5018 -0.5948  0.1357
  428loPI    C2 6834   9.968   6.019  10.296  0.0034 -0.1329 -0.2052
  428loPI    C3 6835   9.772   5.670  10.289 -0.0075 -0.1582  0.5300
  428loPI   PO4 6836  10.005   5.946   9.754 -0.0539 -0.0803  0.3418
  428loPI   GL1 6837   9.992   6.165   9.372 -0.3106 -0.1730  0.2737
  428loPI   GL2 6838  10.179   6.058   9.240  0.2077  0.1573  0.1916
  428loPI   C1A 6839   9.653   6.257   9.043 -0.2572  0.0772  0.0590
  428loPI   C2A 6840   9.535   6.126   8.591 -0.2356 -0.2291  0.0245
  428loPI   C3A 6841   9.492   5.808   8.209 -0.0122 -0.0176 -0.0953
  428loPI   C4A 6842   9.488   5.730   7.785 -0.4684 -0.0201  0.0927
  428loPI   C5A 6843   9.177   5.586   7.515  0.1284 -0.2208  0.0047
  428loPI   C6A 6844   8.777   5.471   7.284  0.1349 -0.0984 -0.0158
  428loPI   C1B 6845   9.951   5.841   8.949 -0.1756 -0.2261 -0.1976
  428loPI   C2B 6846   9.808   5.662   8.578 -0.0942  0.0926  0.1659
  428loPI   C3B 6847   9.732   5.362   8.196 -0.1634 -0.1733 -0.1710
  428loPI   C4B 6848   9.877   5.371   7.668  0.2413  0.2073  0.0792
  429loPI    C1 6849   5.366   2.555   9.805 -0.0408  0.0254 -0.2939
  429loPI    C2 6850   5.737   2.664   9.908 -0.0151 -0.4414  0.1503
  429loPI    C3 6851   5.424   2.791  10.122 -0.1058 -0.1660 -0.1375
  429loPI   PO4 6852   5.368   2.397   9.559 -0.0312  0.2788  0.0908
  429loPI   GL1 6853   5.586   2.373   9.138  0.0167 -0.2701 -0.0646
  429loPI   GL2 6854   5.351   2.202   9.010 -0.4462 -0.4431 -0.4329
  429loPI   C1A 6855   5.848   2.665   8.914 -0.0953 -0.1525  0.2469
  429loPI   C2A 6856   6.018   2.858   8.606 -0.0486  0.0756 -0.5556
  429loPI   C3A 6857   6.179   3.085   8.324 -0.3380  0.1521 -0.1276
  429loPI   C4A 6858   6.053   2.975   7.877 -0.1921 -0.2290 -0.1278
  429loPI   C5A 6859   6.186   2.632   7.696  0.0258 -0.1378  0.3184
  429loPI   C6A 6860   6.384   2.412   7.974 -0.2987  0.3474 -0.1048
  429loPI   C1B 6861   5.440   2.019   8.620 -0.0938 -0.3679  0.1073
  429loPI   C2B 6862   5.428   1.891   8.317  0.2795  0.0363 -0.0959
  429loPI   C3B 6863   5.539   1.882   7.888  0.0132  0.0865  0.2245
  429loPI   C4B 6864   5.541   2.055   7.489  0.0143  0.0677  0.1662
  430loPI    C1 6865  16.762  10.571   9.758  0.1546  0.1530  0.1503
  430loPI    C2 6866  16.516  10.647  10.064 -0.0216  0.0801  0.0280
  430loPI    C3 6867  16.834  10.881  10.001  0.0160  0.0955  0.2663
  430loPI   PO4 6868  16.707  10.320   9.696  0.0872 -0.3637 -0.2973
  430loPI   GL1 6869  16.952  10.197   9.299 -0.0203 -0.0395 -0.2056
  430loPI   GL2 6870  17.070   9.846   9.308 -0.2311 -0.0439 -0.2566
  430loPI   C1A 6871  17.156  10.126   8.931  0.0230  0.5236  0.0724
  430loPI   C2A 6872  17.314  10.095   8.515  0.0887 -0.0337  0.2452
  430loPI   C3A 6873  17.415  10.138   8.050 -0.0696  0.1137 -0.0158
  430loPI   C4A 6874  17.162   9.779   7.688 -0.5340 -0.1711 -0.1814
  430loPI   C5A 6875  16.933   9.495   7.448 -0.0773  0.1982  0.1228
  430loPI   C6A 6876  16.761   9.196   7.244  0.1607 -0.2313  0.1584
  430loPI   C1B 6877  17.002   9.579   8.990  0.2196  0.1117  0.0835
  430loPI   C2B 6878  16.894   9.559   8.561 -0.3373  0.0490  0.1455
  430loPI   C3B 6879  16.534   9.550   8.317  0.1159 -0.1866  0.0642
  430loPI   C4B 6880  16.169   9.772   8.136 -0.2596 -0.2588  0.0670
  431loPI    C1 6881   6.821   5.807   9.986 -0.0127 -0.0730  0.0418
  431loPI    C2 6882   6.781   5.440  10.140 -0.1609 -0.0953 -0.0484
  431loPI    C3 6883   6.535   5.734  10.256 -0.0777 -0.0374 -0.0173
  431loPI   PO4 6884   6.697   5.870   9.687 -0.2718  0.0737 -0.1243
  431loPI   GL1 6885   6.919   5.790   9.306 -0.1518 -0.0592  0.4130
  431loPI   GL2 6886   6.851   6.064   9.237  0.1944  0.0243 -0.0422
  431loPI   C1A 6887   6.990   5.747   8.875 -0.0010 -0.0120 -0.2647
  431loPI   C2A 6888   6.876   5.597   8.416  0.2990 -0.4779 -0.2711
  431loPI   C3A 6889   6.717   5.265   8.050 -0.0985  0.0083  0.2494
  431loPI   C4A 6890   6.552   5.379   7.675 -0.1609  0.1146  0.0402
  431loPI   C5A 6891   6.487   5.718   7.433 -0.1944 -0.2305 -0.2312
  431loPI   C6A 6892   6.531   6.029   7.084 -0.0025 -0.0988 -0.0712
  431loPI   C1B 6893   7.175   6.179   8.830 -0.0526 -0.1241 -0.2595
  431loPI   C2B 6894   7.227   6.344   8.471  0.2387 -0.2113  0.0713
  431loPI   C3B 6895   7.087   6.441   8.040 -0.0995  0.0384  0.2842
  431loPI   C4B 6896   6.989   6.434   7.634  0.0336  0.1375 -0.0182
  432loPI    C1 6897  16.758  18.519   9.781  0.2544 -0.1288  0.1530
  432loPI    C2 6898  16.833  18.126   9.774 -0.1794 -0.2132 -0.2903
  432loPI    C3 6899  16.507  18.265   9.960 -0.0645 -0.0690 -0.1947
  432loPI   PO4 6900  16.725  18.578   9.466  0.2876 -0.1732 -0.0285
  432loPI   GL1 6901  16.881  18.499   9.010  0.1565  0.0209 -0.0546
  432loPI   GL2 6902  16.787  18.726   8.643  0.0564  0.4932  0.0834
  432loPI   C1A 6903  17.109  18.338   8.671  0.1380  0.2607  0.1017
  432loPI   C2A 6904  17.189  18.310   8.210  0.0377 -0.1890  0.0843
  432loPI   C3A 6905  17.087  18.663   7.851  0.2345  0.0257  0.1191
  432loPI   C4A 6906  17.314  18.896   7.484  0.2944  0.0530  0.2087
  432loPI   C5A 6907  17.171  19.266   7.184 -0.0513  0.0792 -0.0600
  432loPI   C6A 6908  17.040  19.279   6.661  0.1782 -0.0018  0.1656
  432loPI   C1B 6909  16.692  18.717   8.249  0.1583 -0.2350 -0.0407
  432loPI   C2B 6910  16.631  18.812   7.775 -0.0937  0.0858 -0.1054
  432loPI   C3B 6911  16.515  18.915   7.321  0.0288 -0.0684  0.2879
  432loPI   C4B 6912  16.197  19.070   7.048 -0.4286 -0.1763  0.1233
  433loPI    C1 6913  10.690   6.263   9.916 -0.0491  0.1367 -0.2197
  433loPI    C2 6914  10.537   5.992   9.664 -0.1395 -0.1358  0.1196
  433loPI    C3 6915  10.415   6.002  10.045 -0.0685  0.3268  0.1361
  433loPI   PO4 6916  10.898   6.315   9.920  0.1556 -0.0234  0.1353
  433loPI   GL1 6917  11.033   6.379   9.431  0.0660 -0.0505 -0.4389
  433loPI   GL2 6918  11.019   6.051   9.379 -0.2144  0.0249  0.1739
  433loPI   C1A 6919  11.194   6.372   8.974 -0.1236 -0.5056  0.0473
  433loPI   C2A 6920  11.085   6.449   8.546  0.2112 -0.3828  0.0641
  433loPI   C3A 6921  10.783   6.505   8.110  0.1325 -0.0796  0.0992
  433loPI   C4A 6922  10.684   6.464   7.699 -0.2846 -0.0297 -0.0737
  433loPI   C5A 6923  10.610   6.848   7.459  0.2587  0.1222 -0.0728
  433loPI   C6A 6924  10.428   7.075   7.113  0.2012 -0.0482  0.0436
  433loPI   C1B 6925  11.012   5.898   8.895  0.0170  0.0690 -0.1162
  433loPI   C2B 6926  10.821   5.670   8.647  0.0765 -0.1528 -0.2876
  433loPI   C3B 6927  10.745   5.646   8.179 -0.0058  0.2404  0.2163
  433loPI   C4B 6928  10.408   5.536   7.882  0.0172 -0.0376 -0.0711
  434loPI    C1 6929   6.323   2.103   9.760  0.1100  0.1794 -0.1371
  434loPI    C2 6930   6.115   2.367   9.978 -0.0657 -0.0770  0.0118
  434loPI    C3 6931   6.493   2.280  10.075 -0.0180  0.0931 -0.0182
  434loPI   PO4 6932   6.227   2.016   9.435 -0.4092 -0.1829 -0.1408
  434loPI   GL1 6933   6.158   2.295   9.040  0.0112  0.0487  0.0530
  434loPI   GL2 6934   6.411   2.437   8.927  0.2256 -0.0816 -0.1270
  434loPI   C1A 6935   5.985   2.234   8.707  0.4146  0.1188 -0.0891
  434loPI   C2A 6936   5.873   2.118   8.237  0.1431 -0.2010  0.0695
  434loPI   C3A 6937   6.015   2.104   7.833  0.0663 -0.1175 -0.0538
  434loPI   C4A 6938   5.999   2.052   7.414 -0.2072  0.0022  0.0902
  434loPI   C5A 6939   5.943   2.306   7.098 -0.2955  0.1166 -0.4601
  434loPI   C6A 6940   5.814   2.647   6.727  0.2198  0.1389  0.2830
  434loPI   C1B 6941   6.389   2.527   8.544  0.0349 -0.1265  0.0543
  434loPI   C2B 6942   5.925   2.609   8.193 -0.2694 -0.0286  0.0109
  434loPI   C3B 6943   5.709   2.484   7.855  0.0444  0.3474 -0.0272
  434loPI   C4B 6944   5.693   2.547   7.430  0.1538  0.2577 -0.3056
  435loPI    C1 6945   9.586  13.985   9.569  0.1846 -0.0056  0.2709
  435loPI    C2 6946   9.925  13.780   9.622  0.2687  0.1135  0.1983
  435loPI    C3 6947   9.641  13.772   9.903  0.2884 -0.0680  0.2146
  435loPI   PO4 6948   9.521  13.958   9.350  0.0306  0.0178 -0.0084
  435loPI   GL1 6949   9.639  14.154   8.920  0.2435 -0.0630  0.1463
  435loPI   GL2 6950   9.365  14.429   8.900  0.0577  0.0029  0.0269
  435loPI   C1A 6951   9.991  14.042   8.671  0.3690  0.5448 -0.0397
  435loPI   C2A 6952  10.076  14.158   8.405  0.0386  0.2283 -0.0222
  435loPI   C3A 6953  10.251  14.106   8.061 -0.0148 -0.1565 -0.0838
  435loPI   C4A 6954  10.399  14.209   7.654  0.2118  0.3636  0.5329
  435loPI   C5A 6955  10.294  13.965   7.215  0.2577  0.2257 -0.1339
  435loPI   C6A 6956  10.249  13.723   6.882  0.4457  0.2164  0.1219
  435loPI   C1B 6957   9.257  14.812   8.637 -0.0439  0.2139  0.2209
  435loPI   C2B 6958   9.455  15.216   8.539  0.3961 -0.0528 -0.2523
  435loPI   C3B 6959   9.289  15.593   8.595  0.1387 -0.2249 -0.1389
  435loPI   C4B 6960   9.553  15.976   8.651 -0.1365 -0.0559  0.4606
  436loPI    C1 6961   0.189   5.867   9.888  0.2492  0.1692 -0.0610
  436loPI    C2 6962   0.047   5.505   9.984 -0.2874  0.3326 -0.1994
  436loPI    C3 6963   0.065   5.793  10.261  0.2026  0.1904 -0.0722
  436loPI   PO4 6964   0.316   5.757   9.682  0.0152  0.2269  0.2099
  436loPI   GL1 6965   0.281   5.609   9.282 -0.1070  0.0955 -0.0293
  436loPI   GL2 6966   0.148   5.393   9.019 -0.1203  0.0000  0.1022
  436loPI   C1A 6967   0.366   5.872   9.013 -0.0351 -0.2372 -0.1526
  436loPI   C2A 6968   0.795   5.917   8.855 -0.2954  0.3282 -0.0912
  436loPI   C3A 6969   0.922   5.744   8.532 -0.1348  0.2455  0.1041
  436loPI   C4A 6970   1.101   5.496   8.269  0.1098 -0.1430  0.3371
  436loPI   C5A 6971   1.424   5.564   7.994  0.3480 -0.0178  0.1868
  436loPI   C6A 6972   1.555   5.814   7.707 -0.2194  0.1465  0.5280
  436loPI   C1B 6973   0.194   5.520   8.659 -0.1230 -0.3119  0.0669
  436loPI   C2B 6974   0.162   5.610   8.198  0.1979  0.0291  0.1355
  436loPI   C3B 6975   0.426   5.405   7.946  0.1273 -0.2136 -0.2981
  436loPI   C4B 6976   0.475   5.221   7.493 -0.0719  0.0333 -0.0512
  437loPI    C1 6977   2.791   6.624  10.017  0.1397  0.0871 -0.0301
  437loPI    C2 6978   2.738   6.238  10.109  0.0450  0.0438 -0.2592
  437loPI    C3 6979   2.934   6.479  10.361 -0.0082 -0.1235 -0.0553
  437loPI   PO4 6980   2.526   6.714   9.928  0.2449  0.3629 -0.2548
  437loPI   GL1 6981   2.597   6.716   9.560  0.5168 -0.0907 -0.0233
  437loPI   GL2 6982   2.780   6.461   9.490 -0.5331  0.0577  0.0558
  437loPI   C1A 6983   2.408   6.882   9.171  0.3568  0.2479 -0.2452
  437loPI   C2A 6984   2.398   6.947   8.713 -0.1224  0.1026 -0.1567
  437loPI   C3A 6985   2.313   6.959   8.174 -0.0387 -0.0115 -0.3541
  437loPI   C4A 6986   2.565   6.879   7.804  0.0627 -0.0577  0.0159
  437loPI   C5A 6987   2.746   6.851   7.448  0.3419 -0.2294  0.0421
  437loPI   C6A 6988   3.048   6.711   6.956  0.0229  0.0273  0.0776
  437loPI   C1B 6989   2.731   6.554   9.032 -0.1892  0.0454 -0.0129
  437loPI   C2B 6990   2.815   6.590   8.606  0.0279  0.0438 -0.3098
  437loPI   C3B 6991   2.796   6.775   8.242  0.0016  0.3349  0.3121
  437loPI   C4B 6992   3.069   7.135   8.130  0.2866 -0.0294 -0.0549
  438loPI    C1 6993  18.889  19.076   9.585  0.5616 -0.1218  0.0134
  438loPI    C2 6994  18.655  18.867   9.835  0.0571  0.0838 -0.2717
  438loPI    C3 6995  18.973  19.066   9.976 -0.0412 -0.0522  0.1544
  438loPI   PO4 6996  18.790  18.930   9.379 -0.1930 -0.1441 -0.0566
  438loPI   GL1 6997  18.642  18.723   8.988  0.1015  0.0335 -0.0738
  438loPI   GL2 6998  18.728  18.964   8.885 -0.2331 -0.1631  0.1011
  438loPI   C1A 6999  18.511  18.509   8.525  0.1017 -0.0775 -0.1523
  438loPI   C2A 7000  18.426  18.500   8.088  0.0329 -0.0475 -0.3802
  438loPI   C3A 7001  18.091  18.690   7.811  0.0157  0.0376  0.2700
  438loPI   C4A 7002  17.855  18.940   7.589 -0.1113 -0.0264 -0.2787
  438loPI   C5A 7003  17.617  19.055   7.153 -0.1770  0.0944 -0.0179
  438loPI   C6A 7004  17.786  19.039   6.702 -0.1606  0.0658  0.0677
  438loPI   C1B 7005  18.733  18.920   8.406  0.0165  0.1719  0.0271
  438loPI   C2B 7006  18.800  18.814   8.046  0.1712  0.1341 -0.0599
  438loPI   C3B 7007  18.829  18.633   7.680  0.2122 -0.0054  0.0109
  438loPI   C4B 7008  18.931  18.463   7.268 -0.1903 -0.0329  0.0528
  439loPI    C1 7009  13.785  14.875   9.662  0.0961  0.0148 -0.0134
  439loPI    C2 7010  14.164  14.955   9.758  0.1176 -0.0628 -0.0330
  439loPI    C3 7011  13.895  14.892  10.046  0.1089  0.0401 -0.0182
  439loPI   PO4 7012  13.742  15.109   9.505  0.2982  0.1636  0.0864
  439loPI   GL1 7013  13.929  15.268   9.132  0.0831  0.0611  0.0255
  439loPI   GL2 7014  13.553  15.077   9.011  0.0333 -0.1925 -0.3932
  439loPI   C1A 7015  14.045  14.988   8.837 -0.2979 -0.3875 -0.2260
  439loPI   C2A 7016  14.103  14.940   8.384  0.0399  0.3277 -0.0495
  439loPI   C3A 7017  14.275  14.966   7.937 -0.0765 -0.2088 -0.2073
  439loPI   C4A 7018  14.313  14.945   7.513  0.0179 -0.0514  0.5102
  439loPI   C5A 7019  14.285  14.642   7.172 -0.0006 -0.3073  0.0957
  439loPI   C6A 7020  14.297  14.882   6.716  0.1056 -0.0318  0.2299
  439loPI   C1B 7021  13.566  15.166   8.611  0.1329  0.3968  0.1673
  439loPI   C2B 7022  13.666  15.015   8.091  0.0302  0.2026 -0.0969
  439loPI   C3B 7023  13.835  14.740   7.857  0.0081  0.3180 -0.1966
  439loPI   C4B 7024  14.167  14.520   7.713 -0.0420  0.0539  0.0639
  440loPI    C1 7025   0.610  16.826   9.607 -0.0040  0.1166  0.0628
  440loPI    C2 7026   0.860  16.633   9.852 -0.1178 -0.1754 -0.0464
  440loPI    C3 7027   0.518  16.784   9.994 -0.0249 -0.0447  0.0410
  440loPI   PO4 7028   0.574  16.700   9.421 -0.0398 -0.0476  0.1259
  440loPI   GL1 7029   0.763  16.755   9.084 -0.0944 -0.0509 -0.0078
  440loPI   GL2 7030   0.686  17.027   8.981  0.0492  0.0712 -0.0101
  440loPI   C1A 7031   0.566  16.505   8.795  0.1247  0.0926  0.1267
  440loPI   C2A 7032   0.563  16.172   8.384  0.2792 -0.1638  0.1787
  440loPI   C3A 7033   0.481  16.138   7.951 -0.0752 -0.0583 -0.0570
  440loPI   C4A 7034   0.576  16.111   7.595 -0.0506  0.0391 -0.1641
  440loPI   C5A 7035   0.417  15.802   7.368  0.1465 -0.0896  0.0047
  440loPI   C6A 7036   0.204  15.699   6.995 -0.0114 -0.2913 -0.1498
  440loPI   C1B 7037   0.605  16.938   8.550 -0.0938  0.1667  0.0441
  440loPI   C2B 7038   0.474  16.775   8.168  0.1914 -0.1350  0.0380
  440loPI   C3B 7039   0.483  16.600   7.745  0.0320 -0.0698 -0.2301
  440loPI   C4B 7040   0.708  16.592   7.367  0.1509 -0.0107 -0.3344
  441loPI    C1 7041  11.533  10.034  10.270 -0.2616 -0.2628 -0.1267
  441loPI    C2 7042  11.632   9.651  10.332  0.0912 -0.1399  0.1026
  441loPI    C3 7043  11.477   9.868  10.630 -0.2998 -0.1550 -0.0827
  441loPI   PO4 7044  11.393  10.016  10.056 -0.1289 -0.0663 -0.1029
  441loPI   GL1 7045  11.433   9.770   9.718  0.1513  0.1020 -0.2722
  441loPI   GL2 7046  11.315   9.500   9.517  0.2080 -0.3946  0.1254
  441loPI   C1A 7047  11.356   9.870   9.266  0.1731  0.0819  0.1753
  441loPI   C2A 7048  11.177   9.849   8.932 -0.1704  0.0137 -0.0668
  441loPI   C3A 7049  10.893   9.642   8.771  0.0292  0.0217  0.0078
  441loPI   C4A 7050  10.686   9.721   8.377 -0.0157  0.0958  0.0637
  441loPI   C5A 7051  10.595   9.860   7.891  0.1546  0.2088  0.0001
  441loPI   C6A 7052  10.613   9.873   7.358  0.2638 -0.1169 -0.0719
  441loPI   C1B 7053  11.641   9.503   9.296  0.0137 -0.0132  0.1110
  441loPI   C2B 7054  11.890   9.449   8.834  0.1276  0.1811 -0.1295
  441loPI   C3B 7055  12.133   9.568   8.570 -0.0044  0.0075  0.2068
  441loPI   C4B 7056  12.213   9.280   8.176 -0.1478  0.1411  0.1180
  442loPI    C1 7057  15.747   8.969  10.328  0.1702 -0.2709 -0.0436
  442loPI    C2 7058  16.065   9.079  10.545 -0.2201  0.2849  0.2735
  442loPI    C3 7059  15.884   8.730  10.618  0.2469  0.0102  0.1566
  442loPI   PO4 7060  15.821   9.096  10.056 -0.0964  0.0000 -0.2825
  442loPI   GL1 7061  15.512   9.360   9.739  0.0281  0.2615 -0.0089
  442loPI   GL2 7062  15.422   9.623   9.585  0.0558 -0.3708  0.1606
  442loPI   C1A 7063  15.575   9.252   9.170  0.0409 -0.0059 -0.2174
  442loPI   C2A 7064  15.504   9.213   8.729 -0.1341 -0.0237 -0.0687
  442loPI   C3A 7065  15.375   9.392   8.347 -0.1319  0.3397  0.1844
  442loPI   C4A 7066  15.074   9.183   8.111  0.1798  0.2183 -0.0352
  442loPI   C5A 7067  14.773   9.020   7.836  0.1199  0.4063  0.3383
  442loPI   C6A 7068  14.461   8.659   7.885 -0.0471  0.0848 -0.0304
  442loPI   C1B 7069  15.083   9.385   9.307 -0.2101  0.1190 -0.4075
  442loPI   C2B 7070  15.046   9.277   8.967 -0.1316 -0.2302  0.1266
  442loPI   C3B 7071  14.858   9.745   8.749  0.0007  0.1389 -0.0371
  442loPI   C4B 7072  14.637   9.883   8.374  0.0351 -0.6147 -0.0020
  443loPI    C1 7073   5.410   6.428   9.584  0.0062  0.0527 -0.0699
  443loPI    C2 7074   5.051   6.544   9.717 -0.1054 -0.3790  0.0189
  443loPI    C3 7075   5.368   6.552   9.962 -0.0382  0.0535 -0.0750
  443loPI   PO4 7076   5.392   6.440   9.323  0.2849  0.0444  0.2893
  443loPI   GL1 7077   5.078   6.525   9.181 -0.0098 -0.1734  0.2971
  443loPI   GL2 7078   4.880   6.360   9.238  0.1791  0.1754 -0.1622
  443loPI   C1A 7079   5.106   6.335   8.736  0.2472 -0.0642 -0.1809
  443loPI   C2A 7080   5.125   6.374   8.358 -0.2339  0.3213 -0.1517
  443loPI   C3A 7081   5.235   6.202   7.939 -0.3657 -0.2179  0.0133
  443loPI   C4A 7082   5.210   6.229   7.466  0.1050  0.2882  0.4770
  443loPI   C5A 7083   5.275   6.223   6.999 -0.1423  0.0936  0.3849
  443loPI   C6A 7084   5.523   6.086   6.600 -0.0552 -0.0111  0.2842
  443loPI   C1B 7085   4.643   6.061   9.105 -0.0710  0.0755  0.2382
  443loPI   C2B 7086   4.627   5.924   8.644 -0.0380  0.2727 -0.1359
  443loPI   C3B 7087   4.589   6.273   8.346  0.1182 -0.3634  0.1992
  443loPI   C4B 7088   4.340   6.410   8.133  0.1314 -0.1665  0.0146
  444loPI    C1 7089  14.959   0.193   9.612  0.0885  0.1339  0.0771
  444loPI    C2 7090  14.832  -0.164   9.484 -0.0913  0.2188  0.0154
  444loPI    C3 7091  14.929  -0.112   9.868  0.0400  0.0755  0.0026
  444loPI   PO4 7092  14.754   0.321   9.449  0.0335  0.2095  0.3314
  444loPI   GL1 7093  14.662   0.325   9.089 -0.2111 -0.0299 -0.0487
  444loPI   GL2 7094  14.997   0.095   9.030  0.0896  0.2113  0.0141
  444loPI   C1A 7095  14.428   0.392   8.725 -0.2114 -0.0599  0.1143
  444loPI   C2A 7096  14.384   0.653   8.358 -0.2911 -0.1033  0.0348
  444loPI   C3A 7097  14.384   0.683   7.941  0.0050  0.0700  0.2391
  444loPI   C4A 7098  14.546   0.708   7.495 -0.0194 -0.0933 -0.0301
  444loPI   C5A 7099  14.543   0.678   6.999 -0.1491  0.4631 -0.0143
  444loPI   C6A 7100  14.308   0.574   6.636 -0.0401 -0.0871 -0.1140
  444loPI   C1B 7101  14.755  -0.046   8.793 -0.2437 -0.3603  0.0591
  444loPI   C2B 7102  14.846  -0.213   8.269 -0.3120  0.0043 -0.1263
  444loPI   C3B 7103  15.016   0.020   7.927 -0.0010  0.1201 -0.0885
  444loPI   C4B 7104  15.092   0.018   7.496 -0.3013  0.0419  0.3031
  445loPI    C1 7105  19.174  17.806   9.536  0.0703  0.2302  0.0754
  445loPI    C2 7106  19.044  17.715   9.903 -0.1613 -0.2918 -0.1255
  445loPI    C3 7107  18.852  17.990   9.686  0.0984  0.1702  0.2112
  445loPI   PO4 7108  19.421  17.797   9.507  0.6323 -0.1026  0.4474
  445loPI   GL1 7109  19.509  17.700   9.077  0.0766 -0.0021 -0.1661
  445loPI   GL2 7110  19.312  17.431   8.984  0.3796  0.2449 -0.0748
  445loPI   C1A 7111  19.651  17.829   8.735  0.2267 -0.0655  0.1928
  445loPI   C2A 7112  19.536  17.955   8.413 -0.1770 -0.1326  0.1455
  445loPI   C3A 7113  19.490  18.055   8.079 -0.1299 -0.2579  0.0805
  445loPI   C4A 7114  19.560  17.937   7.708 -0.0235  0.0755 -0.4508
  445loPI   C5A 7115  19.585  17.558   7.389 -0.0510  0.0153 -0.1776
  445loPI   C6A 7116  19.864  17.614   7.010  0.4120  0.2326  0.0746
  445loPI   C1B 7117  19.489  17.395   8.581 -0.1745 -0.0676  0.1256
  445loPI   C2B 7118  19.469  17.444   8.103 -0.0930 -0.0153  0.0009
  445loPI   C3B 7119  19.188  17.394   7.788 -0.1005 -0.3739 -0.0906
  445loPI   C4B 7120  19.102  17.453   7.366  0.2623 -0.2985 -0.1550
  446loPI    C1 7121  14.468  16.684   9.659  0.0496 -0.1222 -0.0873
  446loPI    C2 7122  14.367  16.407   9.928  0.0850 -0.1124 -0.0638
  446loPI    C3 7123  14.412  16.788  10.041 -0.0218 -0.0867 -0.1074
  446loPI   PO4 7124  14.318  16.565   9.463 -0.2402  0.0196 -0.0125
  446loPI   GL1 7125  14.098  16.809   9.163  0.1150 -0.1640 -0.0133
  446loPI   GL2 7126  13.855  16.655   9.219 -0.3034 -0.1886  0.0808
  446loPI   C1A 7127  14.414  16.862   8.830 -0.1556  0.0943  0.2127
  446loPI   C2A 7128  14.859  16.917   8.836  0.1213 -0.0274 -0.0878
  446loPI   C3A 7129  15.161  17.126   8.541 -0.1685 -0.2897 -0.1952
  446loPI   C4A 7130  15.294  17.534   8.551  0.1100  0.1033 -0.0853
  446loPI   C5A 7131  15.310  17.906   8.323  0.0244 -0.0305  0.0878
  446loPI   C6A 7132  15.318  18.027   7.921  0.2350 -0.0163 -0.0840
  446loPI   C1B 7133  14.058  16.534   8.755  0.4185 -0.0530 -0.1809
  446loPI   C2B 7134  14.119  16.446   8.337  0.1996  0.0705 -0.3595
  446loPI   C3B 7135  14.003  16.493   7.929 -0.0256  0.3504 -0.2686
  446loPI   C4B 7136  13.724  16.271   7.612  0.1054  0.2932 -0.0886
  447loPI    C1 7137  18.235   1.212   9.222 -0.0817 -0.0048  0.1124
  447loPI    C2 7138  18.174   1.575   9.379 -0.2302  0.1449 -0.2779
  447loPI    C3 7139  18.497   1.362   9.485 -0.0931  0.4276 -0.1149
  447loPI   PO4 7140  18.149   1.274   8.982 -0.0633  0.0879  0.1286
  447loPI   GL1 7141  18.035   1.328   8.623  0.2007  0.0985 -0.1009
  447loPI   GL2 7142  17.726   1.399   8.705 -0.2245 -0.0264 -0.1732
  447loPI   C1A 7143  18.166   1.289   8.195 -0.1265  0.3007  0.1089
  447loPI   C2A 7144  18.200   1.218   7.653 -0.1247  0.1941 -0.1328
  447loPI   C3A 7145  18.313   0.923   7.350  0.2056 -0.1117 -0.0588
  447loPI   C4A 7146  18.349   0.606   7.026 -0.1720 -0.1128 -0.0952
  447loPI   C5A 7147  18.582   0.342   6.848  0.0283  0.2657 -0.0643
  447loPI   C6A 7148  18.893   0.077   6.794  0.0565 -0.3378  0.2253
  447loPI   C1B 7149  17.606   1.497   8.391 -0.1038 -0.2169 -0.4270
  447loPI   C2B 7150  17.736   1.436   8.006  0.1323 -0.1057 -0.1895
  447loPI   C3B 7151  17.740   1.559   7.554  0.1399 -0.0849  0.0738
  447loPI   C4B 7152  17.620   1.797   7.316 -0.3195 -0.0637 -0.1177
  448loPI    C1 7153  13.790  11.300  10.225 -0.2092  0.1300  0.1077
  448loPI    C2 7154  13.562  11.621  10.156 -0.0326  0.2388  0.0226
  448loPI    C3 7155  13.837  11.509   9.888 -0.0369  0.0638  0.0897
  448loPI   PO4 7156  13.549  11.132  10.307 -0.0899  0.2142  0.1776
  448loPI   GL1 7157  13.232  10.941   9.981 -0.2440  0.3887  0.0206
  448loPI   GL2 7158  13.009  10.747  10.064  0.0346 -0.2182 -0.2889
  448loPI   C1A 7159  13.185  10.560   9.643  0.2191  0.0209  0.0294
  448loPI   C2A 7160  13.301  10.505   9.173 -0.0845  0.0139 -0.2790
  448loPI   C3A 7161  13.351  10.495   8.673 -0.1408  0.1909 -0.1305
  448loPI   C4A 7162  13.357  10.197   8.349 -0.0398  0.1879  0.0417
  448loPI   C5A 7163  13.630  10.442   8.100 -0.1440  0.2267  0.1548
  448loPI   C6A 7164  14.004  10.327   8.090 -0.2051  0.2797  0.1237
  448loPI   C1B 7165  12.663  10.492   9.746  0.1350 -0.2080  0.0304
  448loPI   C2B 7166  12.776  10.562   9.363  0.0436 -0.3260  0.1627
  448loPI   C3B 7167  12.679  10.572   8.915 -0.2819  0.1214 -0.1535
  448loPI   C4B 7168  12.902  10.330   8.659  0.1865 -0.0621  0.2448
  449loPI    C1 7169  17.209  14.936   9.879 -0.2627  0.2120 -0.1574
  449loPI    C2 7170  17.233  15.267  10.103 -0.1771  0.1653 -0.0969
  449loPI    C3 7171  17.508  14.979  10.142 -0.1506  0.1653 -0.2761
  449loPI   PO4 7172  17.247  15.023   9.627  0.2234  0.3150 -0.4210
  449loPI   GL1 7173  17.092  14.784   9.214  0.0947 -0.0537  0.3220
  449loPI   GL2 7174  17.136  14.387   9.239 -0.2718  0.2033 -0.1203
  449loPI   C1A 7175  17.247  14.765   8.814 -0.0916  0.0520  0.0507
  449loPI   C2A 7176  17.382  14.687   8.394  0.0636  0.1085 -0.2671
  449loPI   C3A 7177  17.549  14.952   8.019 -0.0290 -0.0184  0.3700
  449loPI   C4A 7178  17.987  14.937   7.819  0.2229  0.0513 -0.0716
  449loPI   C5A 7179  18.300  15.074   7.578 -0.0816 -0.1599  0.0121
  449loPI   C6A 7180  18.558  15.362   7.245 -0.2486 -0.3737 -0.3790
  449loPI   C1B 7181  17.063  14.269   8.790 -0.0417  0.4175 -0.1128
  449loPI   C2B 7182  17.301  13.934   8.567  0.0978  0.2842 -0.0461
  449loPI   C3B 7183  17.430  13.539   8.549 -0.0915  0.2482  0.1060
  449loPI   C4B 7184  17.146  13.321   8.787  0.2567  0.2782 -0.0246
  450loPI    C1 7185  19.236  18.630   9.432 -0.3897  0.2015 -0.1922
  450loPI    C2 7186  19.251  18.650   9.831 -0.0426  0.1719 -0.2002
  450loPI    C3 7187  18.944  18.467   9.651 -0.1657  0.1241  0.0539
  450loPI   PO4 7188  19.523  18.465   9.433 -0.1700  0.2351 -0.4300
  450loPI   GL1 7189  19.547  18.159   9.075 -0.0105 -0.0746 -0.0866
  450loPI   GL2 7190  19.916  18.204   9.095  0.2135 -0.0517  0.0687
  450loPI   C1A 7191  19.187  17.961   8.817 -0.0728  0.0594 -0.1949
  450loPI   C2A 7192  19.125  17.700   8.373  0.0137  0.0600  0.1120
  450loPI   C3A 7193  18.777  17.480   8.079 -0.1133  0.1240  0.2017
  450loPI   C4A 7194  18.658  17.609   7.658 -0.0709  0.1202  0.2074
  450loPI   C5A 7195  18.851  17.890   7.319  0.2515  0.2329 -0.0717
  450loPI   C6A 7196  19.016  17.804   6.828 -0.0220 -0.0260 -0.0742
  450loPI   C1B 7197  19.851  18.441   8.742 -0.4087 -0.1643  0.1916
  450loPI   C2B 7198  19.631  18.423   8.339 -0.1593 -0.0032 -0.0186
  450loPI   C3B 7199  19.342  18.505   8.002  0.0948  0.2659  0.0234
  450loPI   C4B 7200  19.270  18.293   7.598  0.0714 -0.2451 -0.3823
  451loPI    C1 7201   1.171  10.906   9.540 -0.0911  0.3275  0.0505
  451loPI    C2 7202   1.206  11.304   9.521 -0.0922  0.3234 -0.0414
  451loPI    C3 7203   1.371  11.103   9.825  0.2891  0.3501 -0.2245
  451loPI   PO4 7204   0.911  10.851   9.535  0.2444  0.0259  0.2203
  451loPI   GL1 7205   0.654  10.639   9.340  0.0799 -0.1921 -0.1276
  451loPI   GL2 7206   0.300  10.698   9.407  0.1709  0.2026  0.1935
  451loPI   C1A 7207   0.850  10.482   8.872  0.0205  0.0422  0.2428
  451loPI   C2A 7208   0.754  10.431   8.444 -0.0858  0.2933 -0.0446
  451loPI   C3A 7209   0.523  10.248   8.070  0.0493  0.3483  0.0910
  451loPI   C4A 7210   0.430  10.004   7.931 -0.1921 -0.2660 -0.0957
  451loPI   C5A 7211   0.100   9.878   7.643  0.0773  0.0743 -0.1893
  451loPI   C6A 7212  -0.255   9.597   7.652 -0.2448 -0.1357  0.0057
  451loPI   C1B 7213   0.334  10.457   9.000 -0.1081  0.1206  0.0411
  451loPI   C2B 7214   0.292  10.350   8.614 -0.0709 -0.2626 -0.1754
  451loPI   C3B 7215   0.009  10.252   8.256  0.1922 -0.1467 -0.2634
  451loPI   C4B 7216  -0.270   9.898   8.125 -0.1648  0.2316  0.2082
  452loPI    C1 7217  17.626   7.894  10.128  0.0466  0.1644  0.1776
  452loPI    C2 7218  17.776   7.618  10.375 -0.0392 -0.0432  0.0015
  452loPI    C3 7219  17.401   7.746  10.423  0.0395  0.1337  0.1567
  452loPI   PO4 7220  17.926   7.854   9.893 -0.1807  0.2526 -0.1348
  452loPI   GL1 7221  18.020   7.866   9.421 -0.0322 -0.1221  0.0393
  452loPI   GL2 7222  17.788   7.773   9.214  0.3297 -0.2066 -0.0073
  452loPI   C1A 7223  18.451   7.912   9.258  0.1661  0.0520  0.0454
  452loPI   C2A 7224  18.633   8.228   9.018  0.0979 -0.0156 -0.3213
  452loPI   C3A 7225  18.595   8.193   8.483  0.2093 -0.0441 -0.1059
  452loPI   C4A 7226  18.430   8.332   8.051  0.1010  0.1510 -0.0728
  452loPI   C5A 7227  18.551   8.310   7.659 -0.0968 -0.1404 -0.1103
  452loPI   C6A 7228  18.819   8.210   7.240  0.0813  0.2085 -0.1001
  452loPI   C1B 7229  17.586   7.526   8.941 -0.0833 -0.3308  0.3096
  452loPI   C2B 7230  17.481   7.289   8.636  0.1659  0.0157  0.1422
  452loPI   C3B 7231  17.515   7.267   8.210 -0.0325 -0.0438 -0.2549
  452loPI   C4B 7232  17.543   7.431   7.801  0.0024 -0.0908 -0.0655
  453loPI    C1 7233  11.232  15.376   9.678 -0.0589  0.1879 -0.0032
  453loPI    C2 7234  10.873  15.551   9.669 -0.2662 -0.2203  0.0735
  453loPI    C3 7235  11.058  15.492  10.019 -0.0061  0.2114  0.0158
  453loPI   PO4 7236  11.376  15.489   9.536 -0.0694  0.1359  0.0544
  453loPI   GL1 7237  11.684  15.547   9.253  0.2948 -0.0894  0.1572
  453loPI   GL2 7238  11.550  15.796   9.126  0.1855 -0.2704  0.0261
  453loPI   C1A 7239  11.749  15.255   8.976  0.0589 -0.0020 -0.1363
  453loPI   C2A 7240  11.858  15.194   8.556 -0.3443  0.3055  0.1042
  453loPI   C3A 7241  11.828  14.960   8.264 -0.2144  0.1603 -0.1775
  453loPI   C4A 7242  11.810  14.749   7.856 -0.4993  0.0802 -0.3739
  453loPI   C5A 7243  11.863  14.566   7.459 -0.0156  0.1919  0.2215
  453loPI   C6A 7244  12.218  14.464   7.190 -0.1792  0.0651 -0.2546
  453loPI   C1B 7245  11.807  15.740   8.687  0.0862 -0.0234 -0.1055
  453loPI   C2B 7246  11.905  15.607   8.304  0.1834  0.0714 -0.2009
  453loPI   C3B 7247  11.846  15.430   8.027 -0.1235 -0.1861  0.1365
  453loPI   C4B 7248  11.736  15.267   7.728 -0.2365 -0.2175 -0.1005
  454loPI    C1 7249   7.367   2.371   9.649  0.1217  0.1040  0.0287
  454loPI    C2 7250   7.304   2.079   9.914 -0.1662 -0.0203 -0.1714
  454loPI    C3 7251   7.654   2.272   9.909  0.1314 -0.5421 -0.2098
  454loPI   PO4 7252   7.198   2.266   9.460  0.1631 -0.1301 -0.0299
  454loPI   GL1 7253   7.377   2.324   9.107 -0.0694  0.1169 -0.0038
  454loPI   GL2 7254   7.568   2.549   9.213 -0.4625  0.0162 -0.1726
  454loPI   C1A 7255   7.062   2.216   8.819  0.0943  0.2023  0.1810
  454loPI   C2A 7256   6.897   2.190   8.434 -0.2760  0.2272  0.1195
  454loPI   C3A 7257   6.897   2.267   8.029  0.0541 -0.0196  0.2143
  454loPI   C4A 7258   6.740   2.532   7.630  0.0130 -0.0456 -0.0285
  454loPI   C5A 7259   7.002   2.592   7.315 -0.1435  0.0498  0.0970
  454loPI   C6A 7260   7.287   2.495   7.000  0.0308 -0.0395 -0.1442
  454loPI   C1B 7261   7.787   2.867   9.234  0.1153  0.0391  0.2503
  454loPI   C2B 7262   7.780   2.981   8.858 -0.0557  0.3087  0.1592
  454loPI   C3B 7263   7.634   3.297   8.661 -0.0617  0.2915 -0.0231
  454loPI   C4B 7264   7.758   3.431   8.349  0.3502  0.1477  0.1563
  455loPI    C1 7265   2.433  15.573   9.059 -0.1780  0.0704 -0.0140
  455loPI    C2 7266   2.262  15.649   9.412 -0.1886  0.0865 -0.0227
  455loPI    C3 7267   2.642  15.526   9.397 -0.1773  0.1197 -0.0075
  455loPI   PO4 7268   2.417  15.755   8.878  0.3331 -0.3391  0.0395
  455loPI   GL1 7269   2.122  15.755   8.587  0.0368  0.1069 -0.0474
  455loPI   GL2 7270   1.833  15.891   8.573 -0.0937  0.2673  0.1110
  455loPI   C1A 7271   2.168  15.687   8.248 -0.2145  0.0913  0.0011
  455loPI   C2A 7272   2.367  15.666   7.866 -0.1048 -0.0477  0.1824
  455loPI   C3A 7273   2.368  15.456   7.554  0.0623 -0.0323 -0.2348
  455loPI   C4A 7274   2.372  15.585   7.099 -0.4031  0.0913 -0.0436
  455loPI   C5A 7275   2.308  15.806   6.657  0.2617 -0.0822 -0.0035
  455loPI   C6A 7276   2.468  16.122   6.454  0.0391  0.1437  0.1576
  455loPI   C1B 7277   1.735  15.966   8.246  0.2928 -0.0817  0.6031
  455loPI   C2B 7278   1.931  16.078   7.863  0.2025  0.0497  0.0545
  455loPI   C3B 7279   2.059  16.268   7.466  0.0148  0.1801  0.1562
  455loPI   C4B 7280   1.887  16.537   7.095  0.1469 -0.1454 -0.2605
  456loPI    C1 7281  16.929  12.867   9.745  0.1970  0.1303  0.1294
  456loPI    C2 7282  17.029  13.245   9.831  0.2679  0.1644 -0.0951
  456loPI    C3 7283  16.644  13.136   9.827  0.2395  0.2648 -0.1509
  456loPI   PO4 7284  17.090  12.821   9.526  0.1080  0.1590 -0.1772
  456loPI   GL1 7285  17.028  12.780   9.045  0.0920  0.0384  0.1834
  456loPI   GL2 7286  17.296  12.798   8.860  0.3243  0.1156 -0.3066
  456loPI   C1A 7287  16.909  12.520   8.875  0.0843  0.3161 -0.2341
  456loPI   C2A 7288  16.807  12.223   8.547 -0.0594 -0.2313  0.1402
  456loPI   C3A 7289  16.488  11.964   8.219  0.2401 -0.0323 -0.4877
  456loPI   C4A 7290  16.345  11.948   7.811  0.3983 -0.2842  0.3261
  456loPI   C5A 7291  16.413  11.962   7.321 -0.3457  0.3044  0.2248
  456loPI   C6A 7292  16.262  11.759   6.903  0.1409 -0.3472 -0.1355
  456loPI   C1B 7293  17.308  12.566   8.496  0.0212  0.1213  0.3555
  456loPI   C2B 7294  17.351  12.395   8.141 -0.1911  0.1492 -0.1707
  456loPI   C3B 7295  17.411  12.236   7.740 -0.1321 -0.0369  0.3300
  456loPI   C4B 7296  17.315  12.105   7.204 -0.1169 -0.0263  0.1542
  457loPI    C1 7297   8.305  10.467   9.876 -0.0367  0.1891 -0.0204
  457loPI    C2 7298   8.441  10.117  10.014  0.1178  0.1793 -0.1933
  457loPI    C3 7299   8.335  10.405  10.270 -0.2561 -0.0831 -0.0426
  457loPI   PO4 7300   8.412  10.440   9.627 -0.0310  0.1936 -0.1010
  457loPI   GL1 7301   8.202  10.062   9.488  0.3119  0.1309  0.1086
  457loPI   GL2 7302   8.187   9.793   9.327 -0.1590  0.2304  0.2114
  457loPI   C1A 7303   8.593  10.086   9.164 -0.0005  0.1311 -0.3046
  457loPI   C2A 7304   8.784   9.951   8.774 -0.0666 -0.4118  0.4206
  457loPI   C3A 7305   8.930  10.046   8.373 -0.2649 -0.1571 -0.1155
  457loPI   C4A 7306   8.928  10.112   7.979 -0.2909  0.1610 -0.0611
  457loPI   C5A 7307   8.583   9.914   7.665  0.1395  0.1230 -0.0518
  457loPI   C6A 7308   8.491   9.589   7.334  0.2093  0.2111  0.1340
  457loPI   C1B 7309   8.176   9.894   8.821  0.1719  0.2941 -0.1032
  457loPI   C2B 7310   8.398   9.793   8.432  0.1606 -0.2383  0.2149
  457loPI   C3B 7311   8.717   9.693   8.075 -0.3338 -0.0803  0.0753
  457loPI   C4B 7312   8.650   9.333   7.792 -0.2824  0.0438  0.4053
  458loPI    C1 7313   0.159  19.271   9.410  0.2517  0.3319  0.1131
  458loPI    C2 7314   0.414  19.411   9.685  0.2121 -0.0299  0.3406
  458loPI    C3 7315   0.404  19.020   9.602  0.0878  0.0499 -0.0402
  458loPI   PO4 7316   0.116  19.304   9.205 -0.1461 -0.1716  0.0189
  458loPI   GL1 7317  -0.058  19.284   8.818 -0.2026 -0.1087 -0.2419
  458loPI   GL2 7318   0.216  19.046   8.757  0.3234 -0.1533  0.0138
  458loPI   C1A 7319  -0.087  19.365   8.397  0.0077  0.2672  0.0046
  458loPI   C2A 7320  -0.137  19.489   7.938  0.2018  0.1764 -0.0562
  458loPI   C3A 7321  -0.200  19.341   7.570 -0.0044 -0.1069 -0.1538
  458loPI   C4A 7322  -0.310  19.318   7.190 -0.1121  0.1730  0.4063
  458loPI   C5A 7323  -0.399  19.259   6.751  0.2183 -0.0825  0.1009
  458loPI   C6A 7324  -0.520  19.140   6.356 -0.0986  0.0598 -0.0492
  458loPI   C1B 7325   0.334  18.823   8.416  0.2375  0.1466 -0.1913
  458loPI   C2B 7326   0.292  18.704   8.040 -0.0545 -0.1196 -0.1614
  458loPI   C3B 7327   0.125  18.545   7.648  0.0467 -0.3753 -0.0783
  458loPI   C4B 7328   0.252  18.548   7.213  0.1794 -0.0694  0.1480
  459loPI    C1 7329  14.481  11.868   9.926 -0.1423  0.0292 -0.0822
  459loPI    C2 7330  14.400  12.211  10.114 -0.0990 -0.0376  0.0591
  459loPI    C3 7331  14.571  11.909  10.313 -0.1431 -0.1438 -0.0630
  459loPI   PO4 7332  14.635  11.952   9.697 -0.0272 -0.2741  0.3382
  459loPI   GL1 7333  14.690  12.127   9.271 -0.0782  0.0550 -0.1992
  459loPI   GL2 7334  14.856  12.386   9.178 -0.0746  0.2791 -0.1218
  459loPI   C1A 7335  14.470  12.045   8.983  0.1533  0.2256 -0.0980
  459loPI   C2A 7336  14.397  11.840   8.596  0.2207 -0.1323  0.2062
  459loPI   C3A 7337  14.296  11.644   8.221  0.2563  0.1180 -0.2111
  459loPI   C4A 7338  13.971  11.416   7.944 -0.0871 -0.0104  0.2308
  459loPI   C5A 7339  13.759  11.162   7.602 -0.0106 -0.2085  0.1537
  459loPI   C6A 7340  13.254  11.130   7.583 -0.0342 -0.1415 -0.0950
  459loPI   C1B 7341  14.910  12.141   8.754  0.0481 -0.2987  0.0833
  459loPI   C2B 7342  14.978  11.766   8.388  0.0408 -0.1173  0.1436
  459loPI   C3B 7343  14.755  11.693   8.013 -0.0188 -0.0486  0.0204
  459loPI   C4B 7344  14.798  11.828   7.581 -0.0266 -0.3188  0.0958
  460loPI    C1 7345   1.638   6.199   9.711  0.0868  0.1380 -0.3190
  460loPI    C2 7346   1.484   6.555   9.810  0.0416  0.0706 -0.1436
  460loPI    C3 7347   1.367   6.373   9.473 -0.1627  0.0820 -0.0803
  460loPI   PO4 7348   1.898   6.188   9.734  0.4997 -0.0390  0.3254
  460loPI   GL1 7349   2.045   6.171   9.372 -0.0355 -0.4949 -0.0511
  460loPI   GL2 7350   2.250   6.402   9.285 -0.1686  0.3043 -0.2030
  460loPI   C1A 7351   2.061   6.040   8.954  0.1944 -0.2832  0.1254
  460loPI   C2A 7352   2.194   5.859   8.520  0.0935  0.1811  0.1637
  460loPI   C3A 7353   2.132   6.035   8.142 -0.0234 -0.2005 -0.2028
  460loPI   C4A 7354   1.986   6.069   7.782 -0.0767  0.3564 -0.1850
  460loPI   C5A 7355   2.067   6.122   7.374 -0.1221  0.0362  0.3248
  460loPI   C6A 7356   2.413   6.100   6.919  0.3855  0.0017  0.1969
  460loPI   C1B 7357   2.216   6.473   8.809 -0.2230  0.3044 -0.0704
  460loPI   C2B 7358   2.395   6.427   8.393 -0.3111 -0.0573 -0.0086
  460loPI   C3B 7359   2.377   6.482   8.020 -0.1202 -0.1295  0.2277
  460loPI   C4B 7360   2.325   6.409   7.649 -0.0157 -0.0145  0.0368
  461loPI    C1 7361  18.929  16.619  10.016  0.2634 -0.0878  0.2062
  461loPI    C2 7362  19.284  16.792   9.948  0.2209 -0.0539  0.0689
  461loPI    C3 7363  19.210  16.620  10.301  0.3414  0.0190  0.1300
  461loPI   PO4 7364  18.877  16.512   9.844 -0.0831 -0.0575  0.2927
  461loPI   GL1 7365  18.739  16.419   9.440 -0.1267 -0.1141  0.3309
  461loPI   GL2 7366  18.653  16.690   9.296  0.0564 -0.1776 -0.2201
  461loPI   C1A 7367  19.120  16.385   9.056  0.4023 -0.0357  0.1141
  461loPI   C2A 7368  19.351  16.381   8.727  0.1816  0.0161  0.0571
  461loPI   C3A 7369  19.213  16.289   8.261  0.0119  0.1069  0.1641
  461loPI   C4A 7370  18.991  15.995   7.877  0.4576  0.0231 -0.3145
  461loPI   C5A 7371  18.549  16.025   7.694 -0.1169  0.2386  0.0642
  461loPI   C6A 7372  18.600  15.976   7.110 -0.0810 -0.0588  0.1835
  461loPI   C1B 7373  18.476  16.739   8.909 -0.1775 -0.2239 -0.1870
  461loPI   C2B 7374  18.550  16.930   8.493 -0.0555  0.2944 -0.0012
  461loPI   C3B 7375  18.580  16.984   8.024  0.1660 -0.1668 -0.1121
  461loPI   C4B 7376  18.707  17.009   7.663  0.0271 -0.2239  0.0677
  462loPI    C1 7377   4.430  18.028   8.960  0.0130 -0.1006  0.1689
  462loPI    C2 7378   4.145  18.017   8.680  0.0196 -0.1268  0.1631
  462loPI    C3 7379   4.072  18.191   9.033  0.0385 -0.0200  0.1149
  462loPI   PO4 7380   4.444  17.665   8.965 -0.3594  0.0321  0.0545
  462loPI   GL1 7381   4.327  17.407   8.667  0.0808  0.2431  0.1064
  462loPI   GL2 7382   4.139  17.585   8.417 -0.2441 -0.1480  0.0069
  462loPI   C1A 7383   4.519  17.258   8.315 -0.1665  0.0319  0.0839
  462loPI   C2A 7384   4.539  17.468   7.919  0.1041  0.0095 -0.1386
  462loPI   C3A 7385   4.607  17.476   7.468  0.0496  0.1628 -0.1605
  462loPI   C4A 7386   4.353  17.350   7.196  0.0362 -0.1823 -0.4088
  462loPI   C5A 7387   4.346  17.335   6.776  0.2877 -0.2494  0.0404
  462loPI   C6A 7388   4.482  17.017   6.440  0.2120  0.0557  0.3387
  462loPI   C1B 7389   4.042  17.507   8.039  0.3542 -0.1091 -0.0513
  462loPI   C2B 7390   3.991  17.392   7.659  0.2472  0.0379 -0.1150
  462loPI   C3B 7391   3.837  17.375   7.287  0.0029 -0.0395  0.2701
  462loPI   C4B 7392   3.861  17.214   6.989  0.0605  0.5511 -0.1004
  463loPI    C1 7393   0.135   2.729   9.365 -0.0311  0.0847  0.1539
  463loPI    C2 7394   0.400   2.850   9.639  0.0895  0.1930 -0.0082
  463loPI    C3 7395   0.078   3.074   9.559 -0.1396 -0.0159  0.3032
  463loPI   PO4 7396   0.272   2.603   9.240 -0.2114  0.0299 -0.0392
  463loPI   GL1 7397   0.449   2.345   9.005 -0.1125  0.0310 -0.0042
  463loPI   GL2 7398   0.652   2.155   9.017 -0.0281 -0.0948  0.1046
  463loPI   C1A 7399   0.563   2.403   8.559  0.0529  0.1815 -0.1319
  463loPI   C2A 7400   0.583   2.733   8.323 -0.1939  0.0213 -0.3265
  463loPI   C3A 7401   0.562   2.825   7.877 -0.1472 -0.0146  0.0229
  463loPI   C4A 7402   0.372   2.813   7.476  0.0747 -0.1303 -0.1877
  463loPI   C5A 7403   0.348   2.842   7.076 -0.1617  0.1223  0.1206
  463loPI   C6A 7404   0.132   2.883   6.694  0.0149  0.0611  0.2750
  463loPI   C1B 7405   0.661   1.822   8.783 -0.1365 -0.2253  0.0940
  463loPI   C2B 7406   0.731   1.758   8.345 -0.1653 -0.2255  0.0469
  463loPI   C3B 7407   0.841   1.934   7.971  0.1175  0.1599 -0.0633
  463loPI   C4B 7408   0.930   1.973   7.496 -0.3057 -0.3929 -0.2291
  464loPI    C1 7409  10.229  16.048   9.762  0.0250 -0.1401 -0.0211
  464loPI    C2 7410   9.861  16.035   9.919  0.0549 -0.1029  0.0531
  464loPI    C3 7411  10.180  16.059  10.159  0.0934  0.1151 -0.0180
  464loPI   PO4 7412  10.140  15.874   9.464 -0.0572 -0.0085 -0.0962
  464loPI   GL1 7413  10.196  15.981   9.052  0.0403  0.0084  0.1089
  464loPI   GL2 7414   9.914  16.128   9.040  0.0548 -0.0092 -0.2080
  464loPI   C1A 7415  10.274  15.635   8.811  0.0651 -0.1318  0.0399
  464loPI   C2A 7416  10.239  15.484   8.399 -0.1106 -0.1797 -0.2088
  464loPI   C3A 7417  10.357  15.525   7.965  0.0695 -0.1023 -0.1534
  464loPI   C4A 7418  10.213  15.493   7.552 -0.2983  0.1243  0.2327
  464loPI   C5A 7419   9.902  15.392   7.255  0.0196 -0.2482  0.0806
  464loPI   C6A 7420   9.756  14.850   7.237  0.2479 -0.1249  0.3937
  464loPI   C1B 7421   9.964  16.484   8.750 -0.2193  0.0565  0.3537
  464loPI   C2B 7422   9.820  16.837   8.351 -0.0681 -0.1047 -0.1281
  464loPI   C3B 7423   9.977  16.858   7.957 -0.1318  0.0572  0.2916
  464loPI   C4B 7424   9.924  17.143   7.572  0.1944  0.1563  0.0383
  465loPI    C1 7425   8.525   6.890  10.211  0.0103 -0.0744 -0.0874
  465loPI    C2 7426   8.225   6.738  10.429  0.0405  0.1193  0.0930
  465loPI    C3 7427   8.205   7.115  10.296  0.1610  0.1015  0.0228
  465loPI   PO4 7428   8.550   6.785  10.007 -0.2347  0.2589 -0.3111
  465loPI   GL1 7429   8.567   6.803   9.629  0.1518 -0.0051 -0.0512
  465loPI   GL2 7430   8.807   6.530   9.504  0.0666  0.2719  0.2107
  465loPI   C1A 7431   8.434   6.827   9.183  0.0024 -0.4611 -0.2244
  465loPI   C2A 7432   8.313   6.784   8.667  0.0392 -0.0552 -0.0423
  465loPI   C3A 7433   8.058   6.722   8.322 -0.0135 -0.2140 -0.3010
  465loPI   C4A 7434   7.918   6.593   7.942 -0.0790  0.1573  0.1664
  465loPI   C5A 7435   7.932   6.605   7.561  0.1777  0.2846 -0.0371
  465loPI   C6A 7436   8.164   6.822   7.264 -0.2474 -0.1122 -0.2039
  465loPI   C1B 7437   8.925   6.725   9.085  0.3198  0.0006  0.3324
  465loPI   C2B 7438   9.044   6.674   8.715 -0.1187 -0.1817 -0.0633
  465loPI   C3B 7439   9.205   6.540   8.340 -0.0795  0.0894 -0.3342
  465loPI   C4B 7440   9.353   6.292   8.094  0.1470 -0.0566  0.3577
  466loPI    C1 7441  13.051  12.165   9.663 -0.1091  0.2002 -0.2256
  466loPI    C2 7442  13.082  11.883   9.944  0.0036  0.1508 -0.2868
  466loPI    C3 7443  12.721  11.999   9.815 -0.0441  0.0630 -0.2336
  466loPI   PO4 7444  13.121  12.448   9.731 -0.2224  0.2547  0.1484
  466loPI   GL1 7445  13.140  12.635   9.432 -0.2925 -0.1801  0.4330
  466loPI   GL2 7446  12.956  12.730   9.205 -0.2845  0.2875 -0.1714
  466loPI   C1A 7447  13.509  12.683   9.029 -0.0987 -0.4049 -0.1165
  466loPI   C2A 7448  13.584  12.665   8.617  0.1913 -0.0326  0.0850
  466loPI   C3A 7449  13.635  12.424   8.177 -0.1337 -0.1196  0.1653
  466loPI   C4A 7450  13.652  12.269   7.687  0.1942  0.0137 -0.0378
  466loPI   C5A 7451  13.973  12.503   7.450  0.3416  0.0445 -0.1240
  466loPI   C6A 7452  14.169  12.882   7.663  0.0311 -0.0332  0.1586
  466loPI   C1B 7453  13.006  12.666   8.839 -0.4730  0.2083  0.1258
  466loPI   C2B 7454  13.153  12.499   8.489  0.0748 -0.0610  0.1893
  466loPI   C3B 7455  13.066  12.376   8.092  0.0612  0.3446 -0.0149
  466loPI   C4B 7456  13.114  12.649   7.816  0.1441 -0.0331 -0.1161
  467loPI    C1 7457   0.454  13.891   9.555 -0.1294  0.1605 -0.0368
  467loPI    C2 7458   0.344  13.509   9.597 -0.1325  0.1423 -0.2039
  467loPI    C3 7459   0.092  13.802   9.700 -0.1906  0.0996 -0.2237
  467loPI   PO4 7460   0.553  13.913   9.355 -0.0333  0.2149  0.1432
  467loPI   GL1 7461   0.621  13.861   8.854  0.0955 -0.1594  0.1401
  467loPI   GL2 7462   0.349  13.751   8.698  0.3161  0.0074  0.3000
  467loPI   C1A 7463   1.006  13.893   8.503 -0.0289 -0.1522  0.3606
  467loPI   C2A 7464   1.279  14.029   8.228  0.0654 -0.0383  0.0485
  467loPI   C3A 7465   1.612  13.914   7.912  0.0433 -0.1017 -0.0407
  467loPI   C4A 7466   1.824  13.740   7.567 -0.2291  0.1090 -0.2137
  467loPI   C5A 7467   1.921  13.683   7.084  0.2017 -0.0253  0.5005
  467loPI   C6A 7468   1.693  13.797   6.728 -0.0141 -0.0242  0.4326
  467loPI   C1B 7469   0.569  13.751   8.265 -0.0052 -0.2345 -0.2391
  467loPI   C2B 7470   0.414  13.871   7.927  0.4892  0.3312  0.0711
  467loPI   C3B 7471   0.259  14.005   7.594 -0.2598 -0.0627 -0.0662
  467loPI   C4B 7472   0.161  14.005   7.198  0.2089 -0.0666  0.1189
  468loPI    C1 7473   1.012  12.659   9.481 -0.1034 -0.1693  0.0551
  468loPI    C2 7474   0.643  12.722   9.623 -0.1925 -0.2477 -0.1377
  468loPI    C3 7475   0.947  12.657   9.875 -0.1607  0.5743  0.0645
  468loPI   PO4 7476   0.928  12.635   9.220 -0.1950  0.0198 -0.1806
  468loPI   GL1 7477   1.020  12.424   9.010 -0.0121 -0.2911  0.0950
  468loPI   GL2 7478   0.622  12.326   9.004 -0.1347  0.2975 -0.2825
  468loPI   C1A 7479   1.024  12.276   8.587  0.1868 -0.2000 -0.1607
  468loPI   C2A 7480   1.130  12.061   8.241 -0.2243 -0.0131  0.1375
  468loPI   C3A 7481   1.022  11.986   7.818  0.0778  0.2286 -0.0746
  468loPI   C4A 7482   1.018  12.077   7.369  0.0032 -0.1362  0.0084
  468loPI   C5A 7483   1.370  11.899   7.089  0.4816  0.2071  0.1226
  468loPI   C6A 7484   1.822  11.907   6.980  0.0081  0.1565  0.0371
  468loPI   C1B 7485   0.514  12.057   8.677 -0.1530  0.0921 -0.1923
  468loPI   C2B 7486   0.648  11.810   8.285 -0.3279  0.1563  0.1316
  468loPI   C3B 7487   0.698  11.598   7.857 -0.2356 -0.2523 -0.2504
  468loPI   C4B 7488   0.784  11.621   7.451 -0.1555 -0.0461 -0.4098
  469loPI    C1 7489   7.474  10.813   9.761  0.0934 -0.2668  0.2198
  469loPI    C2 7490   7.614  11.177   9.848 -0.1963 -0.1318  0.1336
  469loPI    C3 7491   7.491  10.934  10.141 -0.0236 -0.1533  0.1895
  469loPI   PO4 7492   7.358  10.821   9.548 -0.0543  0.1178  0.1421
  469loPI   GL1 7493   7.465  10.804   9.152 -0.4552  0.1144  0.0452
  469loPI   GL2 7494   7.111  10.919   9.098 -0.1168  0.0154 -0.3760
  469loPI   C1A 7495   7.695  10.856   8.847 -0.1547 -0.0345  0.0496
  469loPI   C2A 7496   7.907  10.610   8.551  0.2524 -0.0317  0.2463
  469loPI   C3A 7497   7.934  10.451   8.083  0.0607  0.1652  0.4387
  469loPI   C4A 7498   7.898  10.636   7.633 -0.0241 -0.2234  0.0123
  469loPI   C5A 7499   7.700  10.693   7.465  0.4183 -0.0137  0.1349
  469loPI   C6A 7500   7.332  10.774   7.115 -0.1111  0.1207  0.2577
  469loPI   C1B 7501   7.360  10.544   8.772 -0.1927  0.3323 -0.0606
  469loPI   C2B 7502   7.457  10.417   8.342 -0.2632 -0.1398  0.0258
  469loPI   C3B 7503   7.443  10.139   8.097  0.4071  0.2164 -0.2357
  469loPI   C4B 7504   7.303   9.902   7.777 -0.0392  0.3227  0.4377
  470loPI    C1 7505  19.574  14.180   9.409 -0.1391  0.4781  0.0510
  470loPI    C2 7506  19.288  14.117   9.682 -0.0808  0.0397  0.0184
  470loPI    C3 7507  19.629  14.297   9.788 -0.0539 -0.1371  0.2405
  470loPI   PO4 7508  19.415  14.158   9.223  0.2012  0.0820  0.1140
  470loPI   GL1 7509  19.499  13.985   8.741 -0.1484  0.2549 -0.0555
  470loPI   GL2 7510  19.161  13.845   8.790 -0.0423 -0.2329  0.0571
  470loPI   C1A 7511  19.479  13.835   8.344  0.1487  0.1092  0.3057
  470loPI   C2A 7512  19.511  13.995   7.913  0.2846 -0.2030  0.0282
  470loPI   C3A 7513  19.426  13.732   7.470 -0.2038  0.3432 -0.1419
  470loPI   C4A 7514  19.124  13.378   7.327 -0.1338  0.2660 -0.0806
  470loPI   C5A 7515  18.814  13.297   7.139  0.2221  0.0798 -0.0554
  470loPI   C6A 7516  18.604  13.184   6.696 -0.3578  0.0602 -0.1193
  470loPI   C1B 7517  18.861  13.883   8.436  0.0303  0.2968 -0.0441
  470loPI   C2B 7518  18.645  13.994   8.102  0.1593 -0.4632  0.1791
  470loPI   C3B 7519  18.658  14.377   7.887  0.2655  0.1388  0.0378
  470loPI   C4B 7520  18.349  14.567   7.634  0.1447  0.0814 -0.0789
  471loPI    C1 7521  15.022   4.757   9.598 -0.0895  0.1441 -0.1433
  471loPI    C2 7522  14.855   4.394   9.617  0.1896  0.0253  0.1102
  471loPI    C3 7523  15.209   4.442   9.437  0.1537  0.1723  0.0779
  471loPI   PO4 7524  14.965   4.912   9.524  0.0755 -0.4730 -0.0670
  471loPI   GL1 7525  14.809   5.076   9.195 -0.2535  0.1709  0.0037
  471loPI   GL2 7526  14.500   4.972   9.142 -0.0336  0.0410 -0.0513
  471loPI   C1A 7527  14.909   5.384   8.983 -0.0140 -0.0758 -0.1668
  471loPI   C2A 7528  15.129   5.536   8.597  0.0051  0.3903 -0.0592
  471loPI   C3A 7529  15.119   5.443   8.095 -0.0177  0.0345  0.2930
  471loPI   C4A 7530  15.102   5.283   7.695  0.0437  0.1671  0.1354
  471loPI   C5A 7531  15.095   5.402   7.250  0.2454 -0.2540  0.1685
  471loPI   C6A 7532  14.877   5.313   6.852  0.0544  0.1792 -0.2642
  471loPI   C1B 7533  14.628   4.921   8.786 -0.0657  0.1734  0.0871
  471loPI   C2B 7534  14.991   5.036   8.529  0.1453 -0.2147  0.1427
  471loPI   C3B 7535  15.301   4.956   8.214 -0.2179  0.3210 -0.1241
  471loPI   C4B 7536  15.501   4.815   7.866 -0.0971  0.3083 -0.0505
  472loPI    C1 7537  16.442   5.431  10.252 -0.0416 -0.0119 -0.1133
  472loPI    C2 7538  16.236   5.340  10.583 -0.1854 -0.1224 -0.2318
  472loPI    C3 7539  16.352   5.717  10.517 -0.1439 -0.1025 -0.0494
  472loPI   PO4 7540  16.350   5.311   9.990  0.3560  0.0948 -0.0702
  472loPI   GL1 7541  16.498   5.137   9.590  0.2100  0.0491 -0.1250
  472loPI   GL2 7542  16.398   4.884   9.405 -0.1166  0.1967  0.1549
  472loPI   C1A 7543  16.812   5.372   9.354  0.3387  0.0133 -0.0906
  472loPI   C2A 7544  16.918   5.166   8.978 -0.1123 -0.2180  0.3257
  472loPI   C3A 7545  17.259   5.242   8.668 -0.0935 -0.3467  0.3129
  472loPI   C4A 7546  17.440   5.003   8.305 -0.0999 -0.1563 -0.0892
  472loPI   C5A 7547  17.475   5.049   7.768 -0.1932 -0.1757 -0.0967
  472loPI   C6A 7548  17.483   5.160   7.325 -0.0799  0.1230 -0.0753
  472loPI   C1B 7549  16.483   4.938   8.910  0.0495 -0.1841  0.0230
  472loPI   C2B 7550  16.759   4.899   8.619  0.0990 -0.3220  0.1163
  472loPI   C3B 7551  16.882   4.975   8.156  0.2751  0.0082  0.2117
  472loPI   C4B 7552  16.921   5.000   7.699 -0.1965  0.0329  0.0830
  473loPI    C1 7553  13.314   9.308  10.313 -0.0556 -0.0067  0.1516
  473loPI    C2 7554  13.231   9.615  10.070  0.0632  0.0704  0.2071
  473loPI    C3 7555  13.184   9.654  10.466  0.2070  0.0617  0.2253
  473loPI   PO4 7556  13.337   9.074  10.172  0.1644 -0.0193  0.1721
  473loPI   GL1 7557  13.527   9.004   9.736  0.1836 -0.4680 -0.0768
  473loPI   GL2 7558  13.662   9.357   9.810 -0.1782 -0.0823  0.0561
  473loPI   C1A 7559  13.626   8.830   9.339 -0.1612 -0.1745 -0.0646
  473loPI   C2A 7560  13.571   8.740   8.960 -0.2053 -0.1104 -0.0734
  473loPI   C3A 7561  13.783   8.782   8.541  0.2219  0.0869 -0.2141
  473loPI   C4A 7562  13.971   8.562   8.249 -0.3344 -0.2025  0.1776
  473loPI   C5A 7563  13.997   8.447   7.828  0.1268 -0.1338 -0.3347
  473loPI   C6A 7564  13.915   8.331   7.416  0.0628 -0.0689  0.2285
  473loPI   C1B 7565  13.784   9.399   9.424 -0.0371  0.0708 -0.1683
  473loPI   C2B 7566  13.665   9.512   8.989  0.0484  0.1874  0.0900
  473loPI   C3B 7567  13.801   9.354   8.602 -0.1836 -0.0234 -0.1882
  473loPI   C4B 7568  13.894   9.233   8.105 -0.0625 -0.1159  0.2121
  474loPI    C1 7569  14.752  16.023   9.326 -0.0509  0.0264  0.0314
  474loPI    C2 7570  14.432  16.090   9.557 -0.0443  0.2228 -0.0151
  474loPI    C3 7571  14.784  16.255   9.650  0.0673 -0.0664  0.0871
  474loPI   PO4 7572  14.696  15.645   9.224  0.3892  0.1663 -0.2762
  474loPI   GL1 7573  14.517  15.455   8.900 -0.2852 -0.2831  0.1980
  474loPI   GL2 7574  14.513  15.782   8.793 -0.1852  0.0994 -0.2219
  474loPI   C1A 7575  14.127  15.521   8.602  0.0310 -0.2258  0.2482
  474loPI   C2A 7576  13.919  15.480   8.164  0.0780  0.2005 -0.1334
  474loPI   C3A 7577  13.595  15.594   7.926  0.0910  0.0980  0.2385
  474loPI   C4A 7578  13.478  15.794   7.576 -0.0199 -0.3057  0.0399
  474loPI   C5A 7579  13.500  15.977   7.187  0.1755  0.1018  0.1125
  474loPI   C6A 7580  13.488  16.089   6.784 -0.0427 -0.1107 -0.1114
  474loPI   C1B 7581  14.388  15.855   8.363  0.2504 -0.1398  0.0282
  474loPI   C2B 7582  14.344  15.637   8.019 -0.0833  0.1877 -0.0386
  474loPI   C3B 7583  14.204  15.453   7.545  0.0695  0.1875 -0.1976
  474loPI   C4B 7584  14.228  15.248   7.087  0.2475  0.0194 -0.1127
  475loPI    C1 7585   6.682  10.919  10.146 -0.0573  0.2225 -0.0422
  475loPI    C2 7586   6.659  10.681  10.466 -0.2433  0.0837 -0.1562
  475loPI    C3 7587   6.997  10.881  10.389 -0.1237 -0.0533  0.0039
  475loPI   PO4 7588   6.584  10.732   9.885 -0.3087  0.0822  0.2053
  475loPI   GL1 7589   6.303  10.573   9.495  0.1524 -0.0367  0.0216
  475loPI   GL2 7590   6.423  10.790   9.123 -0.0773 -0.3148 -0.2001
  475loPI   C1A 7591   6.481  10.294   9.274 -0.1146 -0.2090  0.1794
  475loPI   C2A 7592   6.359   9.976   8.976  0.2408 -0.2189 -0.2995
  475loPI   C3A 7593   6.145   9.849   8.624 -0.1550  0.1985 -0.1388
  475loPI   C4A 7594   6.304   9.572   8.396  0.3235  0.3535  0.2176
  475loPI   C5A 7595   6.541   9.224   8.246 -0.0238 -0.0236 -0.1502
  475loPI   C6A 7596   6.899   9.044   8.026 -0.2407 -0.5122  0.0349
  475loPI   C1B 7597   6.751  10.666   8.889 -0.1531  0.0899  0.0824
  475loPI   C2B 7598   6.967  10.700   8.512  0.2011  0.0186 -0.3122
  475loPI   C3B 7599   7.135  10.646   8.091  0.2430 -0.1717 -0.0681
  475loPI   C4B 7600   7.243  10.572   7.687 -0.1388 -0.2003 -0.1977
  476loPI    C1 7601   4.306  16.056   9.419  0.0579 -0.0803  0.0098
  476loPI    C2 7602   3.927  15.993   9.309  0.1840 -0.6108 -0.1471
  476loPI    C3 7603   4.025  15.991   9.696 -0.0422 -0.0238 -0.0778
  476loPI   PO4 7604   4.342  16.139   9.165  0.1024 -0.0556  0.2337
  476loPI   GL1 7605   4.170  16.016   8.758  0.1732  0.0191  0.0188
  476loPI   GL2 7606   3.925  16.168   8.862 -0.0305  0.1370  0.2680
  476loPI   C1A 7607   4.087  15.990   8.335 -0.0019  0.1462  0.1544
  476loPI   C2A 7608   4.169  15.990   7.835 -0.0454  0.0681 -0.0313
  476loPI   C3A 7609   4.268  16.072   7.485 -0.1938  0.1465  0.0903
  476loPI   C4A 7610   4.257  16.080   7.097 -0.0060 -0.0529  0.0294
  476loPI   C5A 7611   4.667  16.093   6.858 -0.0069 -0.0073 -0.3827
  476loPI   C6A 7612   5.103  16.278   6.981 -0.0177 -0.1772  0.2245
  476loPI   C1B 7613   3.714  16.282   8.490  0.0446  0.3156 -0.3004
  476loPI   C2B 7614   3.697  16.191   8.015 -0.0915 -0.3236 -0.2091
  476loPI   C3B 7615   3.777  15.988   7.555  0.2983 -0.0937  0.1772
  476loPI   C4B 7616   3.968  15.645   7.307 -0.3107 -0.0153 -0.0660
  477loPI    C1 7617  19.367   4.789   9.601  0.1581  0.0516  0.0100
  477loPI    C2 7618  19.474   4.801   9.987  0.0571  0.2831  0.0325
  477loPI    C3 7619  19.349   5.134   9.803  0.1137  0.1762 -0.2038
  477loPI   PO4 7620  19.484   4.515   9.523 -0.1563 -0.3537 -0.1110
  477loPI   GL1 7621  19.492   4.373   9.183 -0.0030 -0.0588  0.2039
  477loPI   GL2 7622  19.117   4.371   8.960  0.0679 -0.0716  0.2402
  477loPI   C1A 7623  19.558   4.278   8.743 -0.2077 -0.1172 -0.2468
  477loPI   C2A 7624  19.511   4.226   8.336 -0.0036  0.2696  0.2593
  477loPI   C3A 7625  19.350   4.212   7.863  0.1668  0.1723  0.1534
  477loPI   C4A 7626  19.271   4.372   7.426 -0.0184  0.0073 -0.0047
  477loPI   C5A 7627  19.059   4.382   6.981 -0.0656 -0.2694 -0.3054
  477loPI   C6A 7628  18.658   4.437   6.886  0.1067 -0.2495 -0.1607
  477loPI   C1B 7629  18.998   4.284   8.589  0.0272 -0.2313 -0.1538
  477loPI   C2B 7630  18.986   4.280   8.238  0.0415  0.0424 -0.0069
  477loPI   C3B 7631  18.881   4.399   7.836 -0.0137  0.3755 -0.0919
  477loPI   C4B 7632  18.780   4.534   7.349  0.1875 -0.0547  0.0119
  478loPI    C1 7633  13.134   1.741   9.445  0.4354 -0.1769 -0.1325
  478loPI    C2 7634  13.313   1.770   9.802 -0.0196  0.0554  0.0853
  478loPI    C3 7635  12.920   1.699   9.780  0.0202 -0.0557 -0.3756
  478loPI   PO4 7636  13.214   1.877   9.312 -0.0060  0.1679  0.0526
  478loPI   GL1 7637  13.339   1.681   9.015  0.1899 -0.1562 -0.3290
  478loPI   GL2 7638  13.012   1.570   8.928  0.0898  0.3652 -0.2251
  478loPI   C1A 7639  13.233   1.860   8.561  0.0524  0.1440 -0.2730
  478loPI   C2A 7640  13.278   1.846   8.140 -0.1013  0.0737 -0.3120
  478loPI   C3A 7641  13.321   1.586   7.777 -0.1491 -0.0725  0.0336
  478loPI   C4A 7642  13.384   1.289   7.391 -0.2573 -0.0437 -0.1401
  478loPI   C5A 7643  13.135   1.329   7.003 -0.1524 -0.1835  0.1457
  478loPI   C6A 7644  13.158   0.925   6.759  0.0224  0.0035 -0.0262
  478loPI   C1B 7645  13.204   1.371   8.556 -0.0686  0.2460 -0.5457
  478loPI   C2B 7646  13.175   1.274   8.130  0.0426 -0.3283 -0.4536
  478loPI   C3B 7647  13.063   1.040   7.710 -0.2142  0.1893 -0.3354
  478loPI   C4B 7648  13.156   0.859   7.328  0.0743 -0.2654 -0.1397
  479loPI    C1 7649   7.905   9.213   9.972 -0.0503 -0.2536  0.0469
  479loPI    C2 7650   7.694   9.225  10.311 -0.0088 -0.3338  0.0757
  479loPI    C3 7651   7.731   9.554  10.088 -0.4505 -0.4005 -0.1060
  479loPI   PO4 7652   7.788   8.873   9.803  0.1919 -0.2175  0.0214
  479loPI   GL1 7653   7.538   8.984   9.467  0.2603  0.0093 -0.2890
  479loPI   GL2 7654   7.256   9.106   9.424 -0.3257  0.0808  0.3279
  479loPI   C1A 7655   7.621   9.165   9.027  0.0448 -0.0647 -0.2420
  479loPI   C2A 7656   7.421   9.249   8.710  0.1949  0.1116 -0.1245
  479loPI   C3A 7657   7.415   9.052   8.198  0.0508  0.1823 -0.1135
  479loPI   C4A 7658   7.332   8.858   7.797  0.2472 -0.2747 -0.2505
  479loPI   C5A 7659   7.410   8.536   7.665  0.0483  0.1735  0.0250
  479loPI   C6A 7660   7.427   8.230   7.867  0.1443  0.0245 -0.2242
  479loPI   C1B 7661   7.178   9.610   9.248 -0.2188  0.0978  0.3634
  479loPI   C2B 7662   7.029   9.665   8.932 -0.0652  0.3247  0.3828
  479loPI   C3B 7663   6.914   9.339   8.520 -0.1300  0.1631  0.0067
  479loPI   C4B 7664   7.021   8.891   8.463 -0.0976  0.1316  0.1652
  480loPI    C1 7665  16.902   8.227   9.638 -0.2902  0.1926  0.1170
  480loPI    C2 7666  16.676   8.017   9.383  0.1966 -0.1524 -0.0457
  480loPI    C3 7667  16.618   7.982   9.777 -0.3036  0.0876 -0.0912
  480loPI   PO4 7668  17.154   8.211   9.474 -0.1940 -0.0240  0.0152
  480loPI   GL1 7669  17.227   8.577   9.181  0.1515 -0.1223 -0.0848
  480loPI   GL2 7670  16.934   8.737   9.252 -0.0069  0.4214 -0.0578
  480loPI   C1A 7671  16.928   8.560   8.758 -0.0235 -0.4393 -0.0686
  480loPI   C2A 7672  16.875   8.566   8.434  0.2485 -0.0523 -0.3231
  480loPI   C3A 7673  16.520   8.465   8.217  0.1067  0.3082 -0.1439
  480loPI   C4A 7674  16.382   8.545   7.897  0.1873 -0.1070 -0.0089
  480loPI   C5A 7675  16.433   8.637   7.485 -0.0162  0.1754  0.2452
  480loPI   C6A 7676  16.625   8.623   7.127  0.1336 -0.0676  0.2057
  480loPI   C1B 7677  16.725   9.016   9.031  0.1404 -0.2158 -0.0365
  480loPI   C2B 7678  16.484   9.335   8.809  0.2013  0.1504 -0.2767
  480loPI   C3B 7679  16.227   9.604   8.747 -0.2591  0.1861  0.0663
  480loPI   C4B 7680  15.845   9.638   8.672 -0.1329 -0.0886  0.0866
  481loPI    C1 7681   8.486  12.342   9.686 -0.2915  0.1359 -0.1928
  481loPI    C2 7682   8.358  12.697   9.820 -0.2967  0.0904 -0.0765
  481loPI    C3 7683   8.212  12.359   9.977  0.1106  0.0369  0.2021
  481loPI   PO4 7684   8.569  12.423   9.439 -0.0021  0.0579  0.0600
  481loPI   GL1 7685   8.310  12.488   8.957  0.2094 -0.0919  0.0212
  481loPI   GL2 7686   8.533  12.779   8.871  0.1217  0.1152  0.5565
  481loPI   C1A 7687   7.885  12.466   8.717  0.4370  0.0573  0.1712
  481loPI   C2A 7688   7.622  12.599   8.555  0.2566  0.1201 -0.0891
  481loPI   C3A 7689   7.655  12.577   8.169  0.0993 -0.1334 -0.0653
  481loPI   C4A 7690   7.903  12.325   7.816 -0.3126 -0.0087 -0.0751
  481loPI   C5A 7691   7.889  12.417   7.440 -0.0635 -0.0150  0.0713
  481loPI   C6A 7692   7.416  12.462   7.202  0.1345 -0.0237 -0.0311
  481loPI   C1B 7693   8.592  12.825   8.473  0.0740 -0.4787 -0.1246
  481loPI   C2B 7694   8.682  12.733   8.117  0.1344 -0.0706 -0.1994
  481loPI   C3B 7695   8.838  12.816   7.724 -0.0993 -0.2034  0.0746
  481loPI   C4B 7696   8.991  12.709   7.361 -0.1488  0.2500  0.1310
  482loPI    C1 7697   6.438   6.949   9.763  0.1698 -0.3534 -0.1098
  482loPI    C2 7698   6.587   6.706  10.044  0.5254  0.0506  0.0616
  482loPI    C3 7699   6.737   7.074   9.997  0.3287  0.0672 -0.5222
  482loPI   PO4 7700   6.351   6.781   9.548  0.2664  0.1015 -0.0222
  482loPI   GL1 7701   6.453   6.883   9.191 -0.1994 -0.2932 -0.0394
  482loPI   GL2 7702   6.760   7.016   9.311  0.3197 -0.2043  0.2561
  482loPI   C1A 7703   6.468   6.860   8.694 -0.2239 -0.2177 -0.0773
  482loPI   C2A 7704   6.405   6.708   8.224  0.1054  0.0471 -0.3825
  482loPI   C3A 7705   6.499   6.424   7.863  0.1996 -0.3392 -0.1090
  482loPI   C4A 7706   6.562   6.167   7.587  0.2188 -0.1017 -0.2375
  482loPI   C5A 7707   6.929   6.011   7.351 -0.0157  0.3747 -0.3116
  482loPI   C6A 7708   7.034   5.557   7.104 -0.2466  0.3375 -0.0310
  482loPI   C1B 7709   6.891   7.133   8.831  0.0196 -0.0875  0.0654
  482loPI   C2B 7710   7.185   7.153   8.393  0.2282 -0.0260 -0.2245
  482loPI   C3B 7711   7.301   7.208   7.988 -0.1544  0.0361  0.0600
  482loPI   C4B 7712   7.498   7.387   7.638 -0.0207  0.2853 -0.3555
  483loPI    C1 7713  17.353   4.861  10.156  0.0043 -0.0504 -0.0595
  483loPI    C2 7714  17.642   5.033  10.373 -0.1079 -0.1150  0.1440
  483loPI    C3 7715  17.553   4.647  10.428  0.1254 -0.2379 -0.2929
  483loPI   PO4 7716  17.348   5.000   9.927 -0.0975 -0.2729 -0.5525
  483loPI   GL1 7717  17.715   5.080   9.576 -0.0052 -0.3661  0.0556
  483loPI   GL2 7718  17.450   5.464   9.598 -0.0017  0.1311  0.1733
  483loPI   C1A 7719  17.704   4.946   9.195 -0.2278 -0.0931 -0.5525
  483loPI   C2A 7720  17.922   5.059   8.843  0.0645 -0.2488 -0.1930
  483loPI   C3A 7721  17.957   4.942   8.455  0.0945 -0.0922  0.4085
  483loPI   C4A 7722  18.060   4.811   7.923  0.0993 -0.1252  0.0763
  483loPI   C5A 7723  18.011   4.471   7.634 -0.0305 -0.2654  0.0765
  483loPI   C6A 7724  18.286   4.393   7.435 -0.0545  0.0620 -0.0901
  483loPI   C1B 7725  17.398   5.346   9.155  0.0729 -0.2369  0.2136
  483loPI   C2B 7726  17.752   5.534   8.829 -0.3389 -0.1237 -0.2581
  483loPI   C3B 7727  17.742   5.436   8.417 -0.1769 -0.4534  0.2542
  483loPI   C4B 7728  17.842   5.227   8.085  0.2503  0.0361 -0.0410
  484loPI    C1 7729   3.068   8.866   9.819  0.1293 -0.2929  0.0617
  484loPI    C2 7730   3.393   8.648   9.738  0.3962  0.1649 -0.1377
  484loPI    C3 7731   3.406   8.929  10.022  0.0786 -0.0182  0.0642
  484loPI   PO4 7732   2.980   8.913   9.487  0.1046  0.1885 -0.0196
  484loPI   GL1 7733   3.060   8.803   9.125 -0.1796  0.2891 -0.1179
  484loPI   GL2 7734   3.261   8.565   8.935 -0.1084 -0.0301 -0.2187
  484loPI   C1A 7735   2.900   8.904   8.748  0.2047 -0.1832 -0.0081
  484loPI   C2A 7736   2.699   9.217   8.594 -0.0858  0.0705  0.1742
  484loPI   C3A 7737   2.713   9.604   8.307 -0.1855  0.1137 -0.1100
  484loPI   C4A 7738   2.757   9.694   7.868  0.0358 -0.1474  0.0932
  484loPI   C5A 7739   2.507   9.705   7.485  0.2822 -0.1319 -0.0900
  484loPI   C6A 7740   2.324   9.511   7.177 -0.1687 -0.1011 -0.2716
  484loPI   C1B 7741   3.165   8.557   8.500 -0.0229 -0.1067  0.3381
  484loPI   C2B 7742   3.184   8.405   7.987 -0.0612 -0.1434  0.0591
  484loPI   C3B 7743   3.086   8.460   7.606 -0.1128 -0.0616  0.1511
  484loPI   C4B 7744   3.188   8.513   7.089 -0.0226 -0.4894 -0.5917
  485loPI    C1 7745  13.924  10.259  10.285  0.3424  0.2520  0.0370
  485loPI    C2 7746  14.175   9.956  10.216 -0.0762 -0.1274  0.1347
  485loPI    C3 7747  14.044  10.026  10.587 -0.0955  0.0840  0.0889
  485loPI   PO4 7748  13.949  10.463  10.090  0.4708 -0.0383 -0.3966
  485loPI   GL1 7749  13.698  10.743   9.888 -0.2908 -0.3363  0.0121
  485loPI   GL2 7750  13.656  11.004   9.804  0.0880 -0.4421  0.1111
  485loPI   C1A 7751  13.803  10.488   9.478  0.0414 -0.1684 -0.0402
  485loPI   C2A 7752  14.130  10.442   9.277  0.0946  0.0356  0.0177
  485loPI   C3A 7753  14.322  10.153   9.065  0.2111 -0.0026  0.2158
  485loPI   C4A 7754  14.697  10.237   8.826  0.2880  0.3524 -0.1428
  485loPI   C5A 7755  15.048  10.252   8.552 -0.1322 -0.1332  0.3070
  485loPI   C6A 7756  15.043  10.232   8.149  0.3049  0.0202 -0.1490
  485loPI   C1B 7757  13.408  11.115   9.459 -0.0833  0.0713  0.0552
  485loPI   C2B 7758  13.075  11.050   9.140  0.0054  0.1137  0.2045
  485loPI   C3B 7759  13.015  10.912   8.770  0.1559 -0.3599 -0.0667
  485loPI   C4B 7760  13.089  11.176   8.451  0.1441  0.0190  0.1008
  486loPI    C1 7761  14.878  15.387   9.656  0.1347 -0.1183  0.2412
  486loPI    C2 7762  14.978  15.774   9.677  0.0963 -0.0986  0.0797
  486loPI    C3 7763  14.977  15.549  10.008  0.0749  0.0499  0.1817
  486loPI   PO4 7764  14.960  15.266   9.484  0.0625  0.0603  0.3764
  486loPI   GL1 7765  15.060  15.328   9.051  0.0368  0.2896  0.0567
  486loPI   GL2 7766  15.459  15.184   8.802  0.1810 -0.0084  0.2482
  486loPI   C1A 7767  15.066  15.526   8.666 -0.3832  0.4819 -0.2157
  486loPI   C2A 7768  15.113  15.450   8.302  0.0582 -0.0030  0.0732
  486loPI   C3A 7769  14.906  15.635   8.065  0.1654 -0.1257 -0.4575
  486loPI   C4A 7770  14.866  15.860   7.805 -0.0591  0.0999  0.1198
  486loPI   C5A 7771  14.693  16.007   7.427  0.3956 -0.0811  0.4991
  486loPI   C6A 7772  14.880  15.845   7.081  0.0782  0.1303 -0.0403
  486loPI   C1B 7773  15.600  15.282   8.369  0.2264  0.0025  0.0792
  486loPI   C2B 7774  15.918  15.494   8.139  0.0038  0.3828 -0.2008
  486loPI   C3B 7775  15.929  15.589   7.672  0.0396 -0.0751 -0.1750
  486loPI   C4B 7776  16.216  15.467   7.397 -0.1054  0.1278 -0.0734
  487loPI    C1 7777   4.044  17.162   9.665 -0.0476 -0.2859  0.0847
  487loPI    C2 7778   4.181  17.393   9.962  0.0781 -0.1499 -0.0769
  487loPI    C3 7779   3.827  17.209   9.998 -0.0417  0.0982  0.0381
  487loPI   PO4 7780   4.235  16.929   9.428  0.0530  0.0345  0.3034
  487loPI   GL1 7781   4.252  16.853   8.978  0.0576 -0.2260 -0.1347
  487loPI   GL2 7782   4.441  16.528   8.935 -0.1269 -0.3425  0.1031
  487loPI   C1A 7783   4.454  16.891   8.607 -0.0426 -0.0074 -0.0483
  487loPI   C2A 7784   4.494  16.717   8.188  0.2541 -0.0155 -0.1398
  487loPI   C3A 7785   4.413  16.581   7.720  0.1699 -0.2359 -0.1021
  487loPI   C4A 7786   4.508  16.547   7.274  0.0145 -0.1721 -0.2008
  487loPI   C5A 7787   4.693  16.611   6.902 -0.2038 -0.3018 -0.2006
  487loPI   C6A 7788   4.835  16.503   6.575 -0.0797 -0.2240 -0.0339
  487loPI   C1B 7789   4.576  16.291   8.582  0.0800 -0.2573  0.1740
  487loPI   C2B 7790   4.521  16.144   8.175 -0.0902 -0.2335  0.1407
  487loPI   C3B 7791   4.672  16.135   7.820  0.2027 -0.0740  0.0396
  487loPI   C4B 7792   4.790  16.132   7.397 -0.0110  0.3547  0.4104
  488loPI    C1 7793  11.384  13.074   9.950 -0.0560 -0.1699 -0.0118
  488loPI    C2 7794  11.368  13.464  10.034 -0.1229 -0.1984  0.1103
  488loPI    C3 7795  11.126  13.209  10.225  0.0322 -0.3197  0.1464
  488loPI   PO4 7796  11.388  13.028   9.675  0.3037 -0.3238  0.0841
  488loPI   GL1 7797  11.382  13.108   9.301 -0.0142 -0.0683 -0.1916
  488loPI   GL2 7798  11.549  13.264   9.119 -0.1078  0.0205  0.3029
  488loPI   C1A 7799  11.055  13.148   9.023  0.1049 -0.0894 -0.1615
  488loPI   C2A 7800  10.912  13.318   8.556  0.1953  0.0033 -0.4826
  488loPI   C3A 7801  10.737  13.385   8.197  0.1651 -0.1161  0.0357
  488loPI   C4A 7802  10.955  13.372   7.769  0.2815 -0.0607  0.1338
  488loPI   C5A 7803  10.963  13.568   7.388 -0.3377  0.3829 -0.1184
  488loPI   C6A 7804  10.632  13.434   7.134 -0.4301  0.0983 -0.3178
  488loPI   C1B 7805  11.400  13.135   8.689 -0.1356 -0.0325  0.1314
  488loPI   C2B 7806  11.267  13.081   8.239  0.0208 -0.0602 -0.0354
  488loPI   C3B 7807  11.368  13.032   7.796  0.1491 -0.0532  0.0364
  488loPI   C4B 7808  11.332  13.282   7.454 -0.2431  0.1076  0.0936
  489loPI    C1 7809   2.735  10.402  10.024 -0.2674  0.3469 -0.1055
  489loPI    C2 7810   2.488  10.479  10.329  0.0903 -0.0469  0.2979
  489loPI    C3 7811   2.867  10.373  10.401  0.2077 -0.0594 -0.2920
  489loPI   PO4 7812   2.629  10.491   9.663  0.2158 -0.1430  0.1315
  489loPI   GL1 7813   2.517  10.631   9.273  0.0221 -0.2083 -0.1179
  489loPI   GL2 7814   2.769  10.943   9.471  0.0665  0.2502  0.1089
  489loPI   C1A 7815   2.533  10.763   8.976 -0.0874  0.0837  0.0458
  489loPI   C2A 7816   2.363  10.783   8.671 -0.3561 -0.1222  0.2578
  489loPI   C3A 7817   2.239  10.620   8.398  0.4473  0.1285 -0.1701
  489loPI   C4A 7818   2.029  10.584   8.070  0.0277 -0.0189 -0.0413
  489loPI   C5A 7819   2.080  10.451   7.655 -0.1054 -0.0299  0.0697
  489loPI   C6A 7820   1.921  10.336   7.253 -0.0826 -0.0667  0.2245
  489loPI   C1B 7821   2.944  11.048   9.104 -0.2478  0.1455  0.2693
  489loPI   C2B 7822   2.845  10.996   8.670  0.0048 -0.2235 -0.1465
  489loPI   C3B 7823   2.983  11.083   8.283 -0.0594 -0.0978  0.0110
  489loPI   C4B 7824   3.151  11.189   7.920 -0.1555  0.2902  0.2180
  490loPI    C1 7825  12.078   4.235   9.956 -0.3262 -0.2913  0.0380
  490loPI    C2 7826  12.170   3.866   9.834 -0.2477 -0.2207 -0.1186
  490loPI    C3 7827  12.173   3.954  10.224 -0.1112 -0.3436 -0.0909
  490loPI   PO4 7828  11.918   4.392   9.660  0.1343 -0.0179 -0.2929
  490loPI   GL1 7829  11.869   4.757   9.555  0.2363  0.2003  0.0745
  490loPI   GL2 7830  12.167   4.850   9.679 -0.1018 -0.0689 -0.0603
  490loPI   C1A 7831  11.584   4.869   9.265  0.3840  0.2863 -0.2598
  490loPI   C2A 7832  11.551   4.950   8.903 -0.4258  0.3038  0.1580
  490loPI   C3A 7833  11.664   4.957   8.396 -0.0387  0.2138  0.2065
  490loPI   C4A 7834  11.309   4.906   8.055 -0.0780 -0.1633 -0.1480
  490loPI   C5A 7835  11.027   4.778   7.716 -0.2282 -0.3639  0.0965
  490loPI   C6A 7836  10.720   5.066   7.499  0.2078  0.0552  0.1351
  490loPI   C1B 7837  12.384   4.792   9.328 -0.0305  0.3479 -0.0334
  490loPI   C2B 7838  12.262   4.509   8.940 -0.0628 -0.4977  0.1796
  490loPI   C3B 7839  11.882   4.575   8.616  0.1862  0.0534  0.1730
  490loPI   C4B 7840  11.880   4.568   8.148 -0.0342  0.3240 -0.2499
  491loPI    C1 7841  10.734   5.264  10.040 -0.0236 -0.0586  0.1821
  491loPI    C2 7842  10.650   5.279  10.431 -0.2713  0.0669  0.1266
  491loPI    C3 7843  10.426   5.055  10.188 -0.1252 -0.0012  0.0538
  491loPI   PO4 7844  11.024   5.220   9.977  0.0832 -0.0514 -0.2222
  491loPI   GL1 7845  11.064   5.391   9.509  0.0760 -0.3121  0.3799
  491loPI   GL2 7846  11.487   5.321   9.465  0.0239 -0.1486  0.1684
  491loPI   C1A 7847  11.281   5.689   9.289 -0.1860  0.1922 -0.0591
  491loPI   C2A 7848  11.474   5.944   8.951  0.0500  0.0319 -0.1226
  491loPI   C3A 7849  11.491   6.142   8.520  0.0182  0.2473 -0.0114
  491loPI   C4A 7850  11.586   6.208   8.151  0.0527 -0.0092  0.1026
  491loPI   C5A 7851  11.566   5.974   7.866  0.2021  0.0178  0.2006
  491loPI   C6A 7852  11.488   5.543   7.618  0.1338  0.1663  0.1375
  491loPI   C1B 7853  11.676   5.442   9.015  0.0070  0.3968  0.1294
  491loPI   C2B 7854  11.908   5.308   8.571 -0.2037 -0.0814 -0.3970
  491loPI   C3B 7855  12.104   5.487   8.183  0.2064 -0.0540  0.2495
  491loPI   C4B 7856  11.963   5.735   7.726 -0.0079  0.1278 -0.2098
  492loPI    C1 7857  13.229  17.377   9.652  0.1583  0.1741  0.0776
  492loPI    C2 7858  13.521  17.113   9.578  0.1199  0.0728  0.2808
  492loPI    C3 7859  13.153  16.985   9.670  0.1386  0.1941  0.5319
  492loPI   PO4 7860  13.187  17.520   9.464  0.0952 -0.2419  0.1036
  492loPI   GL1 7861  12.942  17.540   9.096  0.0690  0.0620  0.0059
  492loPI   GL2 7862  12.806  17.784   9.306 -0.0997  0.2045  0.0974
  492loPI   C1A 7863  13.009  17.512   8.606  0.1165  0.2283 -0.2026
  492loPI   C2A 7864  13.014  17.224   8.197  0.0431 -0.3404  0.0556
  492loPI   C3A 7865  12.842  17.116   7.778  0.4536  0.0395  0.2245
  492loPI   C4A 7866  12.741  16.599   7.689 -0.1743 -0.0606  0.2722
  492loPI   C5A 7867  12.669  16.296   7.414 -0.2089 -0.0665 -0.1523
  492loPI   C6A 7868  12.479  15.844   7.313 -0.0061 -0.2380  0.0006
  492loPI   C1B 7869  12.749  17.974   8.777  0.5705  0.1757 -0.2210
  492loPI   C2B 7870  12.953  17.999   8.347  0.0131  0.1459 -0.0417
  492loPI   C3B 7871  13.102  17.696   8.080  0.2258  0.0848 -0.1331
  492loPI   C4B 7872  13.162  17.539   7.759 -0.4242 -0.0281  0.2844
  493loPI    C1 7873   8.571   1.979   9.734 -0.0068  0.1678  0.0395
  493loPI    C2 7874   8.496   1.589   9.777 -0.0816  0.1672 -0.0919
  493loPI    C3 7875   8.535   1.822  10.099  0.2009  0.0073 -0.0073
  493loPI   PO4 7876   8.479   2.072   9.547  0.0971  0.2224 -0.2856
  493loPI   GL1 7877   8.710   2.336   9.147 -0.0570 -0.1527  0.0716
  493loPI   GL2 7878   9.056   2.483   9.043  0.3822 -0.3522  0.1296
  493loPI   C1A 7879   8.747   2.424   8.617  0.3471 -0.0119  0.0556
  493loPI   C2A 7880   8.904   2.384   8.200 -0.1429 -0.2290 -0.5316
  493loPI   C3A 7881   9.108   2.399   7.755 -0.1828  0.0607 -0.0645
  493loPI   C4A 7882   9.415   2.269   7.661  0.0550  0.1028 -0.1644
  493loPI   C5A 7883   9.741   2.226   7.377  0.0708 -0.2310  0.2426
  493loPI   C6A 7884  10.035   2.361   7.178 -0.0453 -0.0013  0.4869
  493loPI   C1B 7885   9.219   2.517   8.693 -0.3348  0.2441 -0.0621
  493loPI   C2B 7886   9.363   2.460   8.303  0.0117  0.1910  0.0108
  493loPI   C3B 7887   9.425   2.679   7.958 -0.3197 -0.3025  0.2524
  493loPI   C4B 7888   9.510   2.690   7.455 -0.1426  0.2389 -0.0532
  494loPI    C1 7889  19.005  11.015   9.898 -0.3278  0.3083 -0.0559
  494loPI    C2 7890  18.980  11.286  10.192 -0.0865  0.0452  0.2134
  494loPI    C3 7891  18.786  10.937  10.224 -0.1717  0.0706 -0.0061
  494loPI   PO4 7892  18.887  11.062   9.733  0.1777 -0.0446  0.1429
  494loPI   GL1 7893  18.629  11.074   9.468 -0.0050  0.2336 -0.1177
  494loPI   GL2 7894  18.317  10.961   9.508  0.2276  0.1116  0.2181
  494loPI   C1A 7895  18.637  11.270   9.088 -0.0177  0.0148 -0.0690
  494loPI   C2A 7896  18.798  11.392   8.682  0.0604  0.1375 -0.1816
  494loPI   C3A 7897  18.854  11.322   8.232  0.0387 -0.3980  0.1229
  494loPI   C4A 7898  18.643  11.591   7.817  0.0989  0.2334  0.0254
  494loPI   C5A 7899  18.513  11.791   7.511  0.1491 -0.3256  0.1930
  494loPI   C6A 7900  18.339  11.893   7.236  0.0670  0.3895  0.3416
  494loPI   C1B 7901  18.237  10.876   9.160 -0.0241  0.3017 -0.1620
  494loPI   C2B 7902  18.519  10.881   8.823 -0.1194  0.2408 -0.0287
  494loPI   C3B 7903  18.413  11.022   8.386 -0.0525 -0.1795 -0.1653
  494loPI   C4B 7904  18.159  11.273   8.100  0.0790 -0.0340 -0.1458
  495loPI    C1 7905  18.293   6.366  10.460 -0.1210 -0.1995 -0.2291
  495loPI    C2 7906  17.951   6.552  10.551  0.0798  0.0726 -0.0104
  495loPI    C3 7907  17.999   6.166  10.643 -0.1378  0.0534  0.0290
  495loPI   PO4 7908  18.294   6.420  10.163 -0.0381  0.2087 -0.1399
  495loPI   GL1 7909  18.322   6.532   9.735  0.2427 -0.0594 -0.3413
  495loPI   GL2 7910  18.387   6.242   9.543 -0.3719 -0.1511 -0.4364
  495loPI   C1A 7911  18.316   6.678   9.315 -0.1954  0.0374 -0.3167
  495loPI   C2A 7912  18.300   6.851   8.938  0.1105  0.2492  0.0170
  495loPI   C3A 7913  18.291   6.998   8.438 -0.1315  0.0525 -0.0173
  495loPI   C4A 7914  18.304   7.216   8.057  0.2043  0.3197 -0.1526
  495loPI   C5A 7915  18.637   7.245   7.718  0.3255  0.1035  0.1161
  495loPI   C6A 7916  18.941   7.094   7.450 -0.2788  0.3439  0.3798
  495loPI   C1B 7917  18.540   6.248   9.173  0.3655  0.0263  0.2101
  495loPI   C2B 7918  18.591   6.407   8.778  0.2231  0.2277 -0.1374
  495loPI   C3B 7919  18.549   6.610   8.451 -0.0369 -0.1007  0.0609
  495loPI   C4B 7920  18.762   6.998   8.200 -0.0490  0.5540 -0.1417
  496loPI    C1 7921  15.220  12.530  10.304 -0.0354 -0.1531  0.2003
  496loPI    C2 7922  15.204  12.169  10.476 -0.1299 -0.2325  0.0277
  496loPI    C3 7923  14.881  12.319  10.294 -0.1462  0.0209  0.2593
  496loPI   PO4 7924  15.393  12.507  10.047  0.1883  0.0698  0.1912
  496loPI   GL1 7925  15.598  12.535   9.783 -0.1857 -0.2027  0.4856
  496loPI   GL2 7926  15.930  12.645   9.695 -0.0328 -0.1841 -0.3699
  496loPI   C1A 7927  15.437  12.538   9.321  0.0246  0.1953 -0.2325
  496loPI   C2A 7928  15.429  12.620   8.988  0.0367 -0.4138 -0.1421
  496loPI   C3A 7929  15.300  12.753   8.646  0.1331  0.1719  0.1265
  496loPI   C4A 7930  15.235  12.539   8.344 -0.0648 -0.2871 -0.2273
  496loPI   C5A 7931  15.002  12.366   8.031  0.2428  0.0683 -0.1838
  496loPI   C6A 7932  14.992  12.304   7.618  0.0031 -0.3335 -0.0119
  496loPI   C1B 7933  15.903  12.518   9.234  0.3167  0.0245 -0.2102
  496loPI   C2B 7934  15.934  12.444   8.907  0.1296  0.2549  0.0760
  496loPI   C3B 7935  15.750  12.544   8.454  0.0227 -0.1410 -0.1189
  496loPI   C4B 7936  15.746  12.756   7.941  0.0604 -0.1046 -0.1809
  497loPI    C1 7937  17.715   3.289   9.849 -0.0005 -0.0607 -0.0366
  497loPI    C2 7938  18.076   3.447   9.916 -0.1883  0.2984  0.1633
  497loPI    C3 7939  17.875   3.274  10.215 -0.1563  0.0380  0.0369
  497loPI   PO4 7940  17.762   3.144   9.615  0.0375  0.0560  0.0156
  497loPI   GL1 7941  17.667   2.901   9.204 -0.5314 -0.0572 -0.0653
  497loPI   GL2 7942  17.472   3.293   9.226  0.0745 -0.2249 -0.1557
  497loPI   C1A 7943  17.859   2.943   8.817  0.4350  0.2700  0.0230
  497loPI   C2A 7944  17.816   2.908   8.295 -0.1639  0.1240  0.1018
  497loPI   C3A 7945  18.122   2.931   7.925  0.4365  0.0455 -0.3222
  497loPI   C4A 7946  18.002   2.926   7.465 -0.1293  0.0226 -0.1561
  497loPI   C5A 7947  17.636   2.654   7.385  0.1870  0.0354 -0.1194
  497loPI   C6A 7948  17.284   2.704   7.128  0.2297 -0.2376 -0.0267
  497loPI   C1B 7949  17.403   3.209   8.839 -0.1463 -0.3135 -0.2363
  497loPI   C2B 7950  17.319   3.047   8.434  0.0902  0.0657  0.0225
  497loPI   C3B 7951  17.394   3.096   8.012  0.0368 -0.1532 -0.1241
  497loPI   C4B 7952  17.553   3.034   7.669 -0.0989  0.2244  0.1157
  498loPI    C1 7953   7.355   6.991   9.545  0.0424  0.2080 -0.0959
  498loPI    C2 7954   7.307   7.060   9.936  0.0001 -0.0234 -0.0586
  498loPI    C3 7955   7.062   6.807   9.747 -0.1626  0.3059 -0.2990
  498loPI   PO4 7956   7.678   6.943   9.582 -0.1382 -0.0482 -0.0945
  498loPI   GL1 7957   7.907   6.841   9.342  0.1849 -0.1052 -0.4640
  498loPI   GL2 7958   7.592   6.843   9.085  0.0278 -0.3960  0.0961
  498loPI   C1A 7959   8.108   6.472   9.081  0.2266  0.0254  0.1336
  498loPI   C2A 7960   8.209   6.141   8.728  0.1751 -0.3481 -0.2372
  498loPI   C3A 7961   8.139   6.177   8.193 -0.1420  0.0170 -0.1714
  498loPI   C4A 7962   7.972   6.125   7.745  0.2767 -0.0851 -0.0326
  498loPI   C5A 7963   7.867   5.932   7.381 -0.1330 -0.1657  0.0692
  498loPI   C6A 7964   7.954   5.623   6.954  0.1504  0.0763 -0.2313
  498loPI   C1B 7965   7.430   6.769   8.627 -0.2678  0.0938 -0.2861
  498loPI   C2B 7966   7.535   6.807   8.159  0.2747 -0.1080  0.1357
  498loPI   C3B 7967   7.357   6.797   7.731 -0.1385 -0.0759  0.2125
  498loPI   C4B 7968   7.524   6.968   7.405  0.2078 -0.2076  0.1584
  499loPI    C1 7969   1.393  10.443   9.684 -0.2480  0.1379  0.0252
  499loPI    C2 7970   1.616  10.629   9.408 -0.3441  0.0485 -0.1139
  499loPI    C3 7971   1.665  10.714   9.796  0.0426 -0.0837 -0.1300
  499loPI   PO4 7972   1.424  10.209   9.672 -0.2849 -0.1277 -0.3045
  499loPI   GL1 7973   1.510  10.165   9.204 -0.3748 -0.0065 -0.1928
  499loPI   GL2 7974   1.132  10.009   9.242  0.1317  0.1091 -0.0219
  499loPI   C1A 7975   1.448  10.135   8.818  0.3440 -0.3642  0.2525
  499loPI   C2A 7976   1.214  10.382   8.548  0.1249  0.1621  0.2498
  499loPI   C3A 7977   1.177  10.585   8.079 -0.1025  0.0962 -0.3876
  499loPI   C4A 7978   0.837  10.545   7.842  0.4652  0.0753  0.3065
  499loPI   C5A 7979   0.438  10.732   7.612 -0.0059  0.1713  0.0617
  499loPI   C6A 7980   0.226  10.928   7.291 -0.2584 -0.0406 -0.4165
  499loPI   C1B 7981   1.017   9.969   8.822  0.0154  0.0053 -0.3641
  499loPI   C2B 7982   0.975   9.986   8.358 -0.1382  0.1956  0.1927
  499loPI   C3B 7983   0.929   9.989   7.995 -0.1082  0.2061 -0.2164
  499loPI   C4B 7984   0.912   9.937   7.535 -0.1144 -0.0773  0.2283
  500loPI    C1 7985   1.894   0.400   8.963 -0.1949 -0.0790 -0.0735
  500loPI    C2 7986   1.617   0.483   9.240 -0.0778 -0.0111  0.0240
  500loPI    C3 7987   1.659   0.721   8.921 -0.0572  0.0419  0.0660
  500loPI   PO4 7988   2.005   0.125   8.980  0.2760 -0.1147 -0.0029
  500loPI   GL1 7989   2.280  -0.076   8.658 -0.1482  0.1985 -0.2024
  500loPI   GL2 7990   2.127   0.144   8.498 -0.0713  0.2956  0.0458
  500loPI   C1A 7991   2.310  -0.277   8.262 -0.4384 -0.1387 -0.0220
  500loPI   C2A 7992   2.333  -0.413   7.938 -0.3811 -0.0271 -0.1575
  500loPI   C3A 7993   2.091  -0.415   7.562  0.0211 -0.0430 -0.0205
  500loPI   C4A 7994   1.857  -0.363   7.115 -0.3508 -0.0331  0.0362
  500loPI   C5A 7995   1.478  -0.315   6.980  0.0945  0.0766 -0.1238
  500loPI   C6A 7996   1.032  -0.480   7.056 -0.1085 -0.1826 -0.0556
  500loPI   C1B 7997   2.321   0.213   8.132  0.0645 -0.1768  0.0179
  500loPI   C2B 7998   2.219   0.142   7.635  0.0800 -0.0237 -0.0937
  500loPI   C3B 7999   2.281  -0.040   7.215  0.1829 -0.1017  0.0565
  500loPI   C4B 8000   1.994   0.077   6.900 -0.0181  0.0304  0.2056
  501loPI    C1 8001  17.360  10.393   9.525 -0.1414 -0.0553  0.0983
  501loPI    C2 8002  17.182  10.121   9.759 -0.2897 -0.1271 -0.0955
  501loPI    C3 8003  17.527  10.288   9.873 -0.3202 -0.2192  0.1366
  501loPI   PO4 8004  17.189  10.584   9.477 -0.3322 -0.1491 -0.3938
  501loPI   GL1 8005  17.139  10.714   8.991 -0.2095 -0.1793 -0.0435
  501loPI   GL2 8006  16.788  10.786   8.857 -0.0815 -0.0414  0.0940
  501loPI   C1A 8007  17.105  10.523   8.613  0.2628  0.2836  0.2879
  501loPI   C2A 8008  16.969  10.394   8.159 -0.0422  0.0294 -0.0635
  501loPI   C3A 8009  16.826  10.094   7.874  0.2740 -0.3629 -0.3180
  501loPI   C4A 8010  16.712   9.981   7.451 -0.0848  0.0156 -0.1379
  501loPI   C5A 8011  16.876   9.776   7.031  0.0075 -0.0781  0.2655
  501loPI   C6A 8012  17.223   9.454   6.955  0.1212  0.1755  0.0259
  501loPI   C1B 8013  16.690  10.766   8.445 -0.1252 -0.0564  0.0327
  501loPI   C2B 8014  16.625  10.904   7.943  0.1861 -0.0405 -0.0592
  501loPI   C3B 8015  16.874  11.181   7.657  0.1598 -0.3578  0.0265
  501loPI   C4B 8016  17.109  11.315   7.325  0.0251  0.3200  0.1022
  502loPI    C1 8017   5.608   5.614   9.931  0.0237  0.1360 -0.0900
  502loPI    C2 8018   5.597   5.787  10.292  0.0770 -0.0238 -0.0107
  502loPI    C3 8019   5.365   5.471  10.215  0.0621  0.0130 -0.1187
  502loPI   PO4 8020   5.860   5.594   9.799  0.1354 -0.1148  0.2181
  502loPI   GL1 8021   6.008   5.734   9.404  0.0660  0.0157  0.3268
  502loPI   GL2 8022   6.294   5.908   9.372 -0.0758  0.1047  0.0362
  502loPI   C1A 8023   6.051   5.526   9.008  0.1645  0.2009 -0.3922
  502loPI   C2A 8024   5.973   5.209   8.655  0.1231 -0.3134  0.0258
  502loPI   C3A 8025   5.955   5.052   8.295 -0.3605 -0.0390  0.2159
  502loPI   C4A 8026   6.156   5.155   7.966 -0.2069 -0.0752 -0.1215
  502loPI   C5A 8027   6.200   5.060   7.590  0.1790 -0.3052 -0.0115
  502loPI   C6A 8028   6.430   4.773   7.339 -0.0749 -0.0788 -0.7365
  502loPI   C1B 8029   6.493   5.838   8.940  0.2413 -0.1921  0.1055
  502loPI   C2B 8030   6.425   5.547   8.568 -0.2576  0.2148 -0.0302
  502loPI   C3B 8031   6.435   5.102   8.347 -0.2436 -0.5416 -0.4266
  502loPI   C4B 8032   6.335   4.695   8.103 -0.1123 -0.0591  0.0909
  503loPI    C1 8033   2.212  10.902   9.638 -0.0642  0.1433  0.1350
  503loPI    C2 8034   2.093  10.520   9.655 -0.2381  0.1818 -0.1581
  503loPI    C3 8035   2.122  10.735   9.991 -0.1008 -0.0987  0.0135
  503loPI   PO4 8036   2.100  10.930   9.452  0.1867  0.1943  0.0518
  503loPI   GL1 8037   1.999  10.869   9.069  0.0548 -0.0835 -0.1003
  503loPI   GL2 8038   1.947  11.080   8.828 -0.2642 -0.0843 -0.0442
  503loPI   C1A 8039   1.544  10.655   8.878 -0.2007 -0.0734 -0.1636
  503loPI   C2A 8040   1.430  10.825   8.481 -0.1844 -0.0003 -0.1163
  503loPI   C3A 8041   1.611  10.880   8.067  0.0105 -0.0069  0.1188
  503loPI   C4A 8042   1.641  10.821   7.623 -0.0001 -0.0559 -0.0288
  503loPI   C5A 8043   1.527  10.934   7.209 -0.1347 -0.0971  0.1891
  503loPI   C6A 8044   1.368  11.046   6.768  0.0434 -0.3709 -0.0431
  503loPI   C1B 8045   1.979  11.066   8.366  0.0453  0.3653  0.2586
  503loPI   C2B 8046   2.077  11.030   7.892  0.1451 -0.0865 -0.0939
  503loPI   C3B 8047   2.244  11.007   7.435  0.1243 -0.1291  0.1911
  503loPI   C4B 8048   2.034  10.845   7.194  0.2611  0.2304 -0.5130
  504loPI    C1 8049  15.062  13.723   9.708  0.0695  0.1291  0.2674
  504loPI    C2 8050  15.379  13.881   9.895  0.2870 -0.1034  0.1019
  504loPI    C3 8051  15.362  13.487   9.828  0.0193 -0.0762 -0.0024
  504loPI   PO4 8052  15.012  13.895   9.539  0.1360  0.0524  0.1008
  504loPI   GL1 8053  14.834  14.011   9.160  0.0005  0.0147  0.1658
  504loPI   GL2 8054  14.806  14.344   9.121 -0.0272 -0.0714  0.1578
  504loPI   C1A 8055  14.877  13.944   8.808  0.3012 -0.1201  0.1679
  504loPI   C2A 8056  14.923  14.056   8.357  0.1589 -0.2031  0.0349
  504loPI   C3A 8057  15.209  14.001   8.059  0.2877  0.2858 -0.0721
  504loPI   C4A 8058  15.454  14.258   7.774 -0.1765  0.1248  0.1085
  504loPI   C5A 8059  15.518  14.239   7.406 -0.2739 -0.6433 -0.0386
  504loPI   C6A 8060  15.600  14.453   7.026 -0.2065  0.1735  0.0417
  504loPI   C1B 8061  14.885  14.458   8.644 -0.3403 -0.0005  0.2482
  504loPI   C2B 8062  15.038  14.834   8.516 -0.3583  0.1937  0.1249
  504loPI   C3B 8063  15.255  14.956   8.139  0.1739  0.0297 -0.0806
  504loPI   C4B 8064  15.522  15.120   7.902  0.2768 -0.0975  0.4745
  505loPI    C1 8065  16.437  11.058   9.748  0.1952  0.2948 -0.0946
  505loPI    C2 8066  16.192  11.367   9.816 -0.0641  0.0427  0.1391
  505loPI    C3 8067  16.575  11.433   9.723 -0.2162  0.4417 -0.2363
  505loPI   PO4 8068  16.370  10.923   9.584 -0.0027 -0.1433  0.2428
  505loPI   GL1 8069  16.251  10.903   9.120 -0.1701  0.1143  0.1112
  505loPI   GL2 8070  16.113  10.552   9.092 -0.3535 -0.2967 -0.0826
  505loPI   C1A 8071  16.212  10.971   8.783 -0.0906  0.2096 -0.0128
  505loPI   C2A 8072  16.260  11.014   8.311  0.0832  0.2394 -0.1656
  505loPI   C3A 8073  16.095  10.953   7.971 -0.0348  0.1240  0.2488
  505loPI   C4A 8074  16.214  11.044   7.571 -0.0402  0.1449 -0.3169
  505loPI   C5A 8075  16.271  11.461   7.415 -0.1511  0.1103 -0.1580
  505loPI   C6A 8076  15.927  11.693   7.360 -0.0483 -0.1373  0.2562
  505loPI   C1B 8077  15.783  10.528   8.883  0.3265 -0.4143  0.2759
  505loPI   C2B 8078  15.533  10.205   8.660  0.0763 -0.0027  0.0233
  505loPI   C3B 8079  15.411   9.809   8.581 -0.2888 -0.1764  0.3887
  505loPI   C4B 8080  15.045   9.681   8.224  0.5720  0.2157 -0.1118
  506loPI    C1 8081  12.497  17.434   9.772  0.1608 -0.1180 -0.0488
  506loPI    C2 8082  12.850  17.614   9.832  0.0833  0.0012  0.0575
  506loPI    C3 8083  12.791  17.239   9.961  0.1366  0.0188  0.1334
  506loPI   PO4 8084  12.424  17.506   9.535 -0.1149 -0.3834 -0.0744
  506loPI   GL1 8085  12.353  17.488   9.064 -0.4262 -0.1477  0.1355
  506loPI   GL2 8086  12.469  17.203   8.905 -0.0448 -0.1930  0.4225
  506loPI   C1A 8087  12.316  17.745   8.797 -0.2211 -0.1683 -0.4518
  506loPI   C2A 8088  12.482  17.670   8.355 -0.0734 -0.2364  0.0305
  506loPI   C3A 8089  12.674  17.784   7.894 -0.0120 -0.2029 -0.2702
  506loPI   C4A 8090  12.738  17.691   7.478  0.6075 -0.4180  0.1491
  506loPI   C5A 8091  12.945  17.402   7.257  0.0214 -0.4500 -0.0836
  506loPI   C6A 8092  13.167  17.271   6.775 -0.0668 -0.0287  0.0266
  506loPI   C1B 8093  12.555  17.202   8.466 -0.0619  0.1365 -0.3037
  506loPI   C2B 8094  12.467  17.336   8.012  0.0626 -0.0535  0.1954
  506loPI   C3B 8095  12.166  17.434   7.745  0.0660 -0.0890 -0.0960
  506loPI   C4B 8096  12.217  17.796   7.436  0.0243 -0.0655 -0.0963
  507loPI    C1 8097  17.759  10.835  10.076 -0.1899 -0.1813 -0.2390
  507loPI    C2 8098  17.826  10.584  10.380  0.3714  0.1047 -0.1124
  507loPI    C3 8099  17.593  10.904  10.433 -0.1264 -0.2314 -0.1995
  507loPI   PO4 8100  17.988  10.750   9.833 -0.2943 -0.1105 -0.1426
  507loPI   GL1 8101  17.895  10.591   9.447  0.0235  0.0620  0.2158
  507loPI   GL2 8102  17.861  10.256   9.413 -0.3376 -0.0399  0.1512
  507loPI   C1A 8103  17.695  10.864   9.171 -0.0671 -0.1834  0.2642
  507loPI   C2A 8104  17.538  10.702   8.763 -0.1530  0.0384  0.0188
  507loPI   C3A 8105  17.653  10.438   8.389 -0.0681 -0.4721  0.0337
  507loPI   C4A 8106  17.885  10.348   7.989 -0.1767  0.0389  0.0925
  507loPI   C5A 8107  17.916  10.453   7.545  0.1354 -0.1066  0.0525
  507loPI   C6A 8108  17.978  10.694   7.247 -0.0472  0.1068  0.1114
  507loPI   C1B 8109  17.693  10.096   9.016 -0.4381  0.1932 -0.1443
  507loPI   C2B 8110  17.519   9.693   8.867 -0.1373  0.0616  0.0007
  507loPI   C3B 8111  17.386   9.454   8.526 -0.0740  0.1051 -0.2895
  507loPI   C4B 8112  17.372   9.667   8.186  0.1759 -0.3794  0.4035
  508loPI    C1 8113  14.653  17.573  10.070  0.1154 -0.5253 -0.0461
  508loPI    C2 8114  14.373  17.287  10.063 -0.3745 -0.0603 -0.0927
  508loPI    C3 8115  14.298  17.636  10.244  0.2379  0.0223  0.0229
  508loPI   PO4 8116  14.726  17.576   9.921 -0.2634  0.1126  0.2243
  508loPI   GL1 8117  14.737  17.571   9.474  0.2191 -0.1743 -0.1486
  508loPI   GL2 8118  15.064  17.767   9.360 -0.2898  0.0836 -0.1887
  508loPI   C1A 8119  14.516  17.623   9.099  0.0856 -0.2852  0.0044
  508loPI   C2A 8120  14.225  17.750   8.661 -0.3292  0.0477 -0.1736
  508loPI   C3A 8121  14.441  17.915   8.288 -0.1042  0.1339  0.0840
  508loPI   C4A 8122  14.706  17.929   7.863 -0.2653  0.0867 -0.0520
  508loPI   C5A 8123  14.967  17.854   7.472 -0.0037 -0.1186 -0.1925
  508loPI   C6A 8124  15.405  17.867   7.318  0.2933 -0.0893  0.1033
  508loPI   C1B 8125  15.146  17.838   9.018 -0.0353 -0.0563  0.0211
  508loPI   C2B 8126  15.038  18.154   8.699 -0.0997 -0.0581 -0.0110
  508loPI   C3B 8127  14.920  18.233   8.286  0.4157  0.5188  0.2251
  508loPI   C4B 8128  14.754  18.402   7.800  0.0464  0.0845 -0.2837
  509loPI    C1 8129  14.769   1.554   9.728 -0.3065 -0.0988  0.0353
  509loPI    C2 8130  14.677   1.830  10.002  0.1055  0.0199  0.0609
  509loPI    C3 8131  14.435   1.771   9.689 -0.1514  0.1803  0.2247
  509loPI   PO4 8132  14.963   1.564   9.515 -0.0804 -0.0160 -0.1362
  509loPI   GL1 8133  15.129   1.731   9.179 -0.1587 -0.0540  0.1293
  509loPI   GL2 8134  15.190   2.049   9.332 -0.1389  0.1154 -0.3085
  509loPI   C1A 8135  14.901   1.936   8.873  0.0874  0.0654  0.0021
  509loPI   C2A 8136  15.060   2.079   8.510  0.2514  0.0867 -0.1214
  509loPI   C3A 8137  15.103   2.541   8.512 -0.2840 -0.2589 -0.2131
  509loPI   C4A 8138  15.454   2.756   8.339 -0.1761  0.0006  0.0452
  509loPI   C5A 8139  15.538   2.661   7.831  0.1868 -0.0423 -0.2251
  509loPI   C6A 8140  15.748   2.802   7.434  0.3321  0.0019 -0.0735
  509loPI   C1B 8141  15.361   2.243   8.945 -0.3418 -0.0463 -0.0262
  509loPI   C2B 8142  15.533   2.257   8.532  0.0118 -0.2378 -0.3033
  509loPI   C3B 8143  15.376   2.254   8.148 -0.0050 -0.1685  0.0396
  509loPI   C4B 8144  15.044   2.461   8.030 -0.0370 -0.0276  0.0114
  510loPI    C1 8145  17.016  16.237   9.909  0.0399  0.0553 -0.0883
  510loPI    C2 8146  16.736  16.522   9.913 -0.0109  0.0057 -0.0979
  510loPI    C3 8147  17.019  16.516  10.196 -0.0489  0.0267 -0.0593
  510loPI   PO4 8148  17.173  16.280   9.731  0.1037  0.0017  0.3243
  510loPI   GL1 8149  17.245  16.453   9.344 -0.1206  0.2243  0.3041
  510loPI   GL2 8150  16.981  16.319   9.135  0.0689 -0.0602 -0.0550
  510loPI   C1A 8151  17.516  16.433   9.015  0.0626  0.2498  0.0156
  510loPI   C2A 8152  17.628  16.437   8.580  0.1763 -0.2341 -0.0740
  510loPI   C3A 8153  17.413  16.399   8.186  0.1660  0.1049  0.0037
  510loPI   C4A 8154  17.519  16.732   7.953  0.0005  0.0926 -0.0905
  510loPI   C5A 8155  17.849  17.076   7.846  0.1710  0.1420 -0.0047
  510loPI   C6A 8156  18.231  17.203   7.702 -0.0584  0.0633 -0.1090
  510loPI   C1B 8157  16.961  16.318   8.761 -0.1455 -0.1698  0.2553
  510loPI   C2B 8158  16.936  16.395   8.413  0.2101  0.1064 -0.2150
  510loPI   C3B 8159  16.934  16.388   8.015  0.1824 -0.1345 -0.1095
  510loPI   C4B 8160  17.203  16.228   7.689  0.0184  0.0892 -0.1508
  511loPI    C1 8161  10.770  19.425   9.606  0.1480 -0.2625 -0.0076
  511loPI    C2 8162  10.702  19.127   9.864  0.0313 -0.0609  0.1991
  511loPI    C3 8163  10.740  19.502   9.997 -0.3077  0.0865 -0.1019
  511loPI   PO4 8164  11.019  19.391   9.447 -0.0721  0.0844 -0.0757
  511loPI   GL1 8165  11.304  19.712   9.339  0.4966  0.0780  0.1635
  511loPI   GL2 8166  11.517  19.915   9.183 -0.2839  0.0051 -0.0882
  511loPI   C1A 8167  11.248  19.539   8.887  0.1759 -0.2312 -0.1841
  511loPI   C2A 8168  11.366  19.421   8.463 -0.2113 -0.0309  0.2591
  511loPI   C3A 8169  11.358  19.130   8.095 -0.0374 -0.2548 -0.1227
  511loPI   C4A 8170  11.303  19.009   7.666  0.1867 -0.1143  0.2951
  511loPI   C5A 8171  11.354  18.927   7.223  0.1675  0.4389  0.0546
  511loPI   C6A 8172  11.695  18.703   7.092  0.1492  0.1447  0.4017
  511loPI   C1B 8173  11.276  20.342   9.005 -0.3220  0.2020 -0.0241
  511loPI   C2B 8174  11.250  20.718   8.774  0.3736 -0.1301 -0.1379
  511loPI   C3B 8175  11.148  20.810   8.416  0.1107 -0.0380 -0.1129
  511loPI   C4B 8176  10.991  20.754   8.036  0.0517  0.0236  0.1361
  512loPI    C1 8177  15.299  16.189   9.596 -0.0305  0.1278  0.0490
  512loPI    C2 8178  15.453  16.446   9.861  0.1877 -0.1418  0.1884
  512loPI    C3 8179  15.202  16.159   9.983 -0.0283 -0.0194  0.0386
  512loPI   PO4 8180  15.190  16.269   9.368 -0.0337 -0.2125 -0.1177
  512loPI   GL1 8181  15.044  16.156   8.966  0.0093 -0.0914  0.0371
  512loPI   GL2 8182  14.990  15.929   8.926 -0.1193 -0.0495  0.0792
  512loPI   C1A 8183  15.333  16.256   8.689 -0.2467 -0.1721 -0.1937
  512loPI   C2A 8184  15.231  16.174   8.130 -0.0488 -0.3268 -0.0327
  512loPI   C3A 8185  14.925  16.385   7.882 -0.1497  0.0102  0.1051
  512loPI   C4A 8186  14.749  16.518   7.561  0.0290  0.3796 -0.0775
  512loPI   C5A 8187  14.572  16.435   7.173 -0.2447  0.2922 -0.0811
  512loPI   C6A 8188  14.456  16.197   6.878  0.5391  0.1169 -0.0301
  512loPI   C1B 8189  14.877  15.952   8.504 -0.1454 -0.0247  0.7041
  512loPI   C2B 8190  14.740  16.114   8.233  0.2380  0.0813 -0.2744
  512loPI   C3B 8191  14.438  16.154   7.999 -0.1226  0.0136  0.0029
  512loPI   C4B 8192  14.281  16.203   7.642  0.0520  0.0187  0.0056
  513loPI    C1 8193  17.184   3.944   9.790  0.1282 -0.0008 -0.2581
  513loPI    C2 8194  17.328   3.693   9.513  0.0235 -0.3049 -0.0415
  513loPI    C3 8195  17.223   3.555   9.874  0.0815  0.0735  0.1250
  513loPI   PO4 8196  17.061   4.109   9.633  0.5514  0.0473 -0.1874
  513loPI   GL1 8197  17.151   4.174   9.261  0.0179  0.1615 -0.1900
  513loPI   GL2 8198  16.866   4.038   9.097 -0.3783 -0.2798  0.0774
  513loPI   C1A 8199  17.315   4.183   8.835 -0.1257  0.0628  0.0352
  513loPI   C2A 8200  17.468   4.079   8.357  0.2471 -0.2344  0.1040
  513loPI   C3A 8201  17.485   4.048   7.884  0.0240 -0.0421  0.0849
  513loPI   C4A 8202  17.526   4.203   7.530 -0.1632 -0.1323  0.2653
  513loPI   C5A 8203  17.608   4.248   7.115  0.3272 -0.0064 -0.0235
  513loPI   C6A 8204  17.525   4.005   6.767  0.0830  0.2393 -0.1046
  513loPI   C1B 8205  16.940   3.838   8.709 -0.1824  0.1995 -0.1108
  513loPI   C2B 8206  17.023   3.985   8.264  0.1635  0.2298  0.1735
  513loPI   C3B 8207  16.741   3.892   7.869  0.3289 -0.3188  0.0043
  513loPI   C4B 8208  16.991   3.827   7.440  0.3988 -0.3227  0.1254
  514loPI    C1 8209   8.845   8.283   9.668  0.3538  0.0619  0.1418
  514loPI    C2 8210   8.869   8.358  10.060  0.0285 -0.0371  0.1835
  514loPI    C3 8211   8.963   7.995   9.920  0.1483 -0.0006  0.1683
  514loPI   PO4 8212   8.933   8.384   9.526  0.1661 -0.1903  0.1032
  514loPI   GL1 8213   8.806   8.609   9.156  0.5191  0.0035 -0.2222
  514loPI   GL2 8214   8.762   8.932   9.315  0.1374  0.0691 -0.2899
  514loPI   C1A 8215   8.821   8.673   8.695 -0.2124  0.4818  0.0563
  514loPI   C2A 8216   8.673   8.714   8.362  0.0509 -0.1280  0.1662
  514loPI   C3A 8217   8.902   8.669   7.952 -0.0363  0.1138  0.3094
  514loPI   C4A 8218   8.988   8.857   7.579  0.2127  0.2768 -0.1461
  514loPI   C5A 8219   9.058   9.337   7.343 -0.0830  0.0850  0.3228
  514loPI   C6A 8220   8.880   9.620   7.013 -0.1825 -0.3662  0.1821
  514loPI   C1B 8221   8.519   9.040   9.000  0.0436  0.0853  0.0847
  514loPI   C2B 8222   8.337   8.996   8.669 -0.1552  0.1016  0.0625
  514loPI   C3B 8223   8.154   8.709   8.376  0.0658  0.0190  0.0190
  514loPI   C4B 8224   8.303   8.391   8.082 -0.1449  0.1669 -0.1266
  515loPI    C1 8225   5.638   1.452   9.553  0.1069  0.0291 -0.1386
  515loPI    C2 8226   5.614   1.074   9.684 -0.1714  0.0913 -0.0007
  515loPI    C3 8227   5.921   1.306   9.795 -0.2426  0.0475  0.2957
  515loPI   PO4 8228   5.639   1.407   9.259  0.0820 -0.0660  0.1919
  515loPI   GL1 8229   5.896   1.390   8.909 -0.0054  0.1006  0.5202
  515loPI   GL2 8230   5.935   1.242   8.570 -0.1571  0.1458  0.2783
  515loPI   C1A 8231   6.148   1.651   8.644  0.0277 -0.3179 -0.0258
  515loPI   C2A 8232   6.468   1.976   8.534  0.0317 -0.0962 -0.0961
  515loPI   C3A 8233   6.531   1.947   7.962 -0.2992  0.0598  0.0018
  515loPI   C4A 8234   6.547   2.116   7.494 -0.2264 -0.2158  0.3985
  515loPI   C5A 8235   6.577   2.346   7.119  0.1632  0.0200  0.0005
  515loPI   C6A 8236   6.400   2.577   6.780  0.0587 -0.3032  0.3142
  515loPI   C1B 8237   5.818   1.611   8.262  0.2417 -0.0776  0.3391
  515loPI   C2B 8238   5.970   1.637   7.785  0.0149 -0.0530  0.5501
  515loPI   C3B 8239   5.931   1.540   7.292 -0.1866 -0.0545  0.0267
  515loPI   C4B 8240   5.886   1.760   6.788  0.1276  0.0234 -0.0075
  516loPI    C1 8241  13.961  12.088  10.299 -0.1224 -0.0531  0.0951
  516loPI    C2 8242  14.004  11.718  10.444  0.1351 -0.0864 -0.0610
  516loPI    C3 8243  14.202  12.023  10.611  0.1180 -0.0601 -0.0889
  516loPI   PO4 8244  13.944  12.049   9.988  0.2631  0.1667  0.0362
  516loPI   GL1 8245  13.549  11.902   9.738  0.3101 -0.0728  0.1831
  516loPI   GL2 8246  13.671  12.189   9.583 -0.2373  0.1481 -0.1359
  516loPI   C1A 8247  13.595  11.719   9.264 -0.2236  0.2177 -0.0473
  516loPI   C2A 8248  13.464  11.383   8.904 -0.0672  0.1418  0.1468
  516loPI   C3A 8249  13.691  11.066   8.770  0.1376  0.2221 -0.3510
  516loPI   C4A 8250  13.507  10.909   8.400 -0.1607  0.3857 -0.0851
  516loPI   C5A 8251  13.112  10.677   8.247  0.1203  0.0476 -0.1350
  516loPI   C6A 8252  12.888  10.383   8.162 -0.2288  0.3119  0.0983
  516loPI   C1B 8253  13.397  12.192   9.186  0.0437  0.2504 -0.0235
  516loPI   C2B 8254  13.465  12.207   8.776  0.0572 -0.0531  0.1534
  516loPI   C3B 8255  13.451  12.001   8.372 -0.2233  0.4334  0.1892
  516loPI   C4B 8256  13.548  11.724   7.969  0.0151  0.1466 -0.0377
  517loPI    C1 8257   3.214   5.739  10.288 -0.1793 -0.0035  0.1432
  517loPI    C2 8258   2.926   5.916  10.502 -0.0945  0.0093  0.2480
  517loPI    C3 8259   3.072   5.561  10.617 -0.1825 -0.0749  0.1036
  517loPI   PO4 8260   3.224   5.698   9.949  0.2196 -0.0483  0.2172
  517loPI   GL1 8261   3.422   5.757   9.562  0.3467  0.3528  0.0126
  517loPI   GL2 8262   3.287   5.546   9.367  0.0193  0.0373 -0.0688
  517loPI   C1A 8263   3.464   5.774   8.990 -0.0803  0.0211  0.2822
  517loPI   C2A 8264   3.797   5.820   8.673  0.0330 -0.1557 -0.2238
  517loPI   C3A 8265   3.839   5.698   8.335 -0.0156 -0.2272 -0.2611
  517loPI   C4A 8266   3.773   5.760   7.956 -0.0970  0.1295 -0.0748
  517loPI   C5A 8267   3.858   5.669   7.469  0.1922  0.2992  0.0985
  517loPI   C6A 8268   3.921   5.249   7.371  0.0828  0.0413 -0.1985
  517loPI   C1B 8269   3.014   5.520   9.042 -0.6366 -0.1196 -0.4268
  517loPI   C2B 8270   2.875   5.716   8.623 -0.2672 -0.2324 -0.0903
  517loPI   C3B 8271   2.790   5.691   8.259 -0.1034  0.1185 -0.1143
  517loPI   C4B 8272   2.619   5.928   7.948 -0.3043  0.1452 -0.2211
  518loPI    C1 8273  19.155  19.486   9.473 -0.3130  0.0429 -0.2938
  518loPI    C2 8274  18.963  19.835   9.510  0.0386  0.2200 -0.0766
  518loPI    C3 8275  19.051  19.619   9.836 -0.3209 -0.1587 -0.2206
  518loPI   PO4 8276  19.278  19.556   9.192 -0.2560  0.1029 -0.1722
  518loPI   GL1 8277  19.042  19.425   8.774 -0.0530  0.0316  0.1062
  518loPI   GL2 8278  19.031  19.713   8.723 -0.0490 -0.0260 -0.0900
  518loPI   C1A 8279  19.161  19.027   8.643  0.0708  0.2298 -0.0746
  518loPI   C2A 8280  19.429  18.875   8.342 -0.0144 -0.2496  0.2793
  518loPI   C3A 8281  19.494  19.000   7.848  0.1299  0.2247  0.1541
  518loPI   C4A 8282  19.368  18.840   7.430 -0.0407 -0.4065 -0.1043
  518loPI   C5A 8283  19.246  18.785   7.025 -0.0199  0.0237  0.1382
  518loPI   C6A 8284  19.278  18.650   6.471 -0.0347 -0.3280  0.2434
  518loPI   C1B 8285  19.060  19.566   8.245 -0.3213 -0.1760 -0.3070
  518loPI   C2B 8286  19.074  19.202   7.913 -0.0085  0.0793  0.0296
  518loPI   C3B 8287  18.985  19.072   7.583  0.0879 -0.3751  0.3368
  518loPI   C4B 8288  18.788  18.902   7.186  0.3091  0.3806 -0.0496
  519loPI    C1 8289   1.243  13.552   9.295  0.1750  0.0458 -0.0716
  519loPI    C2 8290   1.204  13.893   9.500  0.1579  0.0387 -0.0630
  519loPI    C3 8291   1.379  13.577   9.671  0.2657  0.0747 -0.1060
  519loPI   PO4 8292   1.240  13.770   9.022  0.2018  0.1004 -0.0160
  519loPI   GL1 8293   1.499  13.699   8.667 -0.0003 -0.2186 -0.1540
  519loPI   GL2 8294   1.496  13.351   8.822 -0.0865  0.2244  0.3308
  519loPI   C1A 8295   1.630  13.528   8.257  0.2875  0.3293  0.2577
  519loPI   C2A 8296   1.696  13.357   7.858  0.2703 -0.0583  0.1016
  519loPI   C3A 8297   1.681  13.171   7.545  0.1065  0.0423 -0.0581
  519loPI   C4A 8298   1.729  13.190   7.061  0.3634  0.3081  0.0569
  519loPI   C5A 8299   1.579  13.248   6.782  0.1383  0.0090 -0.2285
  519loPI   C6A 8300   1.864  13.392   6.549 -0.5434 -0.2584 -0.1649
  519loPI   C1B 8301   1.153  13.389   8.465 -0.0229 -0.2456  0.1692
  519loPI   C2B 8302   1.197  13.531   7.985  0.5148  0.3236 -0.4758
  519loPI   C3B 8303   0.897  13.856   7.848 -0.0305 -0.0801 -0.0563
  519loPI   C4B 8304   0.850  14.211   7.447 -0.0198 -0.1686  0.2989
  520loPI    C1 8305  10.402  15.302   9.913 -0.0994 -0.2538  0.1747
  520loPI    C2 8306  10.194  15.548  10.150  0.1181  0.0272  0.0796
  520loPI    C3 8307  10.118  15.155  10.153 -0.4653  0.1300 -0.0115
  520loPI   PO4 8308  10.374  15.454   9.646  0.0661  0.4982  0.1572
  520loPI   GL1 8309  10.566  15.393   9.233 -0.1367 -0.2131 -0.1886
  520loPI   GL2 8310  10.362  15.117   9.043 -0.0651 -0.1597  0.2289
  520loPI   C1A 8311  10.755  15.313   8.875  0.0257  0.1779 -0.0599
  520loPI   C2A 8312  10.764  15.204   8.438 -0.3561  0.1146 -0.0605
  520loPI   C3A 8313  10.937  15.133   8.067 -0.1456 -0.4076  0.0293
  520loPI   C4A 8314  10.938  15.089   7.599 -0.2979  0.1143 -0.1041
  520loPI   C5A 8315  10.658  15.074   7.227 -0.0109 -0.1853 -0.2462
  520loPI   C6A 8316  10.375  15.348   6.933 -0.1860 -0.0257  0.2384
  520loPI   C1B 8317  10.336  15.015   8.628  0.0937 -0.4113  0.1040
  520loPI   C2B 8318  10.499  14.948   8.101  0.1185 -0.0867 -0.3131
  520loPI   C3B 8319  10.366  14.865   7.708 -0.2440  0.0042 -0.0244
  520loPI   C4B 8320  10.184  14.968   7.301 -0.0450  0.1163 -0.0436
  521loPI    C1 8321   0.895   6.691   9.965  0.1806 -0.3616  0.0420
  521loPI    C2 8322   0.924   6.931  10.284 -0.1101  0.2996 -0.4063
  521loPI    C3 8323   0.686   6.610  10.296  0.2247  0.0580  0.1782
  521loPI   PO4 8324   0.931   6.920   9.800  0.4279  0.0110  0.1047
  521loPI   GL1 8325   1.206   6.873   9.509  0.3212  0.0573  0.3170
  521loPI   GL2 8326   0.914   6.701   9.331  0.2381  0.0656 -0.0388
  521loPI   C1A 8327   1.334   6.818   9.119 -0.1111 -0.0149  0.3488
  521loPI   C2A 8328   1.394   6.771   8.732  0.2152 -0.0564 -0.1909
  521loPI   C3A 8329   1.267   6.596   8.358  0.2430  0.2897 -0.0338
  521loPI   C4A 8330   1.233   6.479   7.873  0.0806  0.0344  0.0479
  521loPI   C5A 8331   0.939   6.648   7.659 -0.1896  0.0140  0.1530
  521loPI   C6A 8332   0.544   6.872   7.620 -0.3630  0.2639 -0.0447
  521loPI   C1B 8333   1.179   6.341   8.997  0.0084  0.1067  0.1475
  521loPI   C2B 8334   1.368   6.135   8.626  0.2003 -0.0613  0.4198
  521loPI   C3B 8335   1.376   5.975   8.245  0.2250 -0.2293 -0.0962
  521loPI   C4B 8336   1.127   5.919   7.885  0.3186 -0.0747  0.0745
  522loPI    C1 8337   3.394  14.416   9.288 -0.1875 -0.0460 -0.2184
  522loPI    C2 8338   3.597  14.483   8.949  0.0525  0.0212 -0.0641
  522loPI    C3 8339   3.309  14.737   9.064 -0.0532 -0.0204 -0.2336
  522loPI   PO4 8340   3.525  14.078   9.221  0.1306 -0.0536 -0.0163
  522loPI   GL1 8341   3.652  13.903   8.786 -0.0818  0.1644  0.0177
  522loPI   GL2 8342   3.898  13.762   8.655 -0.2107  0.1322  0.1716
  522loPI   C1A 8343   3.604  14.067   8.336  0.2338 -0.0852  0.0002
  522loPI   C2A 8344   3.631  14.073   7.921 -0.0266  0.0078  0.1516
  522loPI   C3A 8345   3.880  13.896   7.594 -0.2130  0.1194 -0.1547
  522loPI   C4A 8346   3.859  13.580   7.239  0.0942  0.3816  0.0722
  522loPI   C5A 8347   4.149  13.623   6.867  0.1370 -0.1517  0.1421
  522loPI   C6A 8348   4.058  13.843   6.541  0.1871 -0.3235 -0.1284
  522loPI   C1B 8349   4.065  14.033   8.290  0.4197  0.2450  0.2360
  522loPI   C2B 8350   4.189  14.162   7.879 -0.4896  0.3831 -0.0785
  522loPI   C3B 8351   4.319  14.299   7.519 -0.2776  0.4920  0.1829
  522loPI   C4B 8352   4.186  14.665   7.329  0.2447  0.2696  0.2467
  523loPI    C1 8353  15.322   3.380   9.989 -0.3540 -0.2611 -0.2009
  523loPI    C2 8354  15.403   3.182  10.327  0.0652 -0.1077 -0.2065
  523loPI    C3 8355  15.239   3.547  10.343 -0.0722 -0.1702 -0.1757
  523loPI   PO4 8356  15.626   3.273   9.839 -0.1712  0.1872 -0.0433
  523loPI   GL1 8357  15.686   3.452   9.412 -0.2930 -0.1421  0.0033
  523loPI   GL2 8358  15.297   3.626   9.267 -0.0633  0.3603 -0.1796
  523loPI   C1A 8359  15.956   3.458   9.077 -0.0075  0.3947  0.2103
  523loPI   C2A 8360  16.021   3.379   8.659  0.1504 -0.0566  0.1281
  523loPI   C3A 8361  15.908   3.444   8.190  0.2637  0.1118 -0.0935
  523loPI   C4A 8362  15.845   3.691   7.868 -0.0170  0.0966 -0.1072
  523loPI   C5A 8363  16.046   4.117   7.585  0.4085  0.1825  0.0265
  523loPI   C6A 8364  15.901   4.557   7.544 -0.2200  0.1174  0.2716
  523loPI   C1B 8365  15.099   3.589   8.816 -0.2993 -0.2349 -0.0419
  523loPI   C2B 8366  15.008   3.518   8.314 -0.0903  0.0428  0.1514
  523loPI   C3B 8367  15.039   3.506   7.843 -0.2119  0.2181 -0.0133
  523loPI   C4B 8368  15.178   3.454   7.401  0.2563 -0.3151 -0.1520
  524loPI    C1 8369   4.968  17.961   9.053 -0.1599  0.1086  0.0346
  524loPI    C2 8370   5.268  17.773   9.239 -0.2586 -0.0932 -0.0075
  524loPI    C3 8371   5.054  18.051   9.433 -0.0760  0.0178  0.0374
  524loPI   PO4 8372   5.030  18.045   8.836  0.0787 -0.2692 -0.2374
  524loPI   GL1 8373   5.150  17.935   8.426 -0.1008 -0.1110  0.0804
  524loPI   GL2 8374   5.024  18.295   8.395 -0.0708  0.2899  0.1151
  524loPI   C1A 8375   5.410  17.789   8.157 -0.1825  0.1519 -0.1509
  524loPI   C2A 8376   5.489  17.511   7.815 -0.0271  0.1274  0.1670
  524loPI   C3A 8377   5.548  17.340   7.457  0.1459 -0.3323 -0.1248
  524loPI   C4A 8378   5.673  17.268   7.060 -0.1015 -0.4942 -0.0860
  524loPI   C5A 8379   5.714  17.055   6.640 -0.4721 -0.1631 -0.1769
  524loPI   C6A 8380   5.517  17.052   6.206  0.0849  0.0170  0.3233
  524loPI   C1B 8381   5.178  18.424   8.072 -0.2204 -0.1155  0.1463
  524loPI   C2B 8382   5.338  18.518   7.568  0.1680  0.3026  0.1514
  524loPI   C3B 8383   5.271  18.780   7.206  0.1621  0.0435  0.1814
  524loPI   C4B 8384   5.273  18.986   6.722  0.0375 -0.0590 -0.1296
  525loPI    C1 8385  17.129   7.817   9.949  0.1612 -0.0095  0.1130
  525loPI    C2 8386  16.920   7.609  10.219 -0.1878  0.1107 -0.0573
  525loPI    C3 8387  16.924   8.008  10.234  0.0134  0.1102 -0.0708
  525loPI   PO4 8388  17.007   7.710   9.674 -0.2843  0.1357  0.0419
  525loPI   GL1 8389  17.158   7.716   9.180  0.2200  0.0264  0.3219
  525loPI   GL2 8390  17.004   8.002   9.017  0.1014  0.2890 -0.1393
  525loPI   C1A 8391  17.196   7.693   8.672 -0.1226  0.1635  0.0756
  525loPI   C2A 8392  17.250   7.754   8.307 -0.0242  0.3523  0.0428
  525loPI   C3A 8393  17.148   7.712   7.781 -0.0615 -0.0774 -0.2703
  525loPI   C4A 8394  17.237   7.887   7.385  0.2080  0.1103  0.0559
  525loPI   C5A 8395  17.296   7.875   7.013  0.2097  0.1624  0.0286
  525loPI   C6A 8396  17.098   8.103   6.698  0.0853 -0.0524  0.0945
  525loPI   C1B 8397  17.111   8.150   8.601  0.0214 -0.0772 -0.0943
  525loPI   C2B 8398  17.265   8.283   8.238  0.1457  0.1642 -0.0760
  525loPI   C3B 8399  17.658   8.121   7.989  0.0151 -0.2234  0.0171
  525loPI   C4B 8400  17.993   8.394   7.784  0.1403 -0.3604  0.2466
  526loPI    C1 8401  13.618  16.064   9.555 -0.0604 -0.1429  0.0150
  526loPI    C2 8402  13.929  16.278   9.688  0.0264 -0.3221  0.1030
  526loPI    C3 8403  13.668  16.123   9.947 -0.2399 -0.0212  0.0207
  526loPI   PO4 8404  13.722  15.989   9.346 -0.2035  0.0466 -0.0588
  526loPI   GL1 8405  13.990  16.192   9.079  0.1433  0.1094 -0.2116
  526loPI   GL2 8406  14.389  16.220   8.996  0.2084 -0.1125  0.2707
  526loPI   C1A 8407  14.057  16.035   8.646 -0.0208 -0.1212 -0.0947
  526loPI   C2A 8408  13.934  16.018   8.167 -0.1795 -0.0452 -0.1646
  526loPI   C3A 8409  13.944  15.849   7.737 -0.2740  0.0628 -0.3054
  526loPI   C4A 8410  13.913  15.735   7.328 -0.1557  0.2159  0.1840
  526loPI   C5A 8411  13.723  15.478   7.102 -0.2560  0.1501  0.0071
  526loPI   C6A 8412  13.457  15.259   7.287 -0.0605  0.0312  0.0268
  526loPI   C1B 8413  14.508  16.332   8.625  0.0840  0.0167  0.0402
  526loPI   C2B 8414  14.875  16.566   8.433 -0.3224 -0.1669  0.1553
  526loPI   C3B 8415  14.948  16.807   8.091 -0.0590  0.1414 -0.0006
  526loPI   C4B 8416  15.049  16.888   7.683 -0.2715  0.0810 -0.0198
  527loPI    C1 8417  18.372  19.198   9.426 -0.1296  0.1017  0.0368
  527loPI    C2 8418  18.079  19.420   9.584 -0.0785  0.0727  0.1738
  527loPI    C3 8419  18.170  19.065   9.744 -0.0069  0.0557  0.0961
  527loPI   PO4 8420  18.334  19.164   9.108 -0.2853 -0.1188  0.3269
  527loPI   GL1 8421  18.201  19.292   8.785 -0.0441  0.1226 -0.0042
  527loPI   GL2 8422  18.523  19.458   8.751  0.0002  0.1336 -0.1152
  527loPI   C1A 8423  18.064  19.284   8.344  0.1845 -0.1931  0.1912
  527loPI   C2A 8424  17.971  19.282   8.008  0.4381 -0.3460 -0.0903
  527loPI   C3A 8425  18.102  19.414   7.555 -0.4410 -0.3084 -0.2519
  527loPI   C4A 8426  18.281  19.389   7.214  0.0602 -0.1927 -0.0150
  527loPI   C5A 8427  18.217  19.364   6.800 -0.0271  0.0786 -0.2370
  527loPI   C6A 8428  18.503  19.649   6.460  0.4499  0.4814 -0.1020
  527loPI   C1B 8429  18.604  19.360   8.339  0.0339 -0.2548 -0.1180
  527loPI   C2B 8430  18.429  19.120   7.986 -0.1758  0.3119 -0.2119
  527loPI   C3B 8431  18.453  18.982   7.544  0.2787  0.3011 -0.1514
  527loPI   C4B 8432  18.279  18.654   7.260 -0.0022 -0.0176  0.0465
  528loPI    C1 8433  10.873  11.212  10.199 -0.2990  0.1303  0.2290
  528loPI    C2 8434  11.203  11.368  10.364 -0.1735  0.1466 -0.0311
  528loPI    C3 8435  10.842  11.505  10.470 -0.0948  0.1769  0.2038
  528loPI   PO4 8436  11.023  10.951  10.036 -0.0117 -0.0505  0.2142
  528loPI   GL1 8437  11.116  10.601   9.671 -0.0020 -0.1639  0.1152
  528loPI   GL2 8438  11.190  10.284   9.690  0.1819 -0.2448  0.1517
  528loPI   C1A 8439  10.866  10.577   9.281 -0.1427 -0.1829 -0.0611
  528loPI   C2A 8440  10.922  10.618   8.828  0.0493 -0.0325  0.1275
  528loPI   C3A 8441  11.106  10.726   8.416  0.0463 -0.1143  0.1973
  528loPI   C4A 8442  11.408  10.662   8.045  0.2681  0.1027 -0.0375
  528loPI   C5A 8443  11.195  10.544   7.644 -0.1520  0.0228  0.0610
  528loPI   C6A 8444  11.321  10.606   7.076  0.1613  0.1844 -0.1125
  528loPI   C1B 8445  11.408  10.371   9.344 -0.1136  0.2625  0.0906
  528loPI   C2B 8446  11.385  10.310   8.823  0.3061 -0.2806  0.0079
  528loPI   C3B 8447  11.394  10.293   8.424  0.0192  0.2093  0.2853
  528loPI   C4B 8448  11.381  10.166   7.936  0.2042  0.0333  0.2390
  529loPI    C1 8449  12.070   9.376  10.309  0.0510  0.1972  0.1691
  529loPI    C2 8450  11.834   9.056  10.268 -0.0713  0.3110 -0.0271
  529loPI    C3 8451  11.856   9.244  10.620 -0.0177  0.1026  0.0823
  529loPI   PO4 8452  12.291   9.259  10.084 -0.2732 -0.1092 -0.1123
  529loPI   GL1 8453  12.650   9.511   9.740  0.3023  0.3708  0.2912
  529loPI   GL2 8454  12.311   9.483   9.656  0.1147 -0.0938  0.2110
  529loPI   C1A 8455  12.856   9.662   9.386  0.1024  0.0128  0.0431
  529loPI   C2A 8456  13.126   9.554   8.979  0.1917  0.2046 -0.0006
  529loPI   C3A 8457  12.986   9.414   8.538 -0.1660  0.1064 -0.1697
  529loPI   C4A 8458  13.044   9.505   8.070 -0.0292  0.0672  0.0317
  529loPI   C5A 8459  13.126   9.396   7.720  0.1063 -0.0691  0.1296
  529loPI   C6A 8460  13.275   9.539   7.339  0.3745  0.3232 -0.3659
  529loPI   C1B 8461  12.485   9.388   9.183 -0.1732 -0.0241 -0.1268
  529loPI   C2B 8462  12.529   9.341   8.752  0.0753  0.1757  0.2333
  529loPI   C3B 8463  12.608   9.645   8.365  0.0282 -0.1356 -0.3089
  529loPI   C4B 8464  12.917   9.933   8.411  0.0936  0.1739 -0.2970
  530loPI    C1 8465   4.355   6.405  10.025 -0.3204  0.0677 -0.0722
  530loPI    C2 8466   4.179   6.074  10.164 -0.1156  0.0050  0.0411
  530loPI    C3 8467   4.407   6.296  10.406  0.0766  0.0077 -0.1389
  530loPI   PO4 8468   4.525   6.300   9.844 -0.0321 -0.1591 -0.1874
  530loPI   GL1 8469   4.396   6.007   9.545  0.0843  0.3438 -0.1556
  530loPI   GL2 8470   4.186   6.324   9.479 -0.2180 -0.0721  0.6955
  530loPI   C1A 8471   4.469   5.653   9.529  0.0193 -0.3483  0.0185
  530loPI   C2A 8472   4.295   5.233   9.340  0.2803  0.1901 -0.1681
  530loPI   C3A 8473   4.457   5.115   8.880  0.1724 -0.1603  0.1336
  530loPI   C4A 8474   4.621   5.040   8.518 -0.0870  0.0192 -0.0962
  530loPI   C5A 8475   4.911   5.022   8.169  0.1749  0.2924  0.1430
  530loPI   C6A 8476   5.173   5.237   7.867 -0.0527  0.2228  0.1400
  530loPI   C1B 8477   4.300   6.492   9.030  0.0562 -0.0429 -0.2970
  530loPI   C2B 8478   4.117   6.231   8.636 -0.1263  0.2227  0.2844
  530loPI   C3B 8479   4.251   5.923   8.191 -0.0768 -0.3296  0.0914
  530loPI   C4B 8480   4.130   6.056   7.764  0.0883  0.1650  0.2221
  531loPI    C1 8481  10.903   7.649   9.915 -0.0649  0.1958  0.4422
  531loPI    C2 8482  11.098   7.944   9.728 -0.1337 -0.0353 -0.0092
  531loPI    C3 8483  11.179   7.862  10.111  0.3066  0.1846 -0.0486
  531loPI   PO4 8484  10.636   7.748   9.772  0.1024 -0.0462 -0.1355
  531loPI   GL1 8485  10.491   7.950   9.427  0.0757  0.0098  0.1371
  531loPI   GL2 8486  10.197   8.170   9.438 -0.1241 -0.0291  0.1433
  531loPI   C1A 8487  10.579   7.715   9.049 -0.1096  0.0712 -0.0430
  531loPI   C2A 8488  10.430   7.703   8.622 -0.3601  0.0255  0.2011
  531loPI   C3A 8489  10.487   7.594   8.167 -0.2137 -0.1211  0.0413
  531loPI   C4A 8490  10.365   7.321   7.787 -0.1317  0.3076 -0.0977
  531loPI   C5A 8491  10.078   7.106   7.470 -0.0235  0.0034  0.0153
  531loPI   C6A 8492   9.606   6.987   7.217  0.1403  0.3477  0.0764
  531loPI   C1B 8493  10.163   8.104   8.998  0.2092  0.1648  0.2192
  531loPI   C2B 8494  10.204   8.233   8.524 -0.0172  0.0667 -0.0463
  531loPI   C3B 8495  10.328   8.236   8.071  0.1264 -0.1088  0.2029
  531loPI   C4B 8496  10.466   8.281   7.613  0.0570  0.0791 -0.1197
  532loPI    C1 8497  16.649   2.565   9.929 -0.1356  0.2683  0.0030
  532loPI    C2 8498  16.970   2.704  10.124  0.0006  0.0480 -0.0602
  532loPI    C3 8499  16.693   2.493  10.320  0.1167 -0.1384 -0.0942
  532loPI   PO4 8500  16.737   2.852   9.689  0.1299 -0.3188 -0.1691
  532loPI   GL1 8501  16.898   3.010   9.240  0.2548 -0.0414  0.0493
  532loPI   GL2 8502  16.583   3.206   9.221 -0.0016  0.1467  0.0617
  532loPI   C1A 8503  17.086   2.896   8.898 -0.0016  0.2589  0.1172
  532loPI   C2A 8504  16.861   2.594   8.631  0.1857 -0.0869  0.1622
  532loPI   C3A 8505  16.443   2.691   8.460  0.0295 -0.0594 -0.1397
  532loPI   C4A 8506  16.455   2.778   8.138  0.1843  0.2369 -0.1415
  532loPI   C5A 8507  16.599   2.965   7.732 -0.1558 -0.0438  0.1079
  532loPI   C6A 8508  16.778   2.812   7.353 -0.1641 -0.1661  0.0726
  532loPI   C1B 8509  16.866   3.278   8.755  0.0942 -0.0072  0.1544
  532loPI   C2B 8510  16.820   3.008   8.406 -0.2679 -0.0608  0.2580
  532loPI   C3B 8511  16.948   2.680   8.084 -0.0610 -0.1261 -0.0615
  532loPI   C4B 8512  17.207   2.633   7.672 -0.0255  0.2269 -0.1518
  533loPI    C1 8513  15.538   8.121  10.302 -0.0632 -0.0763  0.0559
  533loPI    C2 8514  15.584   7.775  10.498  0.2157 -0.0604  0.0225
  533loPI    C3 8515  15.636   8.122  10.690  0.2019 -0.0407 -0.0091
  533loPI   PO4 8516  15.344   8.114  10.225  0.1073  0.6671  0.1042
  533loPI   GL1 8517  15.035   8.289   9.994 -0.3336 -0.0273  0.3706
  533loPI   GL2 8518  15.262   8.393   9.832 -0.0248 -0.1118  0.3476
  533loPI   C1A 8519  14.928   8.160   9.547  0.2537 -0.1318  0.3715
  533loPI   C2A 8520  14.932   8.315   9.133  0.0590 -0.2539  0.2648
  533loPI   C3A 8521  14.945   8.343   8.751  0.1663 -0.0889  0.0164
  533loPI   C4A 8522  15.038   8.367   8.380  0.0969 -0.2686  0.2456
  533loPI   C5A 8523  14.882   8.308   7.936 -0.2937 -0.1209  0.2223
  533loPI   C6A 8524  14.976   8.337   7.454 -0.0240 -0.0519  0.2998
  533loPI   C1B 8525  15.234   8.585   9.370  0.0471 -0.0782 -0.2612
  533loPI   C2B 8526  15.232   8.790   8.908 -0.4216 -0.0289 -0.0148
  533loPI   C3B 8527  15.216   8.853   8.465 -0.1236 -0.0999  0.1584
  533loPI   C4B 8528  15.179   8.720   7.935  0.0539  0.3392  0.5743
  534loPI    C1 8529  14.786  14.966   9.943  0.0619  0.3286 -0.2533
  534loPI    C2 8530  14.515  15.238  10.057  0.0791  0.1129  0.3414
  534loPI    C3 8531  14.759  15.074  10.328  0.2415 -0.3123 -0.0488
  534loPI   PO4 8532  14.699  14.950   9.722  0.1419 -0.0627  0.0117
  534loPI   GL1 8533  14.765  14.833   9.340  0.0073 -0.2167 -0.1861
  534loPI   GL2 8534  15.004  14.830   9.128 -0.4868 -0.2302  0.0970
  534loPI   C1A 8535  14.609  14.728   8.959 -0.2149 -0.2056 -0.4227
  534loPI   C2A 8536  14.562  15.035   8.635 -0.0722  0.0792  0.3615
  534loPI   C3A 8537  14.640  15.163   8.222 -0.3886  0.0723  0.2086
  534loPI   C4A 8538  14.722  15.208   7.808 -0.2149 -0.1455 -0.3412
  534loPI   C5A 8539  15.074  15.263   7.625  0.1460  0.0791 -0.1951
  534loPI   C6A 8540  15.171  15.305   7.199 -0.1103  0.2526 -0.0911
  534loPI   C1B 8541  15.381  14.766   8.962 -0.2365  0.1292  0.0032
  534loPI   C2B 8542  15.533  14.743   8.562  0.2938 -0.2545 -0.3992
  534loPI   C3B 8543  15.642  14.707   8.203  0.1387 -0.1119  0.0266
  534loPI   C4B 8544  15.984  14.525   8.021  0.0560  0.1788 -0.4116
  535loPI    C1 8545  15.648  15.893   9.557 -0.2693  0.0354 -0.0826
  535loPI    C2 8546  15.848  16.239   9.555  0.1449 -0.1956  0.0436
  535loPI    C3 8547  15.748  16.068   9.903  0.0205 -0.2475 -0.0172
  535loPI   PO4 8548  15.795  15.763   9.441 -0.5364 -0.1907 -0.0710
  535loPI   GL1 8549  15.949  15.737   9.021  0.2548  0.0309 -0.2642
  535loPI   GL2 8550  15.595  15.660   8.917 -0.1371 -0.2606  0.2440
  535loPI   C1A 8551  15.987  15.406   8.664 -0.0921 -0.1727 -0.0795
  535loPI   C2A 8552  16.043  15.068   8.354 -0.1706  0.1548  0.2191
  535loPI   C3A 8553  16.091  14.980   7.981  0.1561  0.1364  0.2673
  535loPI   C4A 8554  15.904  15.086   7.625 -0.0115  0.3240  0.1417
  535loPI   C5A 8555  15.902  15.116   7.190 -0.0116 -0.0332  0.0750
  535loPI   C6A 8556  15.676  15.091   6.814  0.0734 -0.0199 -0.1675
  535loPI   C1B 8557  15.517  15.834   8.489 -0.0666 -0.1770 -0.1150
  535loPI   C2B 8558  15.452  15.724   8.057  0.0414  0.1531 -0.2282
  535loPI   C3B 8559  15.302  15.699   7.607  0.1543 -0.2040 -0.3361
  535loPI   C4B 8560  15.550  15.637   7.311  0.1771 -0.1166 -0.3413
  536loPI    C1 8561   1.224   6.093   9.988 -0.1402  0.0711  0.0789
  536loPI    C2 8562   1.253   5.816   9.701 -0.3953 -0.1240  0.2378
  536loPI    C3 8563   1.513   5.817  10.004 -0.0862  0.1209 -0.0210
  536loPI   PO4 8564   1.017   6.221   9.823 -0.1486  0.0634  0.3800
  536loPI   GL1 8565   0.727   6.138   9.508 -0.1153  0.1750 -0.1645
  536loPI   GL2 8566   0.756   5.781   9.386 -0.0281  0.0058  0.0306
  536loPI   C1A 8567   0.605   6.304   9.078  0.0355  0.2002 -0.0759
  536loPI   C2A 8568   0.387   6.294   8.689 -0.0780  0.0689 -0.0386
  536loPI   C3A 8569   0.481   6.010   8.447 -0.1087 -0.2188  0.2793
  536loPI   C4A 8570   0.299   6.028   8.037 -0.1227 -0.3090  0.0355
  536loPI   C5A 8571  -0.107   6.148   7.750 -0.3719  0.3617  0.0121
  536loPI   C6A 8572  -0.331   6.245   7.346  0.2466 -0.1986  0.0735
  536loPI   C1B 8573   0.658   5.433   8.955  0.0850  0.0334  0.1902
  536loPI   C2B 8574   0.643   5.349   8.470 -0.0466  0.1723  0.2389
  536loPI   C3B 8575   0.620   4.958   8.366  0.1881 -0.0108  0.2973
  536loPI   C4B 8576   0.306   4.612   8.344 -0.4060  0.2172 -0.2064
  537loPI    C1 8577   4.116  18.688   9.112 -0.2231  0.1013 -0.0122
  537loPI    C2 8578   4.479  18.535   9.180 -0.1954  0.0119 -0.3435
  537loPI    C3 8579   4.347  18.841   9.400 -0.0257 -0.1227 -0.0482
  537loPI   PO4 8580   4.074  18.757   8.810 -0.3433 -0.0348 -0.0088
  537loPI   GL1 8581   3.917  18.437   8.514 -0.0171  0.0143  0.0224
  537loPI   GL2 8582   3.717  18.586   8.480  0.0008  0.0830 -0.3886
  537loPI   C1A 8583   3.882  18.357   8.030 -0.0343 -0.2248 -0.0429
  537loPI   C2A 8584   4.174  18.287   7.717 -0.1037  0.4019  0.3708
  537loPI   C3A 8585   4.374  18.356   7.313  0.1308  0.0262  0.0444
  537loPI   C4A 8586   4.601  18.257   6.851 -0.0793  0.3441 -0.0380
  537loPI   C5A 8587   4.617  18.035   6.506 -0.0227 -0.1738 -0.2431
  537loPI   C6A 8588   4.581  17.868   6.045  0.0748  0.3813 -0.2822
  537loPI   C1B 8589   3.735  18.828   8.165 -0.3363 -0.0986  0.3853
  537loPI   C2B 8590   3.756  19.176   7.995  0.2005 -0.0260  0.1783
  537loPI   C3B 8591   3.807  19.162   7.573  0.0077 -0.2673 -0.3239
  537loPI   C4B 8592   3.988  19.289   7.175 -0.4696 -0.1396  0.0118
  538loPI    C1 8593   4.794   1.626   9.436 -0.1293 -0.0095 -0.3220
  538loPI    C2 8594   5.172   1.739   9.501 -0.1462 -0.0118 -0.2180
  538loPI    C3 8595   5.062   1.361   9.570 -0.1109 -0.0711 -0.4795
  538loPI   PO4 8596   4.766   1.719   9.210 -0.0894  0.2328 -0.1615
  538loPI   GL1 8597   4.774   1.656   8.867  0.0951 -0.1243 -0.1086
  538loPI   GL2 8598   4.623   1.425   8.780 -0.0530  0.2055 -0.4032
  538loPI   C1A 8599   5.088   1.625   8.537 -0.2378 -0.0105 -0.2525
  538loPI   C2A 8600   5.073   1.665   8.080  0.2810  0.4505  0.1144
  538loPI   C3A 8601   4.835   1.901   7.790 -0.1423  0.0037 -0.0610
  538loPI   C4A 8602   4.882   2.207   7.475 -0.0950  0.1751 -0.2623
  538loPI   C5A 8603   4.800   2.574   7.185  0.0471  0.0598 -0.1815
  538loPI   C6A 8604   4.700   2.962   7.230  0.0173 -0.0894 -0.0463
  538loPI   C1B 8605   4.473   1.502   8.410 -0.1107 -0.0180 -0.1916
  538loPI   C2B 8606   4.438   1.703   7.962  0.1254  0.2598 -0.0247
  538loPI   C3B 8607   4.442   1.773   7.507  0.0764  0.2913 -0.3202
  538loPI   C4B 8608   4.467   1.579   7.099  0.0767  0.3517  0.0257
  539loPI    C1 8609   0.403   4.259   9.650  0.1806 -0.0655 -0.1450
  539loPI    C2 8610   0.704   4.001   9.598  0.1051 -0.1957  0.0528
  539loPI    C3 8611   0.666   4.197   9.945 -0.1163 -0.2838  0.0800
  539loPI   PO4 8612   0.176   4.068   9.549 -0.0222 -0.1158 -0.0026
  539loPI   GL1 8613   0.179   3.905   9.114 -0.0668  0.1039  0.0722
  539loPI   GL2 8614   0.515   3.720   9.104 -0.3325 -0.0861  0.3315
  539loPI   C1A 8615   0.190   3.826   8.665  0.0577  0.1516 -0.2010
  539loPI   C2A 8616   0.054   3.667   8.336 -0.2920  0.0598 -0.3504
  539loPI   C3A 8617  -0.111   3.385   7.946 -0.1681  0.2573 -0.0092
  539loPI   C4A 8618  -0.215   3.713   7.652  0.3722 -0.0397 -0.0904
  539loPI   C5A 8619  -0.476   3.944   7.299  0.1040  0.2473  0.0159
  539loPI   C6A 8620  -0.862   4.080   7.202  0.2148  0.2258  0.3913
  539loPI   C1B 8621   0.657   3.545   8.754  0.1677 -0.3934 -0.1633
  539loPI   C2B 8622   0.618   3.611   8.353 -0.0762  0.2518  0.2498
  539loPI   C3B 8623   0.489   3.791   7.983  0.1150  0.0286 -0.1827
  539loPI   C4B 8624   0.277   3.816   7.600  0.1578  0.0976 -0.1859
  540loPI    C1 8625   9.841   3.196   9.977 -0.1855  0.0180 -0.2509
  540loPI    C2 8626   9.970   3.304  10.340 -0.1796  0.1751 -0.2993
  540loPI    C3 8627   9.761   2.966  10.295 -0.2637  0.2040 -0.1343
  540loPI   PO4 8628   9.699   3.417   9.829  0.2784  0.3713  0.0428
  540loPI   GL1 8629   9.532   3.378   9.419 -0.2539  0.0379  0.2954
  540loPI   GL2 8630   9.588   3.031   9.476 -0.0904  0.0758 -0.4170
  540loPI   C1A 8631   9.473   3.425   8.976  0.0656  0.0361  0.0449
  540loPI   C2A 8632   9.783   3.254   8.624  0.0449  0.1343 -0.0571
  540loPI   C3A 8633  10.305   3.303   8.421  0.2503 -0.1607 -0.0129
  540loPI   C4A 8634  10.316   3.196   7.997 -0.0376  0.1144  0.0116
  540loPI   C5A 8635  10.169   3.076   7.509 -0.1261 -0.0184 -0.1981
  540loPI   C6A 8636  10.322   2.712   7.339  0.3759  0.3565  0.5953
  540loPI   C1B 8637   9.868   3.055   9.111  0.0953 -0.1748  0.0463
  540loPI   C2B 8638  10.132   2.968   8.850 -0.2619 -0.0818  0.0594
  540loPI   C3B 8639  10.267   2.775   8.582  0.0284 -0.1756  0.1346
  540loPI   C4B 8640  10.192   2.497   8.273 -0.0140  0.2181 -0.1653
  541loPI    C1 8641  17.220  18.815   9.626  0.0283 -0.0677 -0.0928
  541loPI    C2 8642  17.403  18.983   9.940 -0.0726  0.0609 -0.1022
  541loPI    C3 8643  17.079  18.755   9.996 -0.0114 -0.0263 -0.1011
  541loPI   PO4 8644  17.280  18.868   9.446  0.1354  0.0637  0.1533
  541loPI   GL1 8645  17.465  18.937   9.015 -0.2010  0.0329  0.0379
  541loPI   GL2 8646  17.773  18.820   9.055 -0.1875  0.0081 -0.1202
  541loPI   C1A 8647  17.349  18.849   8.599 -0.0653  0.0231 -0.1179
  541loPI   C2A 8648  17.094  19.081   8.185 -0.0320 -0.1729  0.1077
  541loPI   C3A 8649  16.984  19.248   7.754  0.0354 -0.1436  0.1899
  541loPI   C4A 8650  16.916  19.654   7.525 -0.2696  0.2660  0.2694
  541loPI   C5A 8651  17.104  20.062   7.429  0.0574 -0.0025  0.1113
  541loPI   C6A 8652  17.312  20.334   7.212 -0.3878 -0.1396 -0.0704
  541loPI   C1B 8653  17.768  19.076   8.682 -0.1464  0.2706 -0.0972
  541loPI   C2B 8654  17.545  19.268   8.388 -0.1118  0.2296  0.1096
  541loPI   C3B 8655  17.403  19.418   8.018 -0.3986  0.1358  0.0091
  541loPI   C4B 8656  17.358  19.733   7.873 -0.2652 -0.2504  0.2029
  542loPI    C1 8657   6.388  15.217   9.556  0.0514 -0.2914 -0.0552
  542loPI    C2 8658   6.319  15.169   9.947  0.1133  0.0051 -0.0058
  542loPI    C3 8659   6.494  14.877   9.738 -0.0537 -0.2136  0.1552
  542loPI   PO4 8660   6.535  15.344   9.425 -0.1428  0.1913  0.3530
  542loPI   GL1 8661   6.560  15.370   8.994 -0.1781 -0.1251 -0.2292
  542loPI   GL2 8662   6.390  15.624   9.011  0.1435  0.2866  0.0945
  542loPI   C1A 8663   6.595  15.097   8.660 -0.0764 -0.1072 -0.0323
  542loPI   C2A 8664   6.687  15.113   8.165  0.0871 -0.3236  0.3117
  542loPI   C3A 8665   6.898  15.247   7.823  0.3927  0.1120  0.1317
  542loPI   C4A 8666   6.885  15.380   7.312 -0.1258  0.3093  0.1540
  542loPI   C5A 8667   7.239  15.441   6.985  0.2126  0.1818  0.0524
  542loPI   C6A 8668   7.160  15.641   6.575 -0.1830 -0.1345  0.1918
  542loPI   C1B 8669   6.167  15.433   8.645 -0.1922  0.1120  0.1350
  542loPI   C2B 8670   6.206  15.293   8.256  0.3371 -0.1963 -0.1359
  542loPI   C3B 8671   6.425  15.389   7.809  0.1579  0.0348  0.0247
  542loPI   C4B 8672   6.388  15.478   7.426 -0.1577 -0.2105  0.0648
  543loPI    C1 8673   4.647   9.648   9.723 -0.0359  0.0072 -0.3589
  543loPI    C2 8674   5.013   9.529   9.613 -0.0112 -0.1640 -0.1000
  543loPI    C3 8675   4.848   9.386   9.949 -0.2127  0.1068 -0.0801
  543loPI   PO4 8676   4.517   9.614   9.479 -0.0909 -0.0686 -0.2883
  543loPI   GL1 8677   4.541   9.474   9.068  0.1462 -0.2281 -0.3440
  543loPI   GL2 8678   4.513   9.821   8.988 -0.2928 -0.0482  0.0274
  543loPI   C1A 8679   4.783   9.426   8.763  0.2785  0.0437  0.0538
  543loPI   C2A 8680   4.844   9.545   8.353 -0.1110 -0.4674  0.0540
  543loPI   C3A 8681   5.060   9.453   8.034  0.2509  0.1862  0.3283
  543loPI   C4A 8682   5.233   9.117   7.701  0.0080 -0.0142  0.0472
  543loPI   C5A 8683   5.449   9.253   7.303 -0.0432 -0.0903  0.1627
  543loPI   C6A 8684   5.893   9.025   7.315  0.2300 -0.3031  0.2439
  543loPI   C1B 8685   4.532   9.956   8.539 -0.4397  0.2018 -0.2904
  543loPI   C2B 8686   4.502   9.959   8.154 -0.2591 -0.2054  0.0398
  543loPI   C3B 8687   4.628   9.679   7.811  0.0166 -0.0142 -0.1732
  543loPI   C4B 8688   4.628   9.598   7.335  0.2976  0.1348  0.0906
  544loPI    C1 8689   2.711   2.812   9.713  0.0120 -0.0019 -0.2213
  544loPI    C2 8690   2.997   3.016   9.904 -0.3082  0.2984 -0.0510
  544loPI    C3 8691   2.802   2.723  10.092 -0.2363  0.2136 -0.1079
  544loPI   PO4 8692   2.883   2.769   9.400 -0.2122 -0.2998 -0.1247
  544loPI   GL1 8693   2.913   2.903   8.979 -0.1124  0.1045  0.2191
  544loPI   GL2 8694   3.150   2.595   8.827  0.1405  0.2161  0.0198
  544loPI   C1A 8695   2.645   3.104   8.629  0.1332 -0.0519 -0.1192
  544loPI   C2A 8696   2.667   3.428   8.363  0.1570  0.2395 -0.0281
  544loPI   C3A 8697   2.826   3.762   8.163  0.0909  0.1857 -0.2254
  544loPI   C4A 8698   2.927   4.132   8.033 -0.0551  0.0531  0.2682
  544loPI   C5A 8699   2.995   4.225   7.653  0.1700  0.1896 -0.4253
  544loPI   C6A 8700   2.948   4.670   7.422 -0.0197  0.2529  0.5873
  544loPI   C1B 8701   3.350   2.443   8.460 -0.0580  0.2246 -0.0359
  544loPI   C2B 8702   3.394   2.251   8.036  0.2183 -0.1013  0.1754
  544loPI   C3B 8703   3.525   2.371   7.540  0.0718 -0.1009  0.1182
  544loPI   C4B 8704   3.556   2.292   7.033  0.0716 -0.0676 -0.2211
  545loPI    C1 8705  17.337   9.227  10.048  0.0040 -0.1715  0.1208
  545loPI    C2 8706  16.987   9.041  10.098  0.0687 -0.3673 -0.1323
  545loPI    C3 8707  17.177   9.198  10.413 -0.0627 -0.5937  0.0631
  545loPI   PO4 8708  17.455   9.093   9.875 -0.1383 -0.1636 -0.1892
  545loPI   GL1 8709  17.797   9.133   9.496  0.1624 -0.0357 -0.3366
  545loPI   GL2 8710  17.520   8.956   9.406  0.2392 -0.3284 -0.0508
  545loPI   C1A 8711  17.685   9.240   9.044 -0.2574  0.1793  0.0728
  545loPI   C2A 8712  17.621   9.039   8.599  0.1411 -0.0079  0.2028
  545loPI   C3A 8713  17.652   9.198   8.148  0.3168  0.0173 -0.0950
  545loPI   C4A 8714  17.636   8.920   7.820  0.1558 -0.1350  0.0091
  545loPI   C5A 8715  17.430   8.605   7.606 -0.0672 -0.3474 -0.0170
  545loPI   C6A 8716  17.209   8.273   7.679 -0.2064  0.0899  0.1445
  545loPI   C1B 8717  17.299   9.011   8.986 -0.2010 -0.4634 -0.0577
  545loPI   C2B 8718  17.014   9.078   8.619 -0.1756  0.2366 -0.2033
  545loPI   C3B 8719  17.061   9.194   8.129 -0.0112  0.1039 -0.2417
  545loPI   C4B 8720  17.177   9.194   7.786  0.2592 -0.1385  0.0301
  546loPI    C1 8721   6.731  12.459   9.389  0.1366  0.2799  0.0410
  546loPI    C2 8722   6.799  12.640   9.739 -0.0098  0.1335  0.1466
  546loPI    C3 8723   6.884  12.251   9.695 -0.3165  0.0655  0.1310
  546loPI   PO4 8724   6.721  12.648   9.241  0.2115  0.3178  0.1261
  546loPI   GL1 8725   6.757  12.684   8.803  0.0860  0.0069 -0.2617
  546loPI   GL2 8726   7.161  12.719   8.723 -0.0792  0.1338 -0.2976
  546loPI   C1A 8727   6.713  12.930   8.501  0.0917 -0.1372  0.0611
  546loPI   C2A 8728   6.632  13.009   8.081  0.2894  0.1701 -0.0381
  546loPI   C3A 8729   6.716  12.931   7.654 -0.3964 -0.1364  0.2934
  546loPI   C4A 8730   6.984  12.972   7.286  0.2307 -0.1136  0.0592
  546loPI   C5A 8731   7.138  12.932   6.919  0.0738  0.1001 -0.0347
  546loPI   C6A 8732   7.441  13.086   6.789 -0.1045  0.0764  0.4001
  546loPI   C1B 8733   7.106  12.600   8.241 -0.0596 -0.0737 -0.3101
  546loPI   C2B 8734   7.136  12.683   7.856 -0.2341 -0.3528 -0.4300
  546loPI   C3B 8735   6.904  12.518   7.459  0.0506 -0.0815 -0.0764
  546loPI   C4B 8736   6.906  12.438   7.080  0.0602 -0.0606 -0.0455
  547loPI    C1 8737  14.858   6.356   9.793 -0.2167  0.0524  0.0916
  547loPI    C2 8738  15.091   6.570  10.038 -0.0042 -0.0968  0.0222
  547loPI    C3 8739  14.850   6.289  10.187 -0.2446  0.1503  0.1081
  547loPI   PO4 8740  14.976   6.366   9.605  0.1050 -0.3447  0.1718
  547loPI   GL1 8741  15.082   6.400   9.214 -0.0944 -0.0335 -0.0491
  547loPI   GL2 8742  15.242   6.535   9.051 -0.3422  0.0300 -0.0314
  547loPI   C1A 8743  15.136   6.044   8.789 -0.1407  0.0668  0.2197
  547loPI   C2A 8744  15.540   5.807   8.633 -0.2266  0.1364 -0.2856
  547loPI   C3A 8745  15.574   5.767   8.134  0.2429 -0.2563 -0.1454
  547loPI   C4A 8746  15.516   5.595   7.743  0.1373  0.4687 -0.2000
  547loPI   C5A 8747  15.517   5.251   7.504 -0.0610  0.0050 -0.1831
  547loPI   C6A 8748  15.343   4.767   7.411 -0.2144 -0.1707 -0.3031
  547loPI   C1B 8749  15.027   6.749   8.722 -0.0458 -0.0642  0.1386
  547loPI   C2B 8750  14.881   6.811   8.347 -0.1286 -0.3208  0.1056
  547loPI   C3B 8751  14.771   6.699   8.003 -0.0765 -0.0535  0.0184
  547loPI   C4B 8752  14.353   6.504   7.869  0.1257 -0.0406 -0.0863
  548loPI    C1 8753  14.505   5.076   9.848  0.1140  0.0513  0.1660
  548loPI    C2 8754  14.431   4.717   9.689 -0.1861  0.1374  0.1045
  548loPI    C3 8755  14.693   4.753   9.990 -0.0665 -0.1140  0.0333
  548loPI   PO4 8756  14.539   5.219   9.604 -0.0817  0.2702  0.3519
  548loPI   GL1 8757  14.579   5.498   9.266  0.1162 -0.0642 -0.3107
  548loPI   GL2 8758  14.310   5.728   9.335  0.0954  0.5012  0.0681
  548loPI   C1A 8759  14.634   5.836   8.989  0.3698  0.1016 -0.2018
  548loPI   C2A 8760  14.720   5.839   8.562 -0.3634 -0.1547 -0.0608
  548loPI   C3A 8761  15.115   5.910   8.240  0.1169 -0.0675 -0.1444
  548loPI   C4A 8762  15.290   6.139   7.907 -0.1113  0.1807  0.0223
  548loPI   C5A 8763  15.213   6.505   7.620  0.1680  0.0253 -0.1896
  548loPI   C6A 8764  15.104   6.996   7.719  0.2592 -0.0788  0.2728
  548loPI   C1B 8765  14.100   5.826   8.896  0.1583  0.1262  0.2146
  548loPI   C2B 8766  13.814   5.489   8.714  0.2462  0.3122  0.3421
  548loPI   C3B 8767  13.992   5.335   8.378 -0.4632 -0.2446  0.1298
  548loPI   C4B 8768  14.217   5.420   7.915 -0.0185  0.2019  0.3654
  549loPI    C1 8769  16.371   0.152   9.354  0.1816 -0.1422 -0.0414
  549loPI    C2 8770  16.018   0.221   9.530  0.1485 -0.1628 -0.0992
  549loPI    C3 8771  16.132   0.442   9.217  0.2657 -0.0383  0.0297
  549loPI   PO4 8772  16.364  -0.203   9.364 -0.0129  0.0241  0.0420
  549loPI   GL1 8773  16.517  -0.438   8.962  0.0246 -0.0255 -0.0145
  549loPI   GL2 8774  16.382  -0.668   9.143  0.2306  0.0213 -0.3870
  549loPI   C1A 8775  16.331  -0.663   8.574 -0.0870  0.2502  0.1903
  549loPI   C2A 8776  16.264  -0.604   8.135  0.0181  0.2998 -0.3222
  549loPI   C3A 8777  16.114  -0.512   7.712 -0.1216 -0.0583  0.0668
  549loPI   C4A 8778  15.905  -0.150   7.555  0.2546  0.2028  0.1367
  549loPI   C5A 8779  15.571  -0.233   7.364  0.0319 -0.1455 -0.3083
  549loPI   C6A 8780  15.428  -0.585   7.175 -0.0558  0.2005 -0.1746
  549loPI   C1B 8781  16.345  -1.066   8.846 -0.1104  0.5239 -0.0834
  549loPI   C2B 8782  16.132  -1.177   8.485  0.0121  0.1468  0.5443
  549loPI   C3B 8783  16.261  -1.087   7.990 -0.0361 -0.1130  0.1185
  549loPI   C4B 8784  16.174  -0.945   7.564 -0.0822  0.1423 -0.3595
  550loPI    C1 8785  10.775  18.394   9.632  0.0251  0.4034  0.2054
  550loPI    C2 8786  11.129  18.286   9.783  0.0542  0.0646 -0.0921
  550loPI    C3 8787  10.796  18.238   9.999  0.1289 -0.1295 -0.0180
  550loPI   PO4 8788  10.789  18.666   9.502  0.1216 -0.0696 -0.1534
  550loPI   GL1 8789  10.899  18.967   9.161  0.3487  0.1149  0.1528
  550loPI   GL2 8790  11.215  18.864   9.246 -0.1643 -0.0720  0.0753
  550loPI   C1A 8791  11.027  18.985   8.749 -0.0868 -0.4077 -0.0284
  550loPI   C2A 8792  10.911  19.106   8.311  0.0029 -0.1304 -0.0204
  550loPI   C3A 8793  10.984  19.515   8.209  0.0421 -0.2788  0.2150
  550loPI   C4A 8794  10.773  19.853   7.956 -0.3996 -0.1534  0.0360
  550loPI   C5A 8795  10.637  19.671   7.600 -0.1157 -0.3262 -0.0654
  550loPI   C6A 8796  10.907  19.492   7.326  0.0333  0.0648 -0.2475
  550loPI   C1B 8797  11.366  18.594   8.898 -0.2857 -0.0327  0.2498
  550loPI   C2B 8798  11.572  18.268   8.674  0.0479 -0.3594  0.0188
  550loPI   C3B 8799  11.689  18.179   8.207 -0.0157  0.1647  0.1236
  550loPI   C4B 8800  11.823  18.164   7.745 -0.3901  0.0204 -0.2696
  551loPI    C1 8801  11.768  12.749  10.111  0.0149 -0.0001  0.0037
  551loPI    C2 8802  11.852  12.737  10.502  0.0333 -0.1727 -0.0047
  551loPI    C3 8803  11.597  13.010  10.361  0.1235 -0.0282  0.1088
  551loPI   PO4 8804  12.031  12.819  10.001  0.1253 -0.1946  0.2708
  551loPI   GL1 8805  12.287  12.809   9.538 -0.0232 -0.1366  0.3110
  551loPI   GL2 8806  11.922  12.836   9.515  0.0217 -0.0628  0.1202
  551loPI   C1A 8807  12.260  12.631   9.148  0.1171 -0.1000  0.3700
  551loPI   C2A 8808  12.508  12.477   8.872  0.0137 -0.0085  0.2284
  551loPI   C3A 8809  12.657  12.373   8.450  0.5521 -0.1755  0.2222
  551loPI   C4A 8810  12.627  12.061   8.151  0.1264  0.4266  0.2890
  551loPI   C5A 8811  12.712  12.201   7.747 -0.2910  0.0008 -0.1177
  551loPI   C6A 8812  12.843  12.236   7.438  0.0879 -0.1199 -0.2415
  551loPI   C1B 8813  11.735  12.818   9.070  0.0608 -0.0938 -0.1464
  551loPI   C2B 8814  11.966  12.970   8.642  0.0211 -0.1921 -0.2089
  551loPI   C3B 8815  12.117  12.825   8.206  0.3639  0.2101 -0.1229
  551loPI   C4B 8816  12.348  12.410   7.941  0.2162  0.2464  0.0667
  552loPI    C1 8817   9.352  16.269   9.794  0.1025  0.2258 -0.2410
  552loPI    C2 8818   8.976  16.208   9.918  0.2419  0.1253  0.1495
  552loPI    C3 8819   9.161  16.551  10.005  0.2080  0.2179 -0.1337
  552loPI   PO4 8820   9.345  16.082   9.634 -0.0192 -0.1979  0.1763
  552loPI   GL1 8821   9.327  16.085   9.085  0.0277  0.1244  0.0439
  552loPI   GL2 8822   9.119  15.741   9.028 -0.0104 -0.2141 -0.0562
  552loPI   C1A 8823   9.019  16.124   8.737  0.0400  0.2131 -0.3236
  552loPI   C2A 8824   8.835  16.326   8.415 -0.2770 -0.1188  0.0746
  552loPI   C3A 8825   9.132  16.421   8.145 -0.0682  0.0545  0.0757
  552loPI   C4A 8826   9.271  16.412   7.776  0.0766 -0.0532  0.2780
  552loPI   C5A 8827   9.190  16.284   7.382 -0.2593 -0.1409  0.1757
  552loPI   C6A 8828   8.886  16.023   7.241 -0.1044  0.1237  0.0809
  552loPI   C1B 8829   8.724  15.713   8.674 -0.0713 -0.2548  0.0438
  552loPI   C2B 8830   8.693  15.516   8.337  0.0807  0.0145  0.2973
  552loPI   C3B 8831   8.938  15.503   7.985  0.2917  0.0962 -0.0842
  552loPI   C4B 8832   9.362  15.332   8.018 -0.3154 -0.0714  0.0658
  553loPI    C1 8833  17.330   8.298   9.948  0.0883 -0.1638 -0.2115
  553loPI    C2 8834  17.429   8.637  10.137  0.1964 -0.2332 -0.1425
  553loPI    C3 8835  17.367   8.301  10.346 -0.0561 -0.2227 -0.1969
  553loPI   PO4 8836  17.542   8.358   9.724  0.2374 -0.0173  0.0150
  553loPI   GL1 8837  17.612   8.256   9.249 -0.1226  0.0474  0.0101
  553loPI   GL2 8838  17.727   8.582   9.196 -0.0082 -0.0484 -0.4094
  553loPI   C1A 8839  17.607   8.026   8.832  0.2834 -0.1637 -0.0140
  553loPI   C2A 8840  17.746   7.909   8.477  0.0048 -0.0432  0.1050
  553loPI   C3A 8841  18.110   8.048   8.367 -0.3150 -0.1425  0.2409
  553loPI   C4A 8842  18.426   7.865   8.129 -0.1470  0.2109 -0.1224
  553loPI   C5A 8843  18.495   7.771   7.686  0.1328  0.2151  0.3266
  553loPI   C6A 8844  18.608   7.730   7.317 -0.1678 -0.1279  0.1513
  553loPI   C1B 8845  17.463   8.485   8.660 -0.0827 -0.0877  0.1119
  553loPI   C2B 8846  17.345   8.755   8.211  0.2921 -0.1472 -0.0564
  553loPI   C3B 8847  16.999   8.697   7.952  0.1109 -0.1968  0.4162
  553loPI   C4B 8848  16.941   8.598   7.517 -0.1526 -0.2621  0.0089
  554loPI    C1 8849   3.215   1.097   9.456 -0.2466  0.0393 -0.0850
  554loPI    C2 8850   3.298   1.145   9.845 -0.4094  0.1439 -0.0621
  554loPI    C3 8851   3.233   0.779   9.697  0.1261  0.0524 -0.0900
  554loPI   PO4 8852   3.132   1.365   9.402 -0.0960  0.0115  0.4548
  554loPI   GL1 8853   3.150   1.492   8.975  0.1551 -0.1836 -0.2659
  554loPI   GL2 8854   2.901   1.398   8.970 -0.0812  0.1197  0.0131
  554loPI   C1A 8855   3.095   1.699   8.657 -0.1032  0.2229 -0.1077
  554loPI   C2A 8856   3.053   2.081   8.470  0.0874 -0.0763  0.2881
  554loPI   C3A 8857   2.965   2.176   8.113 -0.0121  0.0725 -0.0221
  554loPI   C4A 8858   2.928   2.193   7.651 -0.0445 -0.2335  0.2217
  554loPI   C5A 8859   2.993   2.168   7.215  0.1875  0.0114  0.0408
  554loPI   C6A 8860   2.812   2.582   7.083 -0.3038  0.0570 -0.3489
  554loPI   C1B 8861   2.820   1.352   8.545 -0.0551  0.1054  0.1543
  554loPI   C2B 8862   2.697   1.255   8.091  0.0208  0.1024 -0.0736
  554loPI   C3B 8863   2.580   1.196   7.695  0.2328  0.1957  0.1811
  554loPI   C4B 8864   2.233   0.848   7.451 -0.1769 -0.1474  0.1510
  555loPI    C1 8865   0.445   7.927   9.847 -0.0394 -0.0871  0.0351
  555loPI    C2 8866   0.555   7.719  10.171  0.0658 -0.0097  0.0494
  555loPI    C3 8867   0.596   8.117  10.165  0.0884 -0.0134 -0.0688
  555loPI   PO4 8868   0.667   7.805   9.646  0.2495  0.2518  0.1546
  555loPI   GL1 8869   0.677   7.308   9.496 -0.1293 -0.3844  0.1546
  555loPI   GL2 8870   0.565   7.099   9.442 -0.0767  0.1666  0.1663
  555loPI   C1A 8871   0.956   7.219   9.218 -0.2479  0.1004 -0.1453
  555loPI   C2A 8872   1.046   7.159   8.769 -0.2339  0.0225 -0.0912
  555loPI   C3A 8873   1.200   7.100   8.315  0.1105  0.3214  0.1110
  555loPI   C4A 8874   1.156   6.971   8.044 -0.0380 -0.1634  0.0569
  555loPI   C5A 8875   0.784   7.123   7.937 -0.0197 -0.3369  0.0998
  555loPI   C6A 8876   0.397   7.088   8.053 -0.0517  0.1183 -0.1824
  555loPI   C1B 8877   0.546   7.011   8.986  0.2597 -0.0260  0.0393
  555loPI   C2B 8878   0.923   6.683   8.784 -0.0598  0.0148  0.0067
  555loPI   C3B 8879   0.898   6.299   8.513 -0.0117 -0.0456 -0.1108
  555loPI   C4B 8880   0.885   6.236   8.110 -0.0500  0.3605 -0.2228
  556loPI    C1 8881  18.146  11.494   9.902  0.0257 -0.1359  0.0920
  556loPI    C2 8882  18.049  11.627  10.266 -0.1104  0.0910 -0.0247
  556loPI    C3 8883  17.803  11.379  10.072  0.0011 -0.0958  0.0700
  556loPI   PO4 8884  18.153  11.680   9.797  0.0068 -0.2060  0.1478
  556loPI   GL1 8885  18.011  11.652   9.443 -0.1199  0.2021  0.2063
  556loPI   GL2 8886  18.251  11.415   9.370 -0.0370  0.0610 -0.1436
  556loPI   C1A 8887  17.980  11.652   8.998 -0.2453 -0.0579  0.2567
  556loPI   C2A 8888  17.844  11.717   8.636  0.3324 -0.1481  0.2088
  556loPI   C3A 8889  17.853  11.623   8.350 -0.0798  0.1619  0.3221
  556loPI   C4A 8890  17.669  11.389   7.938  0.1901 -0.1668 -0.0384
  556loPI   C5A 8891  17.518  11.293   7.607 -0.3166  0.2401  0.0913
  556loPI   C6A 8892  17.525  11.107   7.172  0.1677 -0.1543 -0.1737
  556loPI   C1B 8893  18.479  11.724   9.042 -0.3089 -0.2018  0.0202
  556loPI   C2B 8894  18.802  11.834   8.819  0.0852 -0.1308  0.3881
  556loPI   C3B 8895  19.063  11.939   8.502 -0.1719  0.1684 -0.3822
  556loPI   C4B 8896  19.148  12.111   8.027 -0.0958 -0.1896  0.1810
  557loPI    C1 8897  17.793   4.020   9.709 -0.0624 -0.1243  0.0559
  557loPI    C2 8898  17.646   3.793  10.004 -0.2959  0.2022  0.1969
  557loPI    C3 8899  17.919   4.074  10.085  0.1042 -0.1208  0.0002
  557loPI   PO4 8900  17.554   4.195   9.576 -0.2615 -0.2576 -0.3177
  557loPI   GL1 8901  17.592   4.482   9.209  0.0803 -0.2006 -0.1473
  557loPI   GL2 8902  17.810   4.151   9.153  0.4310 -0.0738  0.3485
  557loPI   C1A 8903  17.394   4.628   8.942  0.0175  0.0048 -0.2911
  557loPI   C2A 8904  17.222   4.701   8.583  0.1011 -0.0297 -0.2074
  557loPI   C3A 8905  17.010   4.466   8.215 -0.2829 -0.2208 -0.1941
  557loPI   C4A 8906  16.648   4.597   7.968 -0.1278 -0.1366  0.2083
  557loPI   C5A 8907  16.485   4.314   7.566 -0.0003  0.2227 -0.0357
  557loPI   C6A 8908  16.438   3.890   7.372  0.1895  0.1004 -0.6359
  557loPI   C1B 8909  17.499   3.776   9.019 -0.0149 -0.3583 -0.1709
  557loPI   C2B 8910  17.359   3.645   8.669 -0.3498 -0.2305  0.3781
  557loPI   C3B 8911  17.326   3.539   8.328 -0.0548  0.1231 -0.1113
  557loPI   C4B 8912  17.222   3.643   7.937 -0.3247  0.2019 -0.1245
  558loPI    C1 8913  12.123   5.094  10.125  0.0960 -0.0276 -0.0507
  558loPI    C2 8914  11.858   4.802  10.059  0.0686  0.0140 -0.1247
  558loPI    C3 8915  12.192   4.725  10.265  0.0624 -0.0702 -0.1456
  558loPI   PO4 8916  12.098   5.200  10.008  0.0198 -0.2365 -0.1576
  558loPI   GL1 8917  11.878   5.308   9.734  0.3513  0.1409  0.0701
  558loPI   GL2 8918  12.029   5.571   9.695  0.2081 -0.1407 -0.2241
  558loPI   C1A 8919  12.079   5.142   9.302  0.2619 -0.0677 -0.1694
  558loPI   C2A 8920  12.080   4.967   8.923  0.0664 -0.2226  0.2937
  558loPI   C3A 8921  12.375   4.781   8.566 -0.3305 -0.1690 -0.0090
  558loPI   C4A 8922  12.395   4.782   8.070 -0.2710  0.2677 -0.1031
  558loPI   C5A 8923  12.623   4.789   7.583  0.1406  0.0838  0.1495
  558loPI   C6A 8924  12.920   4.839   7.252  0.1890  0.0768  0.0401
  558loPI   C1B 8925  11.799   5.707   9.362 -0.3439 -0.2264  0.0031
  558loPI   C2B 8926  11.955   6.017   8.964  0.1707 -0.1241  0.0009
  558loPI   C3B 8927  12.039   6.193   8.548  0.1050  0.1899 -0.2125
  558loPI   C4B 8928  12.201   6.070   8.241 -0.0666 -0.0952  0.1344
  559loPI    C1 8929   2.459  12.286   9.928 -0.0361  0.1710 -0.1404
  559loPI    C2 8930   2.603  12.568  10.172 -0.2329  0.2146 -0.0728
  559loPI    C3 8931   2.741  12.194  10.196  0.1506  0.3373 -0.2766
  559loPI   PO4 8932   2.391  12.388   9.727 -0.1359 -0.0972  0.0190
  559loPI   GL1 8933   2.601  12.218   9.346  0.0500 -0.0709  0.0512
  559loPI   GL2 8934   2.663  12.491   9.336 -0.1954  0.0434 -0.0143
  559loPI   C1A 8935   2.590  12.077   8.888 -0.1736  0.1723  0.3329
  559loPI   C2A 8936   2.403  11.839   8.621 -0.0716 -0.0507  0.2104
  559loPI   C3A 8937   2.387  11.635   8.242 -0.2657  0.0349  0.2885
  559loPI   C4A 8938   2.327  11.414   7.762  0.1324  0.0597 -0.0678
  559loPI   C5A 8939   2.566  11.383   7.337  0.3333 -0.0826 -0.0561
  559loPI   C6A 8940   2.464  11.188   6.996  0.3563  0.2269  0.0897
  559loPI   C1B 8941   2.594  12.559   8.873  0.1888 -0.3464  0.1035
  559loPI   C2B 8942   2.842  12.653   8.498  0.0211 -0.4190 -0.2774
  559loPI   C3B 8943   2.798  12.575   8.135  0.2679 -0.0185 -0.1401
  559loPI   C4B 8944   2.928  12.857   7.782  0.1342  0.1967  0.2781
  560loPI    C1 8945  14.359  12.837   9.925 -0.3018  0.1455  0.1053
  560loPI    C2 8946  14.530  13.104  10.169 -0.2752  0.1594  0.0716
  560loPI    C3 8947  14.516  12.718  10.273  0.1167  0.0958 -0.0933
  560loPI   PO4 8948  14.471  12.960   9.654 -0.1221 -0.0378 -0.0952
  560loPI   GL1 8949  14.606  13.153   9.322  0.4062 -0.2496  0.2103
  560loPI   GL2 8950  14.696  13.034   9.056  0.3281  0.1733  0.3250
  560loPI   C1A 8951  14.325  13.280   8.913 -0.1041  0.3373  0.0860
  560loPI   C2A 8952  14.376  13.053   8.474 -0.2424 -0.4166  0.2425
  560loPI   C3A 8953  14.583  13.095   8.007  0.0864 -0.2366 -0.0735
  560loPI   C4A 8954  14.793  13.106   7.653  0.4172  0.1206 -0.0850
  560loPI   C5A 8955  14.926  12.783   7.359 -0.0552  0.0487 -0.0159
  560loPI   C6A 8956  15.276  12.726   7.194 -0.1973  0.0417  0.1750
  560loPI   C1B 8957  14.846  12.943   8.738  0.1231  0.0609  0.0835
  560loPI   C2B 8958  14.922  13.114   8.351 -0.0157  0.2903 -0.1036
  560loPI   C3B 8959  15.035  12.875   7.998 -0.0565  0.0855 -0.3469
  560loPI   C4B 8960  15.299  12.685   7.646  0.1316 -0.0648 -0.4311
  561loPI    C1 8961   7.893  14.759   9.725  0.2580 -0.1922  0.1009
  561loPI    C2 8962   7.784  14.409   9.565  0.1641 -0.1207  0.0069
  561loPI    C3 8963   7.509  14.647   9.732  0.2044 -0.0246 -0.0628
  561loPI   PO4 8964   8.082  14.884   9.536 -0.1035  0.3399 -0.0754
  561loPI   GL1 8965   8.171  14.910   9.127 -0.4524 -0.0948 -0.4035
  561loPI   GL2 8966   8.292  14.816   8.907 -0.1307  0.0093 -0.2184
  561loPI   C1A 8967   7.944  15.131   8.843 -0.0060  0.0092  0.1158
  561loPI   C2A 8968   7.742  15.249   8.551 -0.0319  0.2963 -0.1618
  561loPI   C3A 8969   7.669  15.417   8.142  0.2002 -0.2621 -0.1493
  561loPI   C4A 8970   7.468  15.393   7.828  0.6195 -0.0838 -0.2720
  561loPI   C5A 8971   7.306  15.685   7.430  0.3055 -0.0852 -0.0464
  561loPI   C6A 8972   7.435  15.902   7.073  0.1264  0.1040  0.1191
  561loPI   C1B 8973   8.078  14.744   8.527 -0.2295 -0.1482  0.0302
  561loPI   C2B 8974   7.972  15.007   8.117 -0.3010 -0.2958  0.0614
  561loPI   C3B 8975   7.940  15.187   7.746  0.1243  0.0124 -0.2097
  561loPI   C4B 8976   7.617  15.111   7.442  0.2630  0.0214 -0.0813
  562loPI    C1 8977   9.102  13.227   9.641 -0.1205  0.0269 -0.0034
  562loPI    C2 8978   8.832  13.500   9.529  0.1829  0.4576  0.2786
  562loPI    C3 8979   8.825  13.353   9.901 -0.1282 -0.1167  0.0588
  562loPI   PO4 8980   9.180  13.116   9.522  0.1648 -0.2695  0.0013
  562loPI   GL1 8981   9.294  13.030   9.143 -0.2143 -0.0239  0.3668
  562loPI   GL2 8982   9.007  13.218   9.075  0.2051 -0.2141  0.0569
  562loPI   C1A 8983   9.650  13.015   8.733  0.0339  0.1402  0.1683
  562loPI   C2A 8984   9.844  13.039   8.259  0.2510  0.0366  0.0591
  562loPI   C3A 8985  10.057  12.697   7.974  0.3018  0.1245 -0.2616
  562loPI   C4A 8986  10.495  12.553   7.977 -0.2364 -0.0275  0.2725
  562loPI   C5A 8987  10.638  12.343   7.571  0.3134 -0.0562 -0.3109
  562loPI   C6A 8988  10.907  12.066   7.321 -0.3243  0.0423 -0.1176
  562loPI   C1B 8989   9.062  12.999   8.621  0.2454 -0.0418  0.0225
  562loPI   C2B 8990   9.186  12.975   8.161 -0.1403 -0.2831  0.1761
  562loPI   C3B 8991   9.397  12.879   7.717 -0.0306  0.1382  0.2014
  562loPI   C4B 8992   9.505  13.046   7.335  0.2332 -0.0771  0.3532
  563loPI    C1 8993  10.356  13.709   9.815  0.3447 -0.0908  0.2904
  563loPI    C2 8994  10.179  13.938  10.091  0.2242 -0.1272  0.2436
  563loPI    C3 8995  10.113  13.543  10.086 -0.2469 -0.0543 -0.1971
  563loPI   PO4 8996  10.634  13.750   9.788  0.0495 -0.0317 -0.5301
  563loPI   GL1 8997  10.862  13.675   9.397 -0.1234  0.2659 -0.1538
  563loPI   GL2 8998  10.778  13.968   9.330 -0.2014  0.1649  0.0042
  563loPI   C1A 8999  10.876  13.689   8.943 -0.0732  0.0073 -0.2971
  563loPI   C2A 9000  10.876  13.807   8.417  0.0820 -0.2606 -0.1358
  563loPI   C3A 9001  10.842  13.982   8.077  0.4036 -0.1780 -0.0456
  563loPI   C4A 9002  11.183  13.981   7.762 -0.3052  0.1064  0.1255
  563loPI   C5A 9003  11.330  13.913   7.252 -0.4546 -0.1348 -0.3363
  563loPI   C6A 9004  11.621  13.814   6.991  0.1161  0.0505 -0.1188
  563loPI   C1B 9005  10.603  14.380   9.323 -0.2369  0.0160  0.1338
  563loPI   C2B 9006  10.353  14.531   8.968  0.4631 -0.1456 -0.0657
  563loPI   C3B 9007  10.302  14.550   8.525  0.1032  0.3203 -0.1264
  563loPI   C4B 9008  10.060  14.617   8.121  0.0215 -0.1138  0.3423
  564loPI    C1 9009   1.597   2.822   9.818  0.0622 -0.0450 -0.1593
  564loPI    C2 9010   1.544   2.459   9.978  0.0628  0.0483  0.0556
  564loPI    C3 9011   1.815   2.709  10.133  0.3120  0.0122 -0.3092
  564loPI   PO4 9012   1.553   2.806   9.616  0.2171  0.2982  0.1887
  564loPI   GL1 9013   1.537   3.128   9.353 -0.0000  0.0095 -0.2884
  564loPI   GL2 9014   1.369   2.915   9.124 -0.0476  0.2514 -0.0338
  564loPI   C1A 9015   1.654   3.341   8.981  0.2198 -0.0757  0.0096
  564loPI   C2A 9016   1.810   3.555   8.682  0.0776 -0.3495  0.2123
  564loPI   C3A 9017   1.795   3.521   8.245 -0.1741  0.1002  0.1746
  564loPI   C4A 9018   1.895   3.657   7.771  0.0342  0.1186  0.0501
  564loPI   C5A 9019   1.845   3.583   7.307  0.0094  0.2375 -0.2678
  564loPI   C6A 9020   2.017   3.455   7.022 -0.0973 -0.1578  0.0558
  564loPI   C1B 9021   1.280   3.137   8.745  0.1764 -0.3892 -0.0225
  564loPI   C2B 9022   1.392   3.372   8.448  0.0749 -0.3086 -0.1954
  564loPI   C3B 9023   1.319   3.502   8.020 -0.1869  0.0066  0.0351
  564loPI   C4B 9024   1.456   3.520   7.625 -0.0811 -0.1353 -0.0170
  565loPI    C1 9025   1.999   5.064   9.907  0.1329 -0.0220  0.1244
  565loPI    C2 9026   2.180   4.714   9.975  0.0220 -0.1086 -0.0217
  565loPI    C3 9027   1.857   4.815  10.187  0.2748  0.0748  0.2845
  565loPI   PO4 9028   1.974   5.111   9.652 -0.1602 -0.4980  0.1985
  565loPI   GL1 9029   2.361   5.501   9.452  0.1286  0.0394 -0.0219
  565loPI   GL2 9030   2.541   5.304   9.127  0.0523  0.1496  0.0018
  565loPI   C1A 9031   1.912   5.576   9.146  0.1975  0.1076 -0.1897
  565loPI   C2A 9032   1.619   5.726   8.816 -0.0878 -0.0862 -0.0228
  565loPI   C3A 9033   1.762   5.658   8.387 -0.2758 -0.0028  0.1172
  565loPI   C4A 9034   1.882   5.383   7.923  0.1215  0.2125  0.1949
  565loPI   C5A 9035   1.776   5.170   7.576  0.0994  0.0179  0.2984
  565loPI   C6A 9036   1.975   4.751   7.440  0.4137  0.0618 -0.2898
  565loPI   C1B 9037   2.478   5.407   8.656 -0.0994  0.2017  0.0197
  565loPI   C2B 9038   2.396   5.469   8.291  0.1400  0.0602  0.1891
  565loPI   C3B 9039   2.392   5.439   7.843  0.1418 -0.2013 -0.0583
  565loPI   C4B 9040   2.324   5.739   7.636  0.1755  0.1209  0.1144
  566loPI    C1 9041  11.168   2.037  10.167 -0.0197  0.1453 -0.1230
  566loPI    C2 9042  10.916   1.784  10.347  0.1188 -0.0783 -0.2398
  566loPI    C3 9043  11.194   1.976  10.561 -0.0531  0.0554 -0.1344
  566loPI   PO4 9044  11.028   2.091   9.908 -0.0980  0.4408 -0.1288
  566loPI   GL1 9045  10.870   1.923   9.507 -0.1789  0.1290  0.1929
  566loPI   GL2 9046  10.991   1.586   9.526  0.1572  0.0103 -0.2203
  566loPI   C1A 9047  10.668   1.865   9.157 -0.3787  0.1658  0.3630
  566loPI   C2A 9048  10.514   1.855   8.707 -0.1810  0.0256 -0.2369
  566loPI   C3A 9049  10.258   1.900   8.316  0.0327  0.0229  0.0171
  566loPI   C4A 9050  10.111   1.808   7.943  0.0468  0.0172  0.3540
  566loPI   C5A 9051   9.958   1.594   7.629 -0.1183 -0.1145 -0.2692
  566loPI   C6A 9052   9.644   1.727   7.371  0.1555 -0.2270  0.0417
  566loPI   C1B 9053  11.136   1.614   9.035 -0.2647 -0.1047  0.0465
  566loPI   C2B 9054  11.063   1.934   8.745  0.0967 -0.1492  0.0335
  566loPI   C3B 9055  10.949   2.135   8.440 -0.0127  0.0415 -0.0359
  566loPI   C4B 9056  10.708   2.217   7.998 -0.0489 -0.1607  0.0072
  567loPI    C1 9057   2.060  11.466   9.545 -0.3350  0.2900  0.0676
  567loPI    C2 9058   1.853  11.222   9.785 -0.1298  0.0273 -0.0179
  567loPI    C3 9059   2.144  11.451   9.936 -0.0756 -0.0551  0.0038
  567loPI   PO4 9060   1.865  11.626   9.462  0.1746 -0.1131  0.3858
  567loPI   GL1 9061   1.712  11.525   8.974 -0.1297 -0.1449  0.0722
  567loPI   GL2 9062   1.444  11.327   8.763 -0.1048 -0.2675 -0.0318
  567loPI   C1A 9063   1.892  11.614   8.574  0.0125  0.0079  0.2172
  567loPI   C2A 9064   1.940  11.494   8.121  0.0025 -0.0483  0.1999
  567loPI   C3A 9065   1.718  11.294   7.775 -0.0034 -0.1096  0.0359
  567loPI   C4A 9066   1.287  11.164   7.574  0.1386  0.1493  0.0601
  567loPI   C5A 9067   1.090  10.852   7.433  0.1654 -0.4230 -0.1471
  567loPI   C6A 9068   0.651  10.702   7.185  0.3961 -0.2875  0.2296
  567loPI   C1B 9069   1.460  11.375   8.323 -0.1819 -0.2169 -0.0760
  567loPI   C2B 9070   1.499  11.822   8.054  0.1070  0.0149  0.0635
  567loPI   C3B 9071   1.453  12.175   7.884  0.0113 -0.2138 -0.3575
  567loPI   C4B 9072   1.202  12.443   7.570  0.3452  0.0500 -0.0114
  568loPI    C1 9073   1.514  12.012   9.787  0.2481 -0.1581 -0.2414
  568loPI    C2 9074   1.722  11.741   9.995  0.0987 -0.0916 -0.0013
  568loPI    C3 9075   1.370  11.641   9.833  0.1020 -0.0762 -0.0181
  568loPI   PO4 9076   1.673  12.121   9.635 -0.1016 -0.1675  0.3358
  568loPI   GL1 9077   1.718  12.133   9.219  0.0028 -0.0434 -0.0173
  568loPI   GL2 9078   1.366  12.048   8.939 -0.4716  0.0951  0.0820
  568loPI   C1A 9079   2.040  12.171   8.852  0.5473  0.2823  0.0751
  568loPI   C2A 9080   2.374  12.299   8.471  0.1599 -0.1690  0.2102
  568loPI   C3A 9081   2.336  12.503   8.083  0.0128 -0.1986 -0.0895
  568loPI   C4A 9082   2.522  12.550   7.668  0.2978 -0.0872 -0.2274
  568loPI   C5A 9083   2.820  12.705   7.338  0.1821 -0.2186  0.2814
  568loPI   C6A 9084   3.242  12.970   7.294 -0.0006 -0.0505 -0.1344
  568loPI   C1B 9085   1.459  11.930   8.603 -0.2428 -0.2255  0.0749
  568loPI   C2B 9086   1.813  12.115   8.309 -0.2891  0.3621 -0.3443
  568loPI   C3B 9087   1.961  12.157   7.928  0.1532 -0.1567 -0.0672
  568loPI   C4B 9088   1.972  11.726   7.698  0.1521  0.0402 -0.0976
  569loPI    C1 9089  14.327  18.592   9.700 -0.0875 -0.2487  0.1258
  569loPI    C2 9090  14.335  18.699  10.085  0.0464  0.1896  0.0068
  569loPI    C3 9091  14.664  18.554   9.912 -0.0624 -0.1765  0.0992
  569loPI   PO4 9092  14.041  18.752   9.530  0.0030 -0.3639 -0.0161
  569loPI   GL1 9093  13.743  19.067   9.194 -0.1761  0.0035  0.3402
  569loPI   GL2 9094  14.106  19.121   9.133  0.2049  0.0495 -0.0248
  569loPI   C1A 9095  13.557  18.837   8.886  0.3159  0.0778  0.2774
  569loPI   C2A 9096  13.403  18.765   8.330 -0.2233 -0.1343  0.1608
  569loPI   C3A 9097  13.410  18.812   7.861 -0.1512  0.1141 -0.1320
  569loPI   C4A 9098  13.229  18.564   7.629  0.1363  0.1806 -0.1607
  569loPI   C5A 9099  12.799  18.558   7.461 -0.4618 -0.1797  0.2704
  569loPI   C6A 9100  12.523  18.632   7.183 -0.2829  0.2342 -0.1678
  569loPI   C1B 9101  14.057  18.819   8.864 -0.0487  0.3195  0.1576
  569loPI   C2B 9102  13.974  18.730   8.342  0.2363 -0.1787  0.1202
  569loPI   C3B 9103  13.822  18.557   7.934  0.2718  0.0378 -0.0264
  569loPI   C4B 9104  13.715  18.325   7.639  0.2057 -0.1196 -0.1968
  570loPI    C1 9105  13.706   9.665  10.665  0.0362  0.0273 -0.1002
  570loPI    C2 9106  13.748   9.368  10.929  0.1670  0.2525  0.1371
  570loPI    C3 9107  13.414   9.588  10.928  0.1011  0.1534  0.0098
  570loPI   PO4 9108  13.716   9.604  10.295 -0.0422 -0.0826 -0.1624
  570loPI   GL1 9109  13.632   9.832   9.916 -0.1551  0.1535 -0.1303
  570loPI   GL2 9110  13.928   9.788   9.850  0.0303 -0.1141 -0.1847
  570loPI   C1A 9111  13.417   9.752   9.572  0.0058 -0.3073  0.2517
  570loPI   C2A 9112  13.322   9.956   9.259 -0.2232  0.1777  0.1037
  570loPI   C3A 9113  13.270   9.949   8.739 -0.0775  0.2145 -0.3147
  570loPI   C4A 9114  13.397   9.665   8.417 -0.0809  0.0094 -0.0986
  570loPI   C5A 9115  13.510   9.561   8.027  0.0970 -0.0511 -0.2194
  570loPI   C6A 9116  13.669   9.421   7.589 -0.1211 -0.5061 -0.2275
  570loPI   C1B 9117  13.876  10.005   9.491  0.2383 -0.3284 -0.3788
  570loPI   C2B 9118  13.780   9.978   9.096 -0.0422 -0.2285  0.0708
  570loPI   C3B 9119  13.899   9.917   8.631 -0.0182 -0.0579  0.0274
  570loPI   C4B 9120  13.809   9.918   8.268 -0.1022  0.0793 -0.0836
  571loPI    C1 9121  12.768   1.116   9.713  0.0107 -0.0472 -0.1428
  571loPI    C2 9122  13.153   1.187   9.794 -0.0180  0.1602 -0.1826
  571loPI    C3 9123  12.911   1.047  10.080  0.0352  0.2465 -0.0949
  571loPI   PO4 9124  12.649   1.272   9.601  0.0750  0.2397  0.2850
  571loPI   GL1 9125  12.679   1.568   9.289 -0.2401 -0.4396  0.2070
  571loPI   GL2 9126  12.707   1.899   9.045  0.0839 -0.2156  0.2226
  571loPI   C1A 9127  12.534   1.510   8.813 -0.0552 -0.0911  0.1725
  571loPI   C2A 9128  12.786   1.572   8.403 -0.1837 -0.1783 -0.0518
  571loPI   C3A 9129  12.850   1.642   7.935 -0.4294  0.1114 -0.2986
  571loPI   C4A 9130  12.592   1.842   7.666 -0.2557  0.2027  0.2475
  571loPI   C5A 9131  12.243   2.068   7.584  0.0195 -0.4828 -0.1170
  571loPI   C6A 9132  11.822   2.168   7.361 -0.0853 -0.0886  0.0289
  571loPI   C1B 9133  12.784   2.093   8.595  0.0364  0.2152  0.0185
  571loPI   C2B 9134  12.656   2.012   8.200  0.0078  0.0028  0.1076
  571loPI   C3B 9135  12.968   2.118   7.821 -0.2209  0.1672 -0.0951
  571loPI   C4B 9136  13.407   2.054   7.644  0.2041  0.0550 -0.2068
  572loPI    C1 9137   9.889   9.429   9.645 -0.2247  0.2935 -0.2638
  572loPI    C2 9138   9.517   9.366   9.776 -0.0579  0.0998  0.1352
  572loPI    C3 9139   9.725   9.680   9.910  0.0580 -0.0090  0.2109
  572loPI   PO4 9140   9.860   9.354   9.395  0.1003 -0.1816  0.0459
  572loPI   GL1 9141   9.728   9.485   8.961 -0.0320 -0.1551 -0.0232
  572loPI   GL2 9142  10.024   9.732   9.089  0.1919 -0.4029 -0.0907
  572loPI   C1A 9143   9.945   9.297   8.708  0.1092 -0.2827  0.3317
  572loPI   C2A 9144   9.987   9.163   8.341 -0.2363  0.0697 -0.0693
  572loPI   C3A 9145   9.861   9.031   7.968  0.0104 -0.4403  0.0901
  572loPI   C4A 9146  10.047   9.033   7.578  0.0416  0.4382 -0.3964
  572loPI   C5A 9147  10.368   8.761   7.418 -0.0641  0.0168  0.3342
  572loPI   C6A 9148  10.608   8.777   6.914  0.1414  0.2131 -0.1126
  572loPI   C1B 9149  10.139  10.039   8.706  0.0101 -0.2679 -0.1744
  572loPI   C2B 9150  10.275  10.016   8.321 -0.4080 -0.0324 -0.0876
  572loPI   C3B 9151  10.017  10.087   7.944  0.0052 -0.0123  0.3058
  572loPI   C4B 9152  10.206  10.064   7.542 -0.3292 -0.1028 -0.0536
  573loPI    C1 9153   4.286  15.304   9.552  0.1292 -0.0334 -0.0595
  573loPI    C2 9154   4.040  15.174   9.840  0.0672  0.0250 -0.0859
  573loPI    C3 9155   4.269  14.914   9.640  0.1941 -0.0026  0.0930
  573loPI   PO4 9156   4.183  15.541   9.423 -0.3161 -0.1508 -0.1411
  573loPI   GL1 9157   4.254  15.518   8.980  0.0596 -0.0092 -0.0383
  573loPI   GL2 9158   3.852  15.670   8.898 -0.0413  0.3342  0.1549
  573loPI   C1A 9159   4.260  15.542   8.541 -0.2671  0.1819  0.0228
  573loPI   C2A 9160   4.253  15.595   8.065 -0.0689 -0.3239  0.5205
  573loPI   C3A 9161   4.467  15.587   7.785 -0.2994 -0.3534  0.2606
  573loPI   C4A 9162   4.449  15.591   7.283 -0.1646 -0.1095 -0.0938
  573loPI   C5A 9163   4.264  15.552   6.849 -0.2970  0.2104 -0.1848
  573loPI   C6A 9164   4.230  15.124   6.605  0.1806  0.0096 -0.1598
  573loPI   C1B 9165   3.705  15.653   8.482 -0.3748 -0.2020  0.1699
  573loPI   C2B 9166   3.787  15.682   8.063 -0.1758  0.2130 -0.0730
  573loPI   C3B 9167   3.935  15.437   7.723 -0.2030  0.1256 -0.2370
  573loPI   C4B 9168   3.865  15.014   7.551 -0.1097  0.1505  0.2580
  574loPI    C1 9169   2.781   9.660   9.568 -0.0428  0.1491  0.0994
  574loPI    C2 9170   2.816   9.648   9.966  0.0736  0.3096  0.0946
  574loPI    C3 9171   2.745   9.996   9.782 -0.4710  0.1642  0.0130
  574loPI   PO4 9172   2.873   9.415   9.533 -0.0546 -0.3213  0.0528
  574loPI   GL1 9173   3.064   9.319   9.153 -0.0018  0.0161 -0.0948
  574loPI   GL2 9174   3.240   9.572   9.187 -0.0964 -0.1345  0.2652
  574loPI   C1A 9175   3.073   9.473   8.709  0.4467 -0.0030 -0.2852
  574loPI   C2A 9176   3.279   9.530   8.407 -0.1673 -0.1396  0.1537
  574loPI   C3A 9177   3.247   9.732   7.933  0.0840  0.0667  0.2162
  574loPI   C4A 9178   3.130   9.984   7.505  0.0395  0.0527 -0.2362
  574loPI   C5A 9179   3.016   9.786   7.143  0.0343 -0.1177  0.1731
  574loPI   C6A 9180   2.827   9.513   7.024 -0.1317  0.2569  0.0836
  574loPI   C1B 9181   3.494   9.689   8.848  0.3117  0.0922  0.1729
  574loPI   C2B 9182   3.737   9.383   8.549 -0.1792 -0.2502  0.0913
  574loPI   C3B 9183   3.656   9.297   8.176 -0.0470  0.3073 -0.0032
  574loPI   C4B 9184   3.456   8.895   7.910 -0.1726  0.0375 -0.0732
  575loPI    C1 9185  18.534   9.961  10.146  0.2317 -0.1395 -0.0573
  575loPI    C2 9186  18.266  10.191  10.334  0.3512 -0.0844  0.0475
  575loPI    C3 9187  18.149   9.855  10.151  0.1796  0.0442 -0.0812
  575loPI   PO4 9188  18.626  10.192   9.971  0.1410  0.1919 -0.1617
  575loPI   GL1 9189  18.798  10.262   9.551  0.0366  0.0352  0.2623
  575loPI   GL2 9190  18.865  10.685   9.343 -0.3501 -0.1182  0.1487
  575loPI   C1A 9191  18.478  10.443   9.255 -0.1284  0.0970 -0.0892
  575loPI   C2A 9192  18.063  10.437   8.963  0.0835 -0.0035 -0.0120
  575loPI   C3A 9193  18.014  10.841   8.726  0.2228  0.2095  0.2463
  575loPI   C4A 9194  18.219  11.271   8.855  0.1604 -0.0664  0.1771
  575loPI   C5A 9195  18.323  11.639   8.553  0.1053 -0.0176 -0.1279
  575loPI   C6A 9196  18.638  11.763   8.350  0.0930 -0.3005  0.0677
  575loPI   C1B 9197  18.951  10.824   8.995  0.1432 -0.2082  0.1149
  575loPI   C2B 9198  18.937  10.892   8.569 -0.5765  0.0201 -0.0548
  575loPI   C3B 9199  18.826  10.864   8.154  0.0636 -0.0294  0.1103
  575loPI   C4B 9200  18.561  11.100   7.839  0.1298  0.1458 -0.2012
  576loPI    C1 9201   2.475   4.361   9.598 -0.1783 -0.3895  0.0886
  576loPI    C2 9202   2.833   4.225   9.713 -0.0228  0.0303  0.1166
  576loPI    C3 9203   2.624   4.467   9.954 -0.0238  0.3242 -0.1725
  576loPI   PO4 9204   2.514   4.416   9.386  0.1929 -0.2147  0.0771
  576loPI   GL1 9205   2.773   4.731   9.045 -0.3456  0.2354  0.3825
  576loPI   GL2 9206   2.954   5.095   9.272  0.0324  0.0258 -0.2832
  576loPI   C1A 9207   2.433   4.900   8.715  0.3148  0.1142  0.0049
  576loPI   C2A 9208   2.216   4.598   8.293  0.0771 -0.2805 -0.2364
  576loPI   C3A 9209   2.392   4.230   8.108  0.1488 -0.0302  0.1080
  576loPI   C4A 9210   2.486   4.069   7.715 -0.2104 -0.2669  0.2554
  576loPI   C5A 9211   2.433   3.828   7.255  0.3901 -0.1221  0.0431
  576loPI   C6A 9212   2.936   3.730   7.145  0.1173  0.2400  0.0748
  576loPI   C1B 9213   2.871   5.107   8.773 -0.3016  0.2554 -0.0482
  576loPI   C2B 9214   2.806   5.146   8.359  0.4381 -0.1040 -0.0121
  576loPI   C3B 9215   2.514   5.045   8.128 -0.0194  0.0758 -0.2071
  576loPI   C4B 9216   2.236   4.870   7.880  0.0458  0.2670 -0.1731
  577loPI    C1 9217   0.166  12.931   9.486 -0.0142 -0.1436  0.0121
  577loPI    C2 9218  -0.215  12.822   9.543 -0.0956  0.1690  0.0843
  577loPI    C3 9219   0.041  12.819   9.850 -0.0749  0.0958  0.0666
  577loPI   PO4 9220   0.117  13.135   9.295 -0.0610 -0.0008 -0.4076
  577loPI   GL1 9221   0.065  13.210   8.940  0.0808 -0.1978  0.1526
  577loPI   GL2 9222  -0.134  13.401   8.742 -0.2581 -0.2688 -0.1684
  577loPI   C1A 9223   0.210  13.253   8.458  0.1466 -0.2269 -0.1216
  577loPI   C2A 9224   0.188  13.461   8.122  0.2137 -0.0642  0.3849
  577loPI   C3A 9225  -0.016  13.479   7.906  0.0932 -0.3188  0.0777
  577loPI   C4A 9226  -0.089  13.199   7.656  0.2039 -0.1726 -0.1949
  577loPI   C5A 9227  -0.135  12.854   7.296 -0.3288  0.1235  0.1350
  577loPI   C6A 9228  -0.178  12.744   6.872  0.2505  0.2292 -0.0938
  577loPI   C1B 9229  -0.431  13.434   8.413 -0.1206  0.0327  0.0413
  577loPI   C2B 9230  -0.537  13.643   8.035  0.0271  0.1180 -0.2001
  577loPI   C3B 9231  -0.795  13.525   7.695  0.5431 -0.3463 -0.0245
  577loPI   C4B 9232  -1.186  13.600   7.316 -0.1194  0.0889  0.1458
  578loPI    C1 9233   7.751   1.262   9.568  0.1597 -0.2001 -0.0505
  578loPI    C2 9234   8.068   1.392   9.774  0.0328  0.0161  0.0119
  578loPI    C3 9235   7.830   1.109   9.929  0.1937 -0.1470 -0.0353
  578loPI   PO4 9236   7.873   1.254   9.343 -0.0180  0.1957 -0.0955
  578loPI   GL1 9237   7.774   1.260   8.909  0.0628 -0.1093  0.0163
  578loPI   GL2 9238   7.769   1.608   8.988  0.2743  0.1091  0.1293
  578loPI   C1A 9239   7.613   1.252   8.529  0.0041  0.3097  0.1983
  578loPI   C2A 9240   7.685   1.543   8.105  0.1894  0.0133 -0.0387
  578loPI   C3A 9241   7.663   1.722   7.664 -0.1346  0.0657  0.0671
  578loPI   C4A 9242   7.617   1.671   7.177 -0.1147  0.3038 -0.0678
  578loPI   C5A 9243   7.808   1.442   6.891 -0.1662 -0.1619 -0.0936
  578loPI   C6A 9244   8.183   1.303   6.720 -0.0165 -0.2876 -0.3417
  578loPI   C1B 9245   8.000   1.706   8.533 -0.1706 -0.2410 -0.2554
  578loPI   C2B 9246   8.109   1.729   8.017  0.1315  0.0103 -0.0411
  578loPI   C3B 9247   8.213   1.801   7.688  0.3791  0.1097 -0.3548
  578loPI   C4B 9248   8.072   1.486   7.369  0.0522  0.1687 -0.1750
  579loPI    C1 9249  14.007  13.056  10.132 -0.0595  0.0947  0.1859
  579loPI    C2 9250  13.645  13.046  10.302 -0.0973  0.0149  0.1011
  579loPI    C3 9251  13.917  13.311  10.427 -0.0673 -0.1536  0.4012
  579loPI   PO4 9252  13.925  13.055   9.837  0.0265  0.1462 -0.0979
  579loPI   GL1 9253  14.079  13.153   9.360  0.0983 -0.2034  0.1103
  579loPI   GL2 9254  14.144  12.882   9.171  0.1166  0.0061 -0.2823
  579loPI   C1A 9255  13.768  13.269   9.068 -0.1858 -0.0479 -0.1774
  579loPI   C2A 9256  13.843  13.171   8.577 -0.3003  0.2020  0.1906
  579loPI   C3A 9257  13.918  13.108   8.202 -0.1915  0.0802  0.1935
  579loPI   C4A 9258  13.837  13.265   7.823  0.2629 -0.2367 -0.1354
  579loPI   C5A 9259  13.915  13.207   7.350 -0.1342 -0.0111 -0.0604
  579loPI   C6A 9260  13.850  12.858   7.185  0.1952 -0.0823  0.1216
  579loPI   C1B 9261  13.966  12.783   8.870 -0.0664 -0.0632 -0.3771
  579loPI   C2B 9262  14.169  12.646   8.438 -0.1957  0.0447  0.5048
  579loPI   C3B 9263  14.341  12.522   8.099  0.5029  0.1268 -0.1770
  579loPI   C4B 9264  14.605  12.624   7.745 -0.2197  0.0421 -0.2838
  580loPI    C1 9265  10.643   6.729  10.189 -0.1463  0.1104  0.1017
  580loPI    C2 9266  10.463   7.049  10.347  0.0747  0.2237  0.1283
  580loPI    C3 9267  10.591   6.754  10.585  0.0464  0.2064  0.1221
  580loPI   PO4 9268  10.602   6.810   9.891 -0.0112  0.3123  0.0802
  580loPI   GL1 9269  10.772   6.856   9.484 -0.0404 -0.3848 -0.2252
  580loPI   GL2 9270  10.503   6.883   9.448  0.2463  0.0882  0.1526
  580loPI   C1A 9271  10.802   6.704   8.941  0.5110 -0.0267  0.3080
  580loPI   C2A 9272  10.601   6.679   8.584 -0.1390  0.1293 -0.1215
  580loPI   C3A 9273  10.302   6.472   8.278  0.0778 -0.1802 -0.2568
  580loPI   C4A 9274  10.245   6.323   7.866 -0.1047 -0.0018  0.3265
  580loPI   C5A 9275  10.283   6.481   7.393  0.2879  0.0243 -0.2200
  580loPI   C6A 9276  10.104   6.696   7.141 -0.1700 -0.0651 -0.1061
  580loPI   C1B 9277  10.437   6.991   8.990 -0.0646  0.1398  0.1327
  580loPI   C2B 9278  10.485   7.180   8.591 -0.2877 -0.2104 -0.1099
  580loPI   C3B 9279  10.718   7.116   8.275 -0.0405  0.3230  0.0940
  580loPI   C4B 9280  10.753   6.977   7.957  0.0445  0.3220  0.0569
  581loPI    C1 9281   6.930  18.303   9.643  0.0519 -0.0425  0.0305
  581loPI    C2 9282   6.631  18.066   9.762 -0.0955  0.1047 -0.0429
  581loPI    C3 9283   6.968  18.085   9.976 -0.0069 -0.3126 -0.1365
  581loPI   PO4 9284   6.996  18.248   9.433 -0.1025 -0.0090 -0.1114
  581loPI   GL1 9285   6.820  18.241   9.056 -0.0055  0.0523 -0.2210
  581loPI   GL2 9286   6.650  18.460   8.947  0.1204 -0.1499  0.1265
  581loPI   C1A 9287   6.978  18.029   8.694 -0.2019 -0.0717  0.1140
  581loPI   C2A 9288   6.951  18.183   8.242  0.2933  0.2727 -0.0136
  581loPI   C3A 9289   6.915  17.965   7.825  0.0417 -0.1739  0.3662
  581loPI   C4A 9290   6.830  17.756   7.350 -0.1430 -0.0002  0.2348
  581loPI   C5A 9291   6.993  17.483   7.075  0.2504  0.1165 -0.2919
  581loPI   C6A 9292   7.109  17.270   6.712  0.0391  0.1448 -0.1143
  581loPI   C1B 9293   6.643  18.363   8.549 -0.1801 -0.1092 -0.0871
  581loPI   C2B 9294   6.395  18.315   8.207  0.1531  0.2193  0.0399
  581loPI   C3B 9295   6.061  18.308   8.196 -0.1350 -0.2467  0.1692
  581loPI   C4B 9296   5.622  18.218   8.380 -0.2096 -0.0087 -0.0201
  582loPI    C1 9297   5.746  17.877   9.190  0.0661 -0.2715  0.0092
  582loPI    C2 9298   5.677  17.962   8.805 -0.0495 -0.0671  0.0732
  582loPI    C3 9299   5.611  17.593   8.943 -0.2642 -0.0743 -0.0443
  582loPI   PO4 9300   5.932  18.020   9.241  0.0112  0.2081  0.0624
  582loPI   GL1 9301   6.256  18.147   8.890 -0.0015 -0.1040  0.0071
  582loPI   GL2 9302   6.102  18.259   8.685 -0.0911  0.0682 -0.0468
  582loPI   C1A 9303   6.494  17.881   8.541  0.0221 -0.3588  0.0167
  582loPI   C2A 9304   6.510  17.819   8.172  0.2773 -0.0379  0.1039
  582loPI   C3A 9305   6.463  17.954   7.726 -0.0018 -0.4818 -0.0418
  582loPI   C4A 9306   6.322  18.159   7.266  0.0523 -0.3925  0.1463
  582loPI   C5A 9307   6.296  17.957   6.924  0.0549  0.0294  0.2689
  582loPI   C6A 9308   6.105  17.732   6.535 -0.2525  0.1184  0.1032
  582loPI   C1B 9309   6.039  17.869   8.431 -0.3932 -0.1854 -0.1568
  582loPI   C2B 9310   5.890  17.818   8.054  0.3080 -0.2382 -0.1620
  582loPI   C3B 9311   6.192  17.637   7.904  0.1662 -0.0340 -0.0145
  582loPI   C4B 9312   6.633  17.515   7.800  0.3706  0.0497  0.3802
  583loPI    C1 9313   5.987  16.906   9.456 -0.0425 -0.0193  0.1611
  583loPI    C2 9314   6.215  17.198   9.605  0.0269  0.0019  0.0153
  583loPI    C3 9315   5.828  17.176   9.704 -0.0731  0.3733 -0.2732
  583loPI   PO4 9316   5.958  16.981   9.217  0.1734  0.2845  0.3449
  583loPI   GL1 9317   5.812  17.165   8.784 -0.0634  0.0047  0.1420
  583loPI   GL2 9318   5.555  17.118   8.836  0.0081  0.1925  0.0048
  583loPI   C1A 9319   6.139  16.985   8.604  0.1583  0.0337 -0.0654
  583loPI   C2A 9320   6.377  16.745   8.471  0.0371 -0.3461 -0.4769
  583loPI   C3A 9321   6.423  16.788   8.118 -0.1678  0.4528  0.4527
  583loPI   C4A 9322   6.263  16.597   7.752 -0.0373 -0.1003 -0.1536
  583loPI   C5A 9323   6.265  16.382   7.410  0.1507  0.1878  0.2592
  583loPI   C6A 9324   6.064  16.482   7.088 -0.1581 -0.3134  0.1370
  583loPI   C1B 9325   5.551  16.889   8.470  0.1115 -0.0288  0.2632
  583loPI   C2B 9326   5.363  16.994   7.981  0.1087  0.0400  0.0245
  583loPI   C3B 9327   5.152  17.054   7.644  0.2924  0.3028 -0.2295
  583loPI   C4B 9328   5.150  17.117   7.187 -0.0582  0.2606  0.0726
  584loPI    C1 9329  11.895   3.338   9.506  0.0587  0.0242  0.2224
  584loPI    C2 9330  11.937   3.368   9.903 -0.1213 -0.1370  0.2552
  584loPI    C3 9331  12.028   3.026   9.717 -0.3793 -0.1815  0.2063
  584loPI   PO4 9332  12.003   3.625   9.358  0.2237 -0.2585  0.0456
  584loPI   GL1 9333  12.045   3.701   8.868 -0.0465 -0.0102 -0.2188
  584loPI   GL2 9334  12.092   3.412   8.694  0.1686 -0.0492 -0.1309
  584loPI   C1A 9335  12.053   3.833   8.480  0.2536 -0.0957  0.0349
  584loPI   C2A 9336  11.849   3.955   8.171 -0.1003  0.0473 -0.3294
  584loPI   C3A 9337  11.566   4.271   7.868 -0.2677 -0.4253 -0.0767
  584loPI   C4A 9338  11.617   4.704   7.775  0.0570  0.1010 -0.3784
  584loPI   C5A 9339  11.970   4.931   7.846  0.0376  0.0795  0.0922
  584loPI   C6A 9340  12.295   5.139   7.693 -0.2481  0.0679 -0.1358
  584loPI   C1B 9341  12.150   3.368   8.278  0.0870 -0.0128  0.0184
  584loPI   C2B 9342  12.198   3.599   7.966  0.0388  0.2122 -0.1228
  584loPI   C3B 9343  11.991   3.837   7.659  0.1408  0.1432  0.0281
  584loPI   C4B 9344  11.770   3.684   7.390 -0.0217 -0.0486  0.0607
  585loPI    C1 9345  17.443  19.364   9.538 -0.0828 -0.0673 -0.0783
  585loPI    C2 9346  17.084  19.282   9.693  0.0323 -0.2474  0.0987
  585loPI    C3 9347  17.344  19.505   9.899  0.0584 -0.1971  0.0121
  585loPI   PO4 9348  17.381  19.439   9.336 -0.3185 -0.2434 -0.0615
  585loPI   GL1 9349  17.286  19.439   8.845 -0.0967  0.1166  0.2423
  585loPI   GL2 9350  17.112  19.675   8.780  0.2353  0.1833 -0.0265
  585loPI   C1A 9351  16.867  19.247   8.636  0.0731 -0.4687 -0.1063
  585loPI   C2A 9352  16.614  19.308   8.251 -0.1544  0.0306  0.2344
  585loPI   C3A 9353  16.486  19.373   7.837 -0.1781 -0.0682  0.2582
  585loPI   C4A 9354  16.311  19.723   7.514 -0.0028 -0.2171  0.3608
  585loPI   C5A 9355  16.134  19.605   7.097 -0.2850 -0.3271 -0.2336
  585loPI   C6A 9356  15.741  19.395   6.824  0.2127  0.0697  0.2013
  585loPI   C1B 9357  17.043  19.695   8.312 -0.1003  0.1807  0.5934
  585loPI   C2B 9358  16.753  19.823   7.991  0.5425 -0.0961  0.0785
  585loPI   C3B 9359  16.649  20.045   7.623  0.0373 -0.3050 -0.0394
  585loPI   C4B 9360  16.742  20.414   7.267  0.2361 -0.0064  0.1047
  586loPI    C1 9361  11.117  16.834   9.251 -0.1349  0.0556  0.0628
  586loPI    C2 9362  11.323  16.797   9.592 -0.0438  0.0579  0.0082
  586loPI    C3 9363  11.490  16.689   9.245 -0.1379  0.0514 -0.0352
  586loPI   PO4 9364  11.026  17.107   9.267  0.1236  0.1703 -0.2217
  586loPI   GL1 9365  10.898  17.447   8.960  0.1799  0.1907  0.0583
  586loPI   GL2 9366  11.193  17.375   8.866 -0.0114  0.0713 -0.1845
  586loPI   C1A 9367  10.685  17.415   8.494 -0.1771 -0.0324  0.1083
  586loPI   C2A 9368  10.697  17.346   7.997 -0.0022  0.1011  0.1785
  586loPI   C3A 9369  10.866  16.932   7.729 -0.1740 -0.0452 -0.1590
  586loPI   C4A 9370  10.945  16.666   7.507 -0.2064  0.2003  0.1809
  586loPI   C5A 9371  11.182  16.427   7.287  0.1474  0.1558 -0.0945
  586loPI   C6A 9372  11.507  16.199   7.238 -0.2693  0.1456  0.0537
  586loPI   C1B 9373  11.109  17.634   8.512  0.0316 -0.0755 -0.3773
  586loPI   C2B 9374  11.287  17.736   8.080 -0.0406  0.2285 -0.1694
  586loPI   C3B 9375  11.337  17.833   7.657  0.0648  0.2670  0.1502
  586loPI   C4B 9376  11.226  17.600   7.331 -0.0456  0.3247  0.2883
  587loPI    C1 9377  10.274   5.561   9.844 -0.1141  0.1242 -0.1524
  587loPI    C2 9378  10.281   5.511  10.240  0.2933 -0.0212 -0.1729
  587loPI    C3 9379  10.006   5.322  10.019  0.1376 -0.0312  0.0259
  587loPI   PO4 9380  10.471   5.461   9.729  0.2941 -0.0355  0.1174
  587loPI   GL1 9381  10.528   5.324   9.307  0.0054  0.1337 -0.3343
  587loPI   GL2 9382  10.736   5.660   9.293  0.0075 -0.0320  0.0195
  587loPI   C1A 9383  10.617   5.158   8.889  0.2374 -0.1743  0.0592
  587loPI   C2A 9384  10.620   5.176   8.525  0.1097  0.0776  0.0060
  587loPI   C3A 9385  10.728   5.127   8.060 -0.2592 -0.1284  0.3656
  587loPI   C4A 9386  11.093   5.295   7.852  0.0448 -0.0421 -0.3864
  587loPI   C5A 9387  11.190   5.160   7.391 -0.0993  0.1605 -0.0263
  587loPI   C6A 9388  11.570   4.893   7.307 -0.0791 -0.1899  0.1801
  587loPI   C1B 9389  10.482   5.697   8.982  0.0815  0.2660  0.0519
  587loPI   C2B 9390  10.346   5.735   8.549  0.1264 -0.0564  0.1600
  587loPI   C3B 9391  10.185   5.590   8.261 -0.1536  0.0035 -0.0005
  587loPI   C4B 9392   9.954   5.785   7.998  0.4056 -0.3483 -0.3873
  588loPI    C1 9393  18.841   9.465  10.346  0.2030  0.0608 -0.1215
  588loPI    C2 9394  19.028   9.137  10.479  0.0635  0.0197 -0.0239
  588loPI    C3 9395  19.103   9.493  10.647  0.0517  0.0027  0.0173
  588loPI   PO4 9396  18.889   9.439  10.024 -0.1690  0.0436  0.0654
  588loPI   GL1 9397  18.805   9.221   9.601 -0.1284  0.2382 -0.0115
  588loPI   GL2 9398  18.606   9.352   9.361  0.1580  0.2334  0.2158
  588loPI   C1A 9399  19.095   9.255   9.236 -0.0612 -0.1151 -0.0810
  588loPI   C2A 9400  18.979   9.406   8.784  0.1928  0.0229  0.3038
  588loPI   C3A 9401  18.869   9.553   8.356 -0.0821  0.3575 -0.1351
  588loPI   C4A 9402  18.936   9.616   7.912  0.1704 -0.1855  0.1351
  588loPI   C5A 9403  18.744   9.949   7.695 -0.2090  0.1628  0.0446
  588loPI   C6A 9404  18.822  10.406   7.759  0.1708  0.1807  0.1953
  588loPI   C1B 9405  18.563   9.189   8.970  0.2459  0.3331  0.0662
  588loPI   C2B 9406  18.541   9.250   8.632  0.2615  0.1384  0.3613
  588loPI   C3B 9407  18.631   9.134   8.270  0.2203  0.1909 -0.0386
  588loPI   C4B 9408  18.846   9.093   7.940 -0.1187  0.2656  0.0618
  589loPI    C1 9409  11.514  17.186   9.412  0.1183 -0.3201  0.1102
  589loPI    C2 9410  11.584  17.564   9.525 -0.3196 -0.0801 -0.3734
  589loPI    C3 9411  11.491  17.286   9.799  0.4155  0.0523  0.0374
  589loPI   PO4 9412  11.563  17.211   9.140 -0.0306 -0.0724  0.0533
  589loPI   GL1 9413  11.527  16.851   8.783  0.1870  0.1592 -0.3581
  589loPI   GL2 9414  11.329  16.571   8.797  0.0274  0.2863 -0.0979
  589loPI   C1A 9415  11.162  16.983   8.571 -0.3832  0.1473 -0.1332
  589loPI   C2A 9416  11.145  17.220   8.092 -0.0990  0.1403  0.2319
  589loPI   C3A 9417  11.207  17.339   7.762 -0.4459  0.0979  0.2358
  589loPI   C4A 9418  11.276  17.096   7.445  0.2077  0.3644 -0.1688
  589loPI   C5A 9419  11.639  16.700   7.426  0.0553 -0.0217  0.1686
  589loPI   C6A 9420  12.084  16.530   7.418  0.3576  0.4047 -0.2019
  589loPI   C1B 9421  11.251  16.516   8.357 -0.0943  0.0512 -0.2013
  589loPI   C2B 9422  10.975  16.618   8.063 -0.0078 -0.1901  0.2241
  589loPI   C3B 9423  10.544  16.469   7.827  0.0462 -0.2455  0.1426
  589loPI   C4B 9424  10.238  16.537   7.575  0.3640  0.2692 -0.1949
  590loPI    C1 9425  19.390   9.125  10.169  0.0698  0.0180 -0.0017
  590loPI    C2 9426  19.365   9.523  10.204  0.0909  0.0184  0.0089
  590loPI    C3 9427  19.721   9.342  10.228  0.0785 -0.0035  0.0291
  590loPI   PO4 9428  19.271   9.069   9.875  0.0563 -0.4775  0.0883
  590loPI   GL1 9429  19.465   9.099   9.506  0.1965 -0.1636 -0.2454
  590loPI   GL2 9430  19.457   8.843   9.387  0.0789 -0.3631 -0.1314
  590loPI   C1A 9431  19.653   9.397   9.248 -0.1632 -0.0128  0.1875
  590loPI   C2A 9432  19.922   9.542   8.932  0.0734  0.0148  0.3473
  590loPI   C3A 9433  19.974   9.322   8.603  0.1224  0.3721 -0.1622
  590loPI   C4A 9434  19.618   9.065   8.337 -0.0124  0.0214 -0.0081
  590loPI   C5A 9435  19.582   8.833   7.980 -0.0046 -0.1258 -0.0821
  590loPI   C6A 9436  19.656   8.658   7.481  0.2168 -0.5780  0.2191
  590loPI   C1B 9437  19.088   8.778   9.157  0.0759  0.0049 -0.3239
  590loPI   C2B 9438  18.970   8.925   8.828 -0.2826 -0.3033 -0.0951
  590loPI   C3B 9439  19.133   9.053   8.387 -0.0180 -0.1848 -0.0324
  590loPI   C4B 9440  19.264   9.359   8.119  0.3086  0.2102  0.1312
  591loPI    C1 9441   2.026  14.139   9.469  0.1478  0.0199 -0.1481
  591loPI    C2 9442   2.023  13.741   9.507 -0.1110  0.0327 -0.0082
  591loPI    C3 9443   1.716  13.957   9.643 -0.1065  0.2583 -0.3427
  591loPI   PO4 9444   2.027  14.185   9.171 -0.0989  0.4341 -0.3426
  591loPI   GL1 9445   2.161  13.902   8.887 -0.0987  0.1350  0.1800
  591loPI   GL2 9446   1.961  13.747   8.735  0.3511  0.1304 -0.0189
  591loPI   C1A 9447   2.410  14.035   8.443 -0.0589 -0.0150 -0.1801
  591loPI   C2A 9448   2.651  14.102   8.003  0.0321  0.1650 -0.2959
  591loPI   C3A 9449   2.606  14.338   7.550 -0.0892 -0.2114 -0.1908
  591loPI   C4A 9450   2.261  14.329   7.326 -0.3700  0.1663  0.0072
  591loPI   C5A 9451   2.229  14.615   7.049  0.1857  0.2513 -0.0909
  591loPI   C6A 9452   2.210  14.913   6.988 -0.1608  0.1763  0.0173
  591loPI   C1B 9453   2.098  13.641   8.243 -0.0432  0.2542  0.1080
  591loPI   C2B 9454   2.240  13.475   7.829  0.2780 -0.3195 -0.1441
  591loPI   C3B 9455   2.126  13.322   7.356 -0.2202 -0.1841  0.1049
  591loPI   C4B 9456   2.280  13.333   6.861  0.1819 -0.0317  0.2324
  592loPI    C1 9457  15.733   6.587   9.490 -0.0834 -0.0164 -0.1833
  592loPI    C2 9458  15.378   6.755   9.562 -0.1321 -0.2273  0.0837
  592loPI    C3 9459  15.706   6.983   9.540 -0.2574 -0.0513  0.0120
  592loPI   PO4 9460  15.644   6.394   9.288 -0.0039  0.0158  0.0493
  592loPI   GL1 9461  15.684   6.340   8.807 -0.3678  0.1602  0.0328
  592loPI   GL2 9462  15.998   6.408   8.494  0.1687  0.1004 -0.1112
  592loPI   C1A 9463  15.388   6.369   8.499 -0.0619  0.0360 -0.1793
  592loPI   C2A 9464  15.297   6.594   8.176 -0.1428 -0.1658  0.0668
  592loPI   C3A 9465  15.673   6.711   7.847  0.0247 -0.1477 -0.3022
  592loPI   C4A 9466  15.980   7.022   7.725 -0.0552 -0.3304 -0.0914
  592loPI   C5A 9467  15.886   7.122   7.236  0.0624 -0.1110  0.1338
  592loPI   C6A 9468  15.899   6.998   6.818 -0.0582 -0.0299 -0.5383
  592loPI   C1B 9469  15.814   6.278   8.070  0.1295  0.2200  0.1377
  592loPI   C2B 9470  16.044   5.975   7.781 -0.1383 -0.2338  0.0372
  592loPI   C3B 9471  16.351   5.643   7.587  0.4098 -0.1185  0.0368
  592loPI   C4B 9472  16.417   5.628   7.104  0.3949  0.3401 -0.0704
  593loPI    C1 9473   7.339  11.755   9.492  0.0168 -0.2338  0.0741
  593loPI    C2 9474   7.334  11.978   9.824 -0.1110 -0.0137 -0.0724
  593loPI    C3 9475   7.320  11.579   9.850  0.3797 -0.0208  0.2046
  593loPI   PO4 9476   7.145  11.974   9.356  0.1764  0.0224 -0.0870
  593loPI   GL1 9477   6.944  12.188   8.959  0.1573  0.2397 -0.4859
  593loPI   GL2 9478   6.820  11.948   8.989  0.0167  0.0422  0.0702
  593loPI   C1A 9479   7.337  12.189   8.641  0.1940  0.0928  0.1520
  593loPI   C2A 9480   7.457  12.093   8.236  0.0908  0.1221 -0.1894
  593loPI   C3A 9481   7.665  11.887   7.879  0.1967 -0.0276 -0.5440
  593loPI   C4A 9482   7.749  11.525   7.679  0.0155 -0.2929  0.2358
  593loPI   C5A 9483   7.845  11.337   7.316 -0.1127 -0.2492  0.3126
  593loPI   C6A 9484   8.201  11.047   7.320  0.0398 -0.0643  0.2565
  593loPI   C1B 9485   6.667  11.653   8.686  0.0292 -0.1001 -0.2336
  593loPI   C2B 9486   6.616  11.558   8.346 -0.0692 -0.1446 -0.0252
  593loPI   C3B 9487   6.578  11.604   7.997 -0.3024 -0.1359 -0.1176
  593loPI   C4B 9488   6.722  11.587   7.586  0.3738 -0.3808 -0.0261
  594loPI    C1 9489   0.195   6.443  10.024  0.0981  0.1867 -0.2234
  594loPI    C2 9490   0.558   6.288   9.957  0.1135  0.0511  0.1532
  594loPI    C3 9491   0.351   6.181  10.283 -0.3146  0.0414 -0.1142
  594loPI   PO4 9492   0.057   6.508   9.760  0.2574  0.5738 -0.2553
  594loPI   GL1 9493  -0.030   6.676   9.446 -0.3701  0.1386  0.1903
  594loPI   GL2 9494   0.058   6.982   9.421 -0.2233 -0.2214 -0.1697
  594loPI   C1A 9495   0.165   6.631   8.963 -0.2936  0.2313  0.2031
  594loPI   C2A 9496   0.328   6.737   8.502 -0.0603  0.2404  0.0180
  594loPI   C3A 9497   0.484   6.539   8.014 -0.0549 -0.2951 -0.0443
  594loPI   C4A 9498   0.416   6.284   7.610  0.4622 -0.2447 -0.1614
  594loPI   C5A 9499   0.206   5.912   7.425  0.0629 -0.2814 -0.5686
  594loPI   C6A 9500   0.013   5.618   7.736 -0.0609  0.3333  0.2618
  594loPI   C1B 9501  -0.290   6.805   9.019  0.3316 -0.2684  0.0443
  594loPI   C2B 9502  -0.121   6.529   8.617  0.2743  0.0541 -0.1005
  594loPI   C3B 9503   0.022   6.451   8.122 -0.3241  0.1784 -0.0373
  594loPI   C4B 9504   0.095   6.711   7.783 -0.1840 -0.1831 -0.0322
  595loPI    C1 9505   4.520   7.889   9.318  0.3653 -0.1981  0.0875
  595loPI    C2 9506   4.666   7.884   9.690 -0.2171  0.1984  0.3366
  595loPI    C3 9507   4.271   7.888   9.631 -0.1362 -0.0457 -0.2978
  595loPI   PO4 9508   4.782   7.628   9.255  0.1626  0.2782 -0.3056
  595loPI   GL1 9509   4.951   7.503   8.951  0.3462 -0.3272 -0.1112
  595loPI   GL2 9510   5.202   7.367   8.825  0.0751 -0.1641  0.0671
  595loPI   C1A 9511   5.067   7.863   8.643 -0.1318  0.2845 -0.3234
  595loPI   C2A 9512   5.018   7.926   8.220 -0.2640 -0.2463  0.2911
  595loPI   C3A 9513   4.905   7.750   7.788 -0.3051 -0.0287 -0.3813
  595loPI   C4A 9514   4.906   7.458   7.439  0.1071 -0.0357 -0.4930
  595loPI   C5A 9515   4.609   7.145   7.170 -0.4994 -0.1157  0.1050
  595loPI   C6A 9516   4.340   6.806   7.215  0.3944 -0.1605  0.0198
  595loPI   C1B 9517   5.032   7.335   8.413  0.3812  0.3072 -0.3534
  595loPI   C2B 9518   4.677   7.236   8.209  0.1387 -0.0052 -0.0689
  595loPI   C3B 9519   4.337   7.235   8.461  0.1591  0.1011 -0.1254
  595loPI   C4B 9520   3.907   7.408   8.602  0.2110 -0.1759 -0.2163
  596loPI    C1 9521   4.567  13.817   9.101 -0.1013 -0.1574  0.0994
  596loPI    C2 9522   4.883  13.578   9.157 -0.0713 -0.1307  0.0453
  596loPI    C3 9523   4.547  13.518   9.365 -0.0412 -0.1784  0.0803
  596loPI   PO4 9524   4.637  13.901   8.924 -0.1159  0.1792  0.2002
  596loPI   GL1 9525   4.684  13.927   8.504  0.1321  0.0867 -0.0348
  596loPI   GL2 9526   4.330  13.637   8.553 -0.0749 -0.3211 -0.0408
  596loPI   C1A 9527   4.569  13.883   8.087 -0.1394 -0.0142  0.0351
  596loPI   C2A 9528   4.403  13.761   7.720 -0.1354 -0.2296  0.0131
  596loPI   C3A 9529   4.305  13.845   7.298 -0.0540  0.5303  0.3047
  596loPI   C4A 9530   4.357  14.276   7.024  0.2326 -0.0154  0.0761
  596loPI   C5A 9531   3.935  14.411   6.756  0.0624 -0.1178 -0.0798
  596loPI   C6A 9532   3.499  14.425   6.879 -0.0351 -0.5563  0.1257
  596loPI   C1B 9533   4.682  13.403   8.287 -0.5336  0.1560  0.3809
  596loPI   C2B 9534   4.848  13.444   7.953  0.0394 -0.1884 -0.2544
  596loPI   C3B 9535   4.981  13.544   7.414 -0.0224 -0.3932  0.2053
  596loPI   C4B 9536   5.364  13.836   7.317  0.4099 -0.0345 -0.4407
  597loPI    C1 9537   0.284   0.604   9.508 -0.1738  0.0489 -0.0703
  597loPI    C2 9538   0.521   0.299   9.611  0.0219  0.2497  0.0861
  597loPI    C3 9539   0.291   0.475   9.886  0.0712  0.3812  0.0439
  597loPI   PO4 9540   0.389   0.645   9.253 -0.0358 -0.4162 -0.0818
  597loPI   GL1 9541   0.654   0.781   8.922  0.0446 -0.0617  0.0729
  597loPI   GL2 9542   0.944   0.945   8.821  0.1360 -0.0209 -0.1387
  597loPI   C1A 9543   0.600   0.809   8.468  0.0762 -0.2709 -0.2777
  597loPI   C2A 9544   0.672   0.871   8.083 -0.2542 -0.1211  0.2840
  597loPI   C3A 9545   0.632   0.954   7.684 -0.0438  0.1958 -0.2770
  597loPI   C4A 9546   0.821   1.204   7.254  0.1665  0.2992 -0.2520
  597loPI   C5A 9547   1.276   1.194   7.041 -0.2597 -0.0356  0.1355
  597loPI   C6A 9548   1.460   1.576   7.088 -0.4188  0.0200  0.3753
  597loPI   C1B 9549   0.844   1.240   8.454 -0.1909  0.1564  0.1691
  597loPI   C2B 9550   0.880   1.339   8.087  0.0060 -0.3115 -0.3269
  597loPI   C3B 9551   0.720   1.474   7.690  0.2759 -0.1183 -0.0253
  597loPI   C4B 9552   0.340   1.548   7.505  0.2057 -0.0176 -0.0754
  598loPI    C1 9553   3.721   1.569   9.358  0.0882  0.0413  0.1257
  598loPI    C2 9554   3.734   1.269   9.622 -0.2755 -0.2598 -0.1866
  598loPI    C3 9555   3.592   1.626   9.732 -0.0078 -0.2487  0.1396
  598loPI   PO4 9556   3.668   1.374   9.128 -0.4179  0.2319 -0.0579
  598loPI   GL1 9557   3.574   1.320   8.791 -0.0863 -0.1182 -0.0487
  598loPI   GL2 9558   3.685   1.022   8.759 -0.4627  0.3025 -0.0659
  598loPI   C1A 9559   3.371   1.333   8.458 -0.0371  0.1650 -0.1595
  598loPI   C2A 9560   3.167   1.380   8.125 -0.2029 -0.0657  0.2179
  598loPI   C3A 9561   2.965   1.564   7.736  0.1920  0.0485 -0.2669
  598loPI   C4A 9562   3.057   1.682   7.342  0.1687  0.0851 -0.1185
  598loPI   C5A 9563   3.025   1.621   6.908 -0.1168  0.1545 -0.0152
  598loPI   C6A 9564   2.942   1.252   6.727 -0.0328 -0.1030  0.1959
  598loPI   C1B 9565   4.037   1.286   8.488 -0.4614  0.0608  0.3142
  598loPI   C2B 9566   4.007   1.641   8.264  0.1213 -0.1690  0.1301
  598loPI   C3B 9567   3.886   1.982   7.942 -0.2179  0.3201 -0.2382
  598loPI   C4B 9568   3.923   2.051   7.436 -0.1050 -0.0093  0.0345
  599loPI    C1 9569   1.799  17.643   9.474 -0.1942  0.0733  0.1297
  599loPI    C2 9570   1.989  17.975   9.590 -0.0807 -0.0338  0.2530
  599loPI    C3 9571   1.874  17.705   9.862 -0.2254 -0.0679  0.1590
  599loPI   PO4 9572   1.860  17.667   9.195 -0.1848  0.1750  0.2345
  599loPI   GL1 9573   1.651  17.466   8.787 -0.2630  0.0663  0.4119
  599loPI   GL2 9574   1.702  17.759   8.707 -0.0683  0.1796 -0.0558
  599loPI   C1A 9575   1.339  17.178   8.463 -0.2460  0.0896  0.2449
  599loPI   C2A 9576   1.025  16.937   8.216 -0.3006  0.1363 -0.6107
  599loPI   C3A 9577   1.016  16.836   7.893 -0.0453 -0.0242  0.0290
  599loPI   C4A 9578   1.061  16.953   7.460  0.0716 -0.0918 -0.3289
  599loPI   C5A 9579   0.981  17.026   7.129  0.0144 -0.2245 -0.1859
  599loPI   C6A 9580   0.787  17.212   6.832  0.1356  0.1132  0.2322
  599loPI   C1B 9581   1.456  17.795   8.373 -0.1161 -0.0649 -0.1958
  599loPI   C2B 9582   1.350  17.554   8.030 -0.2402 -0.1964  0.0309
  599loPI   C3B 9583   1.420  17.127   7.909 -0.1471  0.4148  0.0762
  599loPI   C4B 9584   1.700  16.895   8.120 -0.1668  0.0634  0.1211
  600loPI    C1 9585  18.572  19.371   9.853 -0.1235 -0.0505 -0.0238
  600loPI    C2 9586  18.309  19.602  10.047  0.1452 -0.0366  0.3344
  600loPI    C3 9587  18.351  19.217  10.149  0.1140 -0.0943  0.1332
  600loPI   PO4 9588  18.551  19.619   9.616  0.0177 -0.1542 -0.0261
  600loPI   GL1 9589  18.644  19.976   9.140  0.2349  0.0559 -0.1008
  600loPI   GL2 9590  18.967  20.086   9.069  0.0496 -0.2528 -0.2178
  600loPI   C1A 9591  18.643  19.984   8.689 -0.1134  0.0850 -0.2001
  600loPI   C2A 9592  18.634  19.957   8.255  0.3256  0.0300  0.0431
  600loPI   C3A 9593  18.806  19.968   7.897  0.1383  0.1109  0.1531
  600loPI   C4A 9594  18.886  20.178   7.548  0.2746  0.0440  0.2194
  600loPI   C5A 9595  18.933  20.122   7.171  0.1743  0.0564  0.1674
  600loPI   C6A 9596  19.065  20.163   6.843 -0.0860 -0.0389 -0.3158
  600loPI   C1B 9597  19.065  20.197   8.588 -0.1473  0.2657 -0.0420
  600loPI   C2B 9598  19.211  20.490   8.310  0.0293  0.3035  0.1539
  600loPI   C3B 9599  19.572  20.868   8.248  0.4140 -0.2581  0.3400
  600loPI   C4B 9600  19.979  20.899   8.048 -0.0118  0.2621  0.1465
  601loPI    C1 9601   8.218  16.832   9.629  0.3574 -0.2259  0.1151
  601loPI    C2 9602   7.851  16.808   9.784  0.2274  0.2858 -0.0926
  601loPI    C3 9603   8.169  16.826  10.026  0.1371 -0.3088  0.0879
  601loPI   PO4 9604   8.115  16.924   9.361 -0.0757  0.2345  0.0322
  601loPI   GL1 9605   8.209  17.144   8.949 -0.2213  0.0287 -0.0894
  601loPI   GL2 9606   8.441  17.042   9.003 -0.1775 -0.1312  0.1249
  601loPI   C1A 9607   8.235  16.987   8.440  0.0395 -0.6287  0.1233
  601loPI   C2A 9608   8.295  17.016   8.071  0.0828  0.3431  0.0456
  601loPI   C3A 9609   8.606  17.155   7.781  0.3828  0.2087  0.0941
  601loPI   C4A 9610   8.769  17.219   7.317 -0.0902  0.1323  0.1470
  601loPI   C5A 9611   8.948  17.386   6.876 -0.1780 -0.2309  0.0020
  601loPI   C6A 9612   8.992  17.667   6.723 -0.1754  0.0911 -0.0389
  601loPI   C1B 9613   8.732  16.983   8.705  0.1518  0.0817 -0.0191
  601loPI   C2B 9614   8.885  16.891   8.399 -0.0203 -0.2246  0.1717
  601loPI   C3B 9615   8.647  16.679   8.063 -0.0505  0.0001 -0.0322
  601loPI   C4B 9616   8.655  16.335   7.753 -0.2281  0.0439  0.3455
  602loPI    C1 9617   0.953  18.703   9.617 -0.2262  0.0928 -0.0334
  602loPI    C2 9618   1.236  18.885   9.400 -0.0138 -0.2441 -0.0456
  602loPI    C3 9619   1.139  19.026   9.762 -0.0032  0.0153 -0.1423
  602loPI   PO4 9620   0.722  18.660   9.367  0.0021  0.1739 -0.1060
  602loPI   GL1 9621   0.977  18.613   9.031 -0.4678 -0.1692 -0.0610
  602loPI   GL2 9622   1.396  18.647   8.965  0.2437  0.0146 -0.1008
  602loPI   C1A 9623   0.835  18.316   8.804  0.1125  0.1303 -0.1377
  602loPI   C2A 9624   0.743  18.446   8.448 -0.0408 -0.1244 -0.1620
  602loPI   C3A 9625   0.890  18.455   8.054  0.1757 -0.0980  0.1473
  602loPI   C4A 9626   0.779  18.526   7.642 -0.1194  0.1592  0.0356
  602loPI   C5A 9627   0.719  18.415   7.222  0.0153  0.0589 -0.0645
  602loPI   C6A 9628   0.690  18.672   6.970  0.1905 -0.1489 -0.0138
  602loPI   C1B 9629   1.198  18.699   8.562  0.1698  0.0748  0.3004
  602loPI   C2B 9630   1.234  19.036   8.335 -0.3681 -0.0734  0.0249
  602loPI   C3B 9631   1.224  19.275   7.936  0.2241 -0.0604  0.1412
  602loPI   C4B 9632   1.247  19.269   7.504 -0.0069 -0.0143 -0.2127
  603loPI    C1 9633  16.170   3.128   9.833 -0.2247 -0.0688 -0.3692
  603loPI    C2 9634  16.315   3.474   9.696  0.0404  0.0512  0.1858
  603loPI    C3 9635  16.049   3.473   9.995  0.1611 -0.2278  0.2952
  603loPI   PO4 9636  16.275   2.982   9.540  0.0281  0.0410  0.2109
  603loPI   GL1 9637  16.181   2.768   9.120 -0.0034 -0.0685 -0.1682
  603loPI   GL2 9638  16.514   2.753   9.070  0.1168 -0.2878  0.0251
  603loPI   C1A 9639  16.121   2.483   8.736 -0.0105 -0.1682 -0.2076
  603loPI   C2A 9640  15.939   2.447   8.358  0.3035  0.1745  0.0710
  603loPI   C3A 9641  16.058   2.508   7.950 -0.0575 -0.0176  0.1675
  603loPI   C4A 9642  16.216   2.665   7.593  0.3309 -0.1250 -0.2967
  603loPI   C5A 9643  16.285   2.949   7.277  0.1064 -0.2683  0.2496
  603loPI   C6A 9644  15.978   2.947   6.911 -0.0297 -0.1560  0.0495
  603loPI   C1B 9645  16.386   3.120   8.722 -0.4532  0.1294 -0.2382
  603loPI   C2B 9646  16.398   3.239   8.380  0.2597  0.4179  0.1679
  603loPI   C3B 9647  16.449   3.363   8.041  0.4429  0.1211  0.1217
  603loPI   C4B 9648  16.596   3.448   7.617  0.1602  0.0301  0.0131
  604loPI    C1 9649   4.891   4.085   9.885 -0.0243  0.0804 -0.3912
  604loPI    C2 9650   4.992   4.365  10.152 -0.0331 -0.0349 -0.2657
  604loPI    C3 9651   5.218   4.038  10.112 -0.2314 -0.1890 -0.1416
  604loPI   PO4 9652   4.891   4.172   9.646 -0.1763  0.0784 -0.3406
  604loPI   GL1 9653   5.005   4.308   9.389  0.1874 -0.1596 -0.4721
  604loPI   GL2 9654   5.227   4.540   9.263  0.2507  0.1267 -0.1301
  604loPI   C1A 9655   5.022   4.179   8.998  0.0438  0.0047 -0.0716
  604loPI   C2A 9656   5.062   3.952   8.548 -0.1132  0.0540  0.0595
  604loPI   C3A 9657   4.993   3.744   8.113  0.0443 -0.0175 -0.0728
  604loPI   C4A 9658   4.818   3.612   7.733 -0.2967  0.2971  0.0259
  604loPI   C5A 9659   4.983   3.672   7.350  0.2863  0.0980 -0.0806
  604loPI   C6A 9660   5.194   3.927   7.150  0.0200  0.0269  0.3697
  604loPI   C1B 9661   5.294   4.552   8.760 -0.2173 -0.1992 -0.0245
  604loPI   C2B 9662   5.443   4.368   8.385  0.2279 -0.2738  0.1174
  604loPI   C3B 9663   5.299   4.150   8.118 -0.1801 -0.2511  0.0369
  604loPI   C4B 9664   5.263   3.864   7.696  0.2294  0.1412  0.0660
  605loPI    C1 9665   7.826  13.839   9.425  0.1247  0.1142 -0.0480
  605loPI    C2 9666   7.437  13.757   9.378  0.1539 -0.0559 -0.0032
  605loPI    C3 9667   7.660  13.534   9.624  0.2464  0.1368  0.0904
  605loPI   PO4 9668   7.962  13.761   9.216 -0.1449 -0.3316 -0.0917
  605loPI   GL1 9669   7.946  13.966   8.722  0.0062 -0.2711 -0.1061
  605loPI   GL2 9670   7.907  14.306   8.622  0.0197  0.0255 -0.1296
  605loPI   C1A 9671   8.130  13.932   8.352 -0.0332 -0.0139 -0.1257
  605loPI   C2A 9672   8.348  14.116   8.076 -0.0254  0.3457  0.1094
  605loPI   C3A 9673   8.142  14.259   7.636  0.0757  0.1597 -0.2277
  605loPI   C4A 9674   7.749  14.192   7.440  0.0325  0.1923  0.2282
  605loPI   C5A 9675   7.394  14.089   7.169  0.2223  0.2916  0.0261
  605loPI   C6A 9676   7.221  13.810   6.929 -0.2880  0.0380  0.0684
  605loPI   C1B 9677   7.855  14.434   8.150 -0.0560 -0.2006  0.3621
  605loPI   C2B 9678   7.769  14.703   7.739  0.1840 -0.1170 -0.2946
  605loPI   C3B 9679   7.886  14.695   7.340 -0.1257  0.0336  0.0236
  605loPI   C4B 9680   8.067  14.340   7.028  0.0017  0.2522 -0.0277
  606loPI    C1 9681  11.512   7.123   9.908  0.0489 -0.0481  0.0704
  606loPI    C2 9682  11.366   7.456   9.742 -0.2450 -0.1082  0.2027
  606loPI    C3 9683  11.536   7.471  10.104 -0.0475 -0.0628  0.1091
  606loPI   PO4 9684  11.500   7.007   9.695  0.2821  0.0054  0.0027
  606loPI   GL1 9685  11.647   7.151   9.346  0.0772  0.0850  0.1633
  606loPI   GL2 9686  11.827   6.942   9.244 -0.0826  0.0101  0.1749
  606loPI   C1A 9687  11.434   7.425   8.961  0.0281  0.0216 -0.0049
  606loPI   C2A 9688  11.406   7.316   8.482 -0.0636 -0.3100  0.0833
  606loPI   C3A 9689  11.649   7.322   8.224 -0.0250  0.0914  0.0217
  606loPI   C4A 9690  11.380   7.233   7.803  0.2644 -0.3410 -0.1680
  606loPI   C5A 9691  11.082   6.953   7.597  0.0264 -0.0299  0.1126
  606loPI   C6A 9692  11.065   6.620   7.335  0.0870  0.1262  0.1389
  606loPI   C1B 9693  11.817   7.067   8.704 -0.0193  0.1933 -0.1575
  606loPI   C2B 9694  12.121   7.078   8.333  0.2759  0.3024 -0.0741
  606loPI   C3B 9695  12.371   6.905   8.052  0.2868  0.1132 -0.0824
  606loPI   C4B 9696  12.298   6.957   7.621 -0.0529  0.2755 -0.0862
  607loPI    C1 9697  16.050  15.337   9.429  0.0659  0.1140  0.1208
  607loPI    C2 9698  15.865  15.229   9.091  0.3524  0.2015 -0.0686
  607loPI    C3 9699  15.960  14.953   9.364  0.2458  0.1105 -0.1229
  607loPI   PO4 9700  16.251  15.456   9.320  0.2816  0.2839 -0.2685
  607loPI   GL1 9701  16.446  15.318   8.881 -0.3111  0.1358  0.0912
  607loPI   GL2 9702  16.871  15.071   8.844  0.2945 -0.0200  0.2085
  607loPI   C1A 9703  16.534  15.266   8.411 -0.2045 -0.1342 -0.0415
  607loPI   C2A 9704  16.643  15.177   7.951  0.4204  0.1982 -0.1188
  607loPI   C3A 9705  16.874  15.015   7.532  0.1824  0.1417  0.0971
  607loPI   C4A 9706  16.856  14.634   7.386  0.0140  0.2085 -0.0065
  607loPI   C5A 9707  17.290  14.470   7.100  0.2256 -0.0320 -0.1655
  607loPI   C6A 9708  17.248  14.257   6.670 -0.1590 -0.0390 -0.0528
  607loPI   C1B 9709  16.885  14.962   8.405 -0.4297  0.1690 -0.0175
  607loPI   C2B 9710  17.062  14.811   8.009  0.0568 -0.1866  0.1581
  607loPI   C3B 9711  17.269  14.624   7.648  0.2072  0.0563 -0.0202
  607loPI   C4B 9712  17.472  14.967   7.492  0.1090  0.3614  0.2647
  608loPI    C1 9713  12.566  18.354   9.596 -0.1055  0.0479  0.0091
  608loPI    C2 9714  12.513  17.982   9.734  0.1952 -0.0343 -0.0899
  608loPI    C3 9715  12.424  18.296   9.966  0.0161 -0.1669  0.0238
  608loPI   PO4 9716  12.505  18.336   9.312  0.2945  0.1633  0.1977
  608loPI   GL1 9717  12.678  18.625   8.926 -0.1109  0.0313 -0.1608
  608loPI   GL2 9718  12.448  18.708   8.644 -0.0271  0.0552  0.1189
  608loPI   C1A 9719  12.994  18.458   8.598  0.0956 -0.0219  0.0177
  608loPI   C2A 9720  12.929  18.492   8.282 -0.2123  0.2020  0.1563
  608loPI   C3A 9721  12.813  18.296   7.955 -0.0312 -0.3409 -0.3174
  608loPI   C4A 9722  12.558  18.176   7.602 -0.1395 -0.0395 -0.1277
  608loPI   C5A 9723  12.491  18.129   7.167  0.3170  0.0847 -0.1344
  608loPI   C6A 9724  12.333  18.264   6.850 -0.4507  0.0873  0.0522
  608loPI   C1B 9725  12.413  18.802   8.173 -0.1295  0.0969  0.1872
  608loPI   C2B 9726  12.303  19.069   7.795 -0.2443  0.2831  0.1044
  608loPI   C3B 9727  12.285  19.369   7.572  0.0357  0.0625 -0.1161
  608loPI   C4B 9728  12.196  19.667   7.156  0.1226  0.0935 -0.3098
  609POPI    C1 9729   0.234   7.343  10.009  0.2342 -0.0117  0.1924
  609POPI    C2 9730   0.197   6.951   9.938  0.1438  0.0373 -0.0404
  609POPI    C3 9731   0.471   7.082  10.199 -0.1584 -0.2130  0.4172
  609POPI   PO4 9732   0.215   7.411   9.729  0.0034  0.0056  0.0238
  609POPI   GL1 9733   0.301   7.635   9.303  0.1194 -0.2790  0.0011
  609POPI   GL2 9734   0.642   7.670   9.174 -0.0319 -0.1682 -0.4077
  609POPI   C1A 9735   0.174   7.779   8.754 -0.3122 -0.3074 -0.3150
  609POPI   D2A 9736   0.341   7.686   8.395  0.1790 -0.4886  0.0143
  609POPI   C3A 9737   0.261   7.971   7.990 -0.0115 -0.2025 -0.2588
  609POPI   C4A 9738   0.028   8.188   7.631 -0.1294 -0.0838 -0.1371
  609POPI   C1B 9739   0.656   7.587   8.796  0.0076 -0.1017  0.2631
  609POPI   C2B 9740   0.806   7.523   8.338 -0.0972 -0.2353 -0.0049
  609POPI   C3B 9741   0.545   7.533   7.879 -0.1746 -0.0982  0.0610
  609POPI   C4B 9742   0.311   7.350   7.548  0.0322 -0.1369  0.2808
  610POPI    C1 9743   6.608  19.450   9.584 -0.3967 -0.2369  0.1503
  610POPI    C2 9744   6.674  19.844   9.577 -0.1933 -0.2717 -0.0135
  610POPI    C3 9745   6.382  19.694   9.805 -0.2730 -0.0272  0.0487
  610POPI   PO4 9746   6.603  19.452   9.272  0.0695 -0.1072 -0.3801
  610POPI   GL1 9747   6.716  19.669   8.792 -0.3910 -0.0443 -0.0519
  610POPI   GL2 9748   6.785  19.432   8.556 -0.0836 -0.3541 -0.2140
  610POPI   C1A 9749   6.574  20.063   8.651  0.0277  0.1227 -0.0044
  610POPI   D2A 9750   6.645  20.400   8.444 -0.0437  0.4110  0.1893
  610POPI   C3A 9751   6.854  20.525   8.004  0.0195 -0.2234 -0.0483
  610POPI   C4A 9752   6.718  20.618   7.600 -0.0230  0.0485  0.1342
  610POPI   C1B 9753   6.604  19.562   8.292  0.2762  0.1736 -0.2548
  610POPI   C2B 9754   6.494  19.546   7.801  0.0659  0.2251 -0.1366
  610POPI   C3B 9755   6.292  19.791   7.499 -0.0304 -0.1364  0.2895
  610POPI   C4B 9756   6.157  19.909   7.042 -0.1107 -0.0031 -0.0151
  611POPI    C1 9757   4.083   9.896   9.567 -0.0807  0.3748  0.2494
  611POPI    C2 9758   4.096   9.572   9.801 -0.0997  0.1396 -0.0687
  611POPI    C3 9759   3.851   9.875   9.892 -0.0229  0.1025  0.2752
  611POPI   PO4 9760   4.146   9.866   9.349  0.4720 -0.1299  0.1789
  611POPI   GL1 9761   4.036   9.718   8.945  0.2558 -0.2296  0.0901
  611POPI   GL2 9762   3.845  10.107   8.971 -0.1155  0.0677 -0.0890
  611POPI   C1A 9763   4.127   9.701   8.495  0.0029  0.0119 -0.1190
  611POPI   D2A 9764   3.968   9.737   8.043  0.1484  0.0103 -0.3601
  611POPI   C3A 9765   3.742   9.525   7.721  0.0202 -0.0616 -0.0489
  611POPI   C4A 9766   3.390   9.344   7.583 -0.3154  0.1092 -0.0003
  611POPI   C1B 9767   3.999  10.160   8.529  0.0327 -0.1696  0.0778
  611POPI   C2B 9768   4.072  10.309   8.025  0.1217 -0.1897 -0.0631
  611POPI   C3B 9769   4.143  10.149   7.619  0.1735 -0.0811  0.0104
  611POPI   C4B 9770   4.212   9.613   7.535  0.1577  0.0521 -0.3626
  612POPI    C1 9771   7.909  11.588   9.655  0.1433 -0.0469 -0.3055
  612POPI    C2 9772   8.091  11.933   9.743  0.1342 -0.0563 -0.2484
  612POPI    C3 9773   7.809  11.789   9.986  0.4069 -0.2970 -0.0677
  612POPI   PO4 9774   7.794  11.592   9.423  0.3772  0.1766 -0.3875
  612POPI   GL1 9775   7.767  11.513   9.075 -0.0472 -0.0705  0.0103
  612POPI   GL2 9776   7.592  11.312   9.040  0.1600 -0.0912  0.3376
  612POPI   C1A 9777   8.150  11.641   8.809  0.0706 -0.2409  0.1401
  612POPI   D2A 9778   8.460  11.679   8.392 -0.1641  0.1496 -0.2207
  612POPI   C3A 9779   8.372  11.838   7.958 -0.0004  0.1678  0.0224
  612POPI   C4A 9780   8.664  11.779   7.576  0.0252  0.0492  0.0953
  612POPI   C1B 9781   7.293  11.092   8.698  0.3825  0.1663 -0.1818
  612POPI   C2B 9782   7.403  10.905   8.410 -0.0542 -0.0114  0.0243
  612POPI   C3B 9783   7.641  10.863   7.986 -0.2177  0.2309 -0.0260
  612POPI   C4B 9784   7.939  11.080   7.820 -0.1662 -0.2208  0.0054
  613POPI    C1 9785  19.415   3.458   9.746 -0.0301  0.1719  0.1555
  613POPI    C2 9786  19.041   3.570   9.831 -0.1095  0.1142 -0.1096
  613POPI    C3 9787  19.347   3.727  10.035 -0.2737  0.1951  0.0785
  613POPI   PO4 9788  19.317   3.402   9.456  0.1156  0.0981  0.1096
  613POPI   GL1 9789  19.467   3.498   9.151  0.2429  0.1527  0.2790
  613POPI   GL2 9790  19.233   3.654   8.978 -0.0029 -0.0533 -0.0335
  613POPI   C1A 9791  19.592   3.369   8.704  0.1838 -0.0952 -0.0719
  613POPI   D2A 9792  19.892   3.213   8.465  0.0352  0.1492 -0.0220
  613POPI   C3A 9793  19.995   3.261   8.017 -0.1656  0.0875 -0.4124
  613POPI   C4A 9794  20.149   3.336   7.584  0.4137 -0.3159  0.1069
  613POPI   C1B 9795  19.260   3.893   8.645 -0.1251 -0.0609  0.1414
  613POPI   C2B 9796  19.136   3.834   8.268 -0.1491  0.0685  0.0812
  613POPI   C3B 9797  18.939   3.942   7.797 -0.1089  0.2450  0.0770
  613POPI   C4B 9798  18.509   3.845   7.641 -0.0551  0.0938  0.0069
  614POPI    C1 9799  11.039   1.313  10.114 -0.1150 -0.4356 -0.0196
  614POPI    C2 9800  11.296   1.251   9.814  0.1808  0.0463  0.1236
  614POPI    C3 9801  11.254   1.618   9.969 -0.2607 -0.1178  0.4110
  614POPI   PO4 9802  10.808   1.198   9.991  0.0390  0.0105  0.3289
  614POPI   GL1 9803  10.744   1.174   9.560 -0.0367  0.0970  0.1753
  614POPI   GL2 9804  10.547   1.092   9.324  0.1633 -0.0478  0.4041
  614POPI   C1A 9805  11.175   1.187   9.298 -0.2064 -0.1147  0.0925
  614POPI   D2A 9806  11.592   1.154   9.128  0.0214  0.1456  0.4118
  614POPI   C3A 9807  11.746   1.082   8.767 -0.0103 -0.0240  0.0397
  614POPI   C4A 9808  11.970   0.991   8.344  0.0985 -0.1701  0.3968
  614POPI   C1B 9809  10.776   1.192   8.987  0.0855  0.0516  0.0197
  614POPI   C2B 9810  10.789   1.504   8.645 -0.1222  0.0622  0.1621
  614POPI   C3B 9811  10.699   1.661   8.293  0.0204 -0.1192 -0.0347
  614POPI   C4B 9812  10.599   1.488   7.915  0.0574  0.1242  0.3071
  615POPI    C1 9813  16.733   0.506   9.497 -0.1898  0.0487 -0.0164
  615POPI    C2 9814  16.903   0.852   9.391 -0.0957 -0.0273 -0.1158
  615POPI    C3 9815  16.980   0.693   9.750 -0.1028  0.0317 -0.0880
  615POPI   PO4 9816  16.754   0.425   9.227  0.3103 -0.0115 -0.0269
  615POPI   GL1 9817  16.720   0.436   8.882  0.2654 -0.1221  0.0804
  615POPI   GL2 9818  16.614   0.127   8.870  0.2947  0.1737 -0.2118
  615POPI   C1A 9819  16.458   0.800   8.649  0.3077  0.1842  0.3699
  615POPI   D2A 9820  16.203   1.075   8.444 -0.1631 -0.2485 -0.4106
  615POPI   C3A 9821  15.837   0.941   8.316  0.1111 -0.0241 -0.0495
  615POPI   C4A 9822  15.591   0.683   8.576  0.1018  0.0505 -0.1065
  615POPI   C1B 9823  16.584   0.288   8.431  0.0724 -0.1697 -0.0218
  615POPI   C2B 9824  16.478   0.682   8.162 -0.2277 -0.0393  0.1052
  615POPI   C3B 9825  16.389   0.859   7.738 -0.0806  0.3243 -0.2436
  615POPI   C4B 9826  16.248   0.675   7.322  0.0941 -0.1384 -0.0890
  616POPI    C1 9827   8.203  18.499   9.598 -0.0994  0.1167  0.0121
  616POPI    C2 9828   8.358  18.639   9.939  0.0613  0.2060 -0.0967
  616POPI    C3 9829   8.016  18.790   9.798  0.0634  0.2610 -0.0436
  616POPI   PO4 9830   8.376  18.237   9.512  0.0462 -0.1646  0.2102
  616POPI   GL1 9831   8.384  18.026   9.105  0.0474 -0.0274 -0.1722
  616POPI   GL2 9832   8.758  18.053   9.036  0.0375 -0.2731  0.0312
  616POPI   C1A 9833   8.258  18.317   8.741  0.1426  0.1516 -0.0844
  616POPI   D2A 9834   7.995  18.677   8.652  0.2687  0.4289 -0.3170
  616POPI   C3A 9835   8.034  18.883   8.259  0.0211  0.1162 -0.0478
  616POPI   C4A 9836   7.991  18.955   7.814  0.1006  0.1314 -0.1400
  616POPI   C1B 9837   8.706  17.998   8.583  0.0779  0.0703  0.0108
  616POPI   C2B 9838   8.718  17.986   8.159  0.3132  0.1116  0.1362
  616POPI   C3B 9839   8.855  18.115   7.826 -0.1294  0.0237 -0.0751
  616POPI   C4B 9840   9.020  17.979   7.405  0.3491 -0.0895  0.1513
  617POPI    C1 9841   9.416   0.762   9.648  0.1983 -0.0913 -0.0286
  617POPI    C2 9842   9.256   0.425   9.794 -0.0775 -0.0287 -0.1796
  617POPI    C3 9843   9.058   0.638   9.519  0.0284  0.3344  0.0187
  617POPI   PO4 9844   9.704   0.683   9.596 -0.2250  0.0773 -0.0772
  617POPI   GL1 9845   9.807   0.939   9.234 -0.2047 -0.0504  0.1133
  617POPI   GL2 9846   9.778   1.346   9.104  0.2709  0.0045 -0.2271
  617POPI   C1A 9847   9.743   0.768   8.762 -0.0746 -0.0613 -0.0480
  617POPI   D2A 9848   9.724   0.642   8.401 -0.3087  0.1337  0.2410
  617POPI   C3A 9849   9.778   0.211   8.246 -0.2284  0.3152 -0.2238
  617POPI   C4A 9850   9.451  -0.062   8.249  0.2505  0.0697  0.4229
  617POPI   C1B 9851   9.904   1.229   8.716 -0.1969 -0.0468  0.0775
  617POPI   C2B 9852   9.712   1.171   8.373  0.4450 -0.0292 -0.1389
  617POPI   C3B 9853   9.731   0.938   7.973 -0.2332  0.1382 -0.0426
  617POPI   C4B 9854   9.840   0.476   7.839  0.1378  0.1607 -0.0337
  618POPI    C1 9855   9.680  17.463   9.512 -0.0224 -0.2460  0.0735
  618POPI    C2 9856   9.372  17.302   9.314  0.0339 -0.1534 -0.0909
  618POPI    C3 9857   9.746  17.183   9.234  0.0478 -0.2025  0.0458
  618POPI   PO4 9858   9.572  17.782   9.459 -0.0746 -0.3641 -0.0086
  618POPI   GL1 9859   9.371  17.930   9.050  0.1128 -0.0152  0.1021
  618POPI   GL2 9860   9.186  17.845   8.834 -0.3644  0.3503 -0.1646
  618POPI   C1A 9861   9.796  18.023   8.848 -0.2635 -0.0499 -0.0590
  618POPI   D2A 9862  10.140  18.247   8.734 -0.1783 -0.4772 -0.0145
  618POPI   C3A 9863  10.521  18.166   8.526 -0.3810 -0.3645  0.1638
  618POPI   C4A 9864  10.733  17.902   8.297  0.0953 -0.2402  0.0577
  618POPI   C1B 9865   9.292  18.185   8.616  0.1893  0.4961 -0.0164
  618POPI   C2B 9866   9.731  18.297   8.447 -0.1727  0.1389 -0.1703
  618POPI   C3B 9867   9.801  18.386   8.009 -0.1878  0.3208  0.2908
  618POPI   C4B 9868  10.054  18.512   7.629 -0.5569  0.1756 -0.0291
  619POPI    C1 9869   2.917  14.649   9.475  0.0696  0.0645  0.2440
  619POPI    C2 9870   2.872  15.017   9.625 -0.1587  0.1439 -0.0112
  619POPI    C3 9871   3.238  14.858   9.591 -0.0599  0.3400  0.1145
  619POPI   PO4 9872   2.825  14.657   9.251 -0.0512  0.3003 -0.0793
  619POPI   GL1 9873   2.855  14.686   8.872 -0.1711  0.3213 -0.0253
  619POPI   GL2 9874   2.689  14.299   8.837 -0.3983  0.1445  0.4414
  619POPI   C1A 9875   3.133  14.615   8.569 -0.2143  0.0231  0.1463
  619POPI   D2A 9876   3.260  14.398   8.230  0.0233 -0.0623  0.1787
  619POPI   C3A 9877   3.049  14.330   7.829  0.2920  0.1262  0.3323
  619POPI   C4A 9878   3.165  14.342   7.284  0.0625  0.2121 -0.1669
  619POPI   C1B 9879   2.879  14.022   8.474 -0.3137 -0.0694 -0.0877
  619POPI   C2B 9880   3.073  13.921   8.152  0.0273 -0.3039 -0.5570
  619POPI   C3B 9881   3.189  13.769   7.790 -0.1968 -0.1057 -0.1374
  619POPI   C4B 9882   3.417  13.925   7.329 -0.2498  0.0306  0.2750
  620POPI    C1 9883  17.574  16.961  10.055  0.0052  0.0550  0.1452
  620POPI    C2 9884  17.863  17.237  10.058  0.1415 -0.0827 -0.0824
  620POPI    C3 9885  17.906  16.900  10.270  0.0957 -0.0516 -0.0233
  620POPI   PO4 9886  17.591  17.001   9.745  0.0074  0.0605 -0.0420
  620POPI   GL1 9887  17.687  17.007   9.292 -0.1320 -0.1665  0.2832
  620POPI   GL2 9888  17.851  16.738   9.085 -0.0357  0.0820  0.0189
  620POPI   C1A 9889  17.508  17.129   8.863  0.1192  0.0229 -0.1185
  620POPI   D2A 9890  17.375  17.361   8.584  0.0042  0.0573  0.1006
  620POPI   C3A 9891  16.979  17.357   8.244  0.1542 -0.0143 -0.2064
  620POPI   C4A 9892  16.589  17.212   8.100  0.1150  0.1532 -0.1109
  620POPI   C1B 9893  18.067  16.969   8.809  0.2119 -0.3139 -0.2589
  620POPI   C2B 9894  18.143  17.088   8.265  0.0956 -0.0784 -0.0432
  620POPI   C3B 9895  18.181  17.531   8.097  0.0843  0.3032  0.0165
  620POPI   C4B 9896  18.184  17.727   7.699 -0.2042  0.1593 -0.2889
  621POPI    C1 9897   6.176   6.326   9.588  0.2360  0.2175  0.2239
  621POPI    C2 9898   6.221   6.018   9.840 -0.0779  0.0809  0.1189
  621POPI    C3 9899   6.164   6.388   9.983 -0.0950  0.0291  0.2474
  621POPI   PO4 9900   5.906   6.214   9.452  0.1777 -0.4746  0.1244
  621POPI   GL1 9901   5.936   6.078   9.046 -0.1024  0.2514 -0.0175
  621POPI   GL2 9902   5.625   6.071   8.992  0.3410  0.1620 -0.0183
  621POPI   C1A 9903   6.098   6.061   8.673 -0.1599 -0.3746 -0.0868
  621POPI   D2A 9904   6.231   6.118   8.290  0.0347 -0.0605  0.3674
  621POPI   C3A 9905   6.167   6.040   7.903  0.1083 -0.1787  0.1542
  621POPI   C4A 9906   6.055   5.616   7.687  0.5943 -0.5615 -0.0710
  621POPI   C1B 9907   5.647   6.175   8.560 -0.4611 -0.1326 -0.3145
  621POPI   C2B 9908   5.702   6.096   8.246 -0.2418  0.0938  0.3731
  621POPI   C3B 9909   5.529   5.804   8.005  0.2691  0.0815  0.1376
  621POPI   C4B 9910   5.126   5.766   7.691 -0.0794 -0.3194 -0.0884
  622POPI    C1 9911   3.739  15.450   9.435  0.1923 -0.0357  0.1084
  622POPI    C2 9912   3.453  15.366   9.703  0.1146 -0.0437  0.0233
  622POPI    C3 9913   3.768  15.588   9.810  0.0951 -0.0655  0.1273
  622POPI   PO4 9914   3.620  15.275   9.270  0.0363 -0.1806 -0.0221
  622POPI   GL1 9915   3.702  14.984   8.926 -0.2715  0.1099  0.1507
  622POPI   GL2 9916   3.883  15.139   8.749  0.0225 -0.1066  0.1663
  622POPI   C1A 9917   3.435  15.009   8.599  0.0280 -0.1491 -0.2648
  622POPI   D2A 9918   3.062  15.026   8.332 -0.0840  0.1721 -0.0056
  622POPI   C3A 9919   3.230  14.817   7.924  0.1181 -0.0289  0.2128
  622POPI   C4A 9920   3.511  15.096   7.894 -0.2823 -0.0806 -0.0444
  622POPI   C1B 9921   3.838  15.198   8.319 -0.1588 -0.0156 -0.2497
  622POPI   C2B 9922   4.101  15.033   8.004 -0.1531  0.0057 -0.1767
  622POPI   C3B 9923   4.439  14.727   7.813  0.2473 -0.2628  0.4015
  622POPI   C4B 9924   4.684  14.676   7.411  0.0579 -0.2594  0.0737
  623POPI    C1 9925  16.634   8.667   9.906  0.0088  0.2222  0.3057
  623POPI    C2 9926  16.928   8.521  10.134  0.1280  0.0516  0.0476
  623POPI    C3 9927  16.574   8.336  10.121  0.1129  0.0758  0.1123
  623POPI   PO4 9928  16.691   8.766   9.688 -0.0496  0.0089 -0.0200
  623POPI   GL1 9929  16.502   8.561   9.381 -0.2181 -0.1972  0.3445
  623POPI   GL2 9930  16.234   8.526   9.233  0.2766  0.0511 -0.0813
  623POPI   C1A 9931  16.603   8.329   9.052 -0.3760  0.4606  0.0735
  623POPI   D2A 9932  16.527   8.304   8.681 -0.0245 -0.1331  0.0529
  623POPI   C3A 9933  16.079   8.298   8.560  0.3490 -0.2024  0.1226
  623POPI   C4A 9934  15.984   8.320   8.068  0.0316  0.3582 -0.3870
  623POPI   C1B 9935  16.253   8.680   8.882  0.1376  0.2557  0.0649
  623POPI   C2B 9936  16.566   8.919   8.588  0.2359  0.1410  0.0296
  623POPI   C3B 9937  16.590   9.036   8.121  0.1111  0.0252  0.1935
  623POPI   C4B 9938  16.618   9.054   7.679  0.0975  0.0951 -0.0888
  624POPI    C1 9939   0.760   0.921   9.393  0.1011  0.1030 -0.0691
  624POPI    C2 9940   0.926   1.057   9.730 -0.1185  0.2968 -0.0362
  624POPI    C3 9941   0.656   0.762   9.745  0.1685  0.0264 -0.0837
  624POPI   PO4 9942   0.669   1.213   9.319 -0.0015  0.0675 -0.1445
  624POPI   GL1 9943   0.383   1.216   8.937  0.2904 -0.0337  0.2077
  624POPI   GL2 9944   0.391   1.184   8.637  0.3018 -0.1641  0.0582
  624POPI   C1A 9945   0.044   1.566   8.898 -0.0717  0.0812  0.3266
  624POPI   D2A 9946  -0.291   1.746   8.688 -0.2931  0.0846  0.0484
  624POPI   C3A 9947  -0.082   1.837   8.343 -0.1352 -0.1137 -0.2155
  624POPI   C4A 9948   0.320   1.803   7.993 -0.3835 -0.1048  0.0016
  624POPI   C1B 9949   0.324   1.568   8.491 -0.3101 -0.1670  0.0947
  624POPI   C2B 9950   0.267   2.026   8.557  0.1299 -0.1454 -0.0078
  624POPI   C3B 9951   0.325   2.243   8.170  0.1095 -0.1905  0.2694
  624POPI   C4B 9952   0.254   2.339   7.712 -0.2290 -0.0685 -0.3442
  625DPPI    C1 9953  17.240  17.850   9.889  0.1213  0.1455  0.1644
  625DPPI    C2 9954  17.457  17.558  10.056 -0.2207 -0.3238 -0.1853
  625DPPI    C3 9955  17.146  17.714  10.254  0.0791 -0.0493  0.0820
  625DPPI   PO4 9956  17.192  17.819   9.644  0.2532 -0.2618 -0.3006
  625DPPI   GL1 9957  17.229  17.611   9.170 -0.0018 -0.1276  0.3528
  625DPPI   GL2 9958  17.084  17.336   8.992 -0.2807 -0.0132 -0.1362
  625DPPI   C1A 9959  17.138  17.894   8.861  0.0487 -0.1324  0.1746
  625DPPI   C2A 9960  17.014  17.812   8.361  0.0118 -0.1691  0.0687
  625DPPI   C3A 9961  17.102  17.852   7.954 -0.1549  0.2679 -0.0717
  625DPPI   C4A 9962  17.199  17.702   7.598  0.1221 -0.2691 -0.0147
  625DPPI   C1B 9963  16.809  17.264   8.675  0.4213 -0.0290  0.1506
  625DPPI   C2B 9964  16.333  17.176   8.669 -0.2185  0.1352  0.1706
  625DPPI   C3B 9965  16.123  17.349   8.407  0.0014 -0.0269 -0.1091
  625DPPI   C4B 9966  16.140  17.484   8.055  0.0036 -0.0926  0.1424
  626DPPI    C1 9967  11.444   4.260   9.900 -0.2093  0.0788 -0.0303
  626DPPI    C2 9968  11.150   4.342  10.159 -0.1594  0.0914  0.0224
  626DPPI    C3 9969  11.415   4.625  10.061 -0.0093  0.0058  0.1754
  626DPPI   PO4 9970  11.318   4.074   9.602 -0.1801 -0.1857  0.0527
  626DPPI   GL1 9971  10.926   4.097   9.158 -0.0475  0.0036  0.0536
  626DPPI   GL2 9972  11.021   3.801   9.170  0.2500 -0.2670  0.1680
  626DPPI   C1A 9973  10.758   4.144   8.811  0.1082 -0.3510  0.0682
  626DPPI   C2A 9974  10.724   4.159   8.341  0.4047  0.1327  0.0507
  626DPPI   C3A 9975  10.629   4.176   7.886  0.1037  0.1730 -0.1986
  626DPPI   C4A 9976  10.728   4.396   7.441  0.1180 -0.1377  0.3662
  626DPPI   C1B 9977  11.009   3.783   8.651  0.0848  0.4064 -0.1411
  626DPPI   C2B 9978  10.917   3.742   8.131 -0.1334  0.4382 -0.0314
  626DPPI   C3B 9979  10.872   3.707   7.736 -0.1478  0.0405  0.4000
  626DPPI   C4B 9980  11.281   3.494   7.423 -0.0651 -0.0271 -0.0646
  627DPPI    C1 9981  16.608  12.572  10.163 -0.1731  0.0966 -0.1711
  627DPPI    C2 9982  16.704  12.187  10.115 -0.5061 -0.0026 -0.0705
  627DPPI    C3 9983  16.534  12.310  10.456 -0.0184  0.3158  0.0695
  627DPPI   PO4 9984  16.458  12.629   9.864 -0.3271  0.0040 -0.0262
  627DPPI   GL1 9985  16.443  12.330   9.567  0.2333 -0.0093 -0.0667
  627DPPI   GL2 9986  16.763  12.353   9.542 -0.2662  0.0530  0.0211
  627DPPI   C1A 9987  16.444  12.360   9.131  0.2174 -0.1080  0.4053
  627DPPI   C2A 9988  16.386  12.189   8.789  0.0727 -0.0420  0.1447
  627DPPI   C3A 9989  16.347  11.708   8.673  0.1528 -0.0079 -0.0303
  627DPPI   C4A 9990  16.635  11.286   8.763 -0.0751 -0.0624  0.2280
  627DPPI   C1B 9991  17.003  12.209   9.240 -0.2461  0.3048 -0.1141
  627DPPI   C2B 9992  17.308  12.161   8.857 -0.0444  0.0181  0.1279
  627DPPI   C3B 9993  17.315  11.972   8.460 -0.1204  0.0559  0.0842
  627DPPI   C4B 9994  17.005  12.074   8.118  0.0171  0.1829  0.1705
  628DPPI    C1 9995  17.516   2.736   9.849  0.1005  0.1805  0.0195
  628DPPI    C2 9996  17.292   2.772   9.519  0.2747 -0.0063 -0.1219
  628DPPI    C3 9997  17.275   3.052   9.804  0.0640  0.1170 -0.2527
  628DPPI   PO4 9998  17.756   2.624   9.742 -0.0812  0.2143 -0.1420
  628DPPI   GL1 9999  17.771   2.443   9.302 -0.1766 -0.2147 -0.1723
  628DPPI   GL210000  17.979   2.477   9.043 -0.0178 -0.0492 -0.0451
  628DPPI   C1A10001  17.712   2.132   8.922 -0.1310  0.0121  0.1054
  628DPPI   C2A10002  17.611   2.006   8.555 -0.1745 -0.2548  0.6417
  628DPPI   C3A10003  17.619   2.006   8.117  0.1427  0.2030  0.0623
  628DPPI   C4A10004  17.779   2.083   7.658  0.0813  0.0242 -0.0802
  628DPPI   C1B10005  17.926   2.509   8.580 -0.4363 -0.0900  0.2137
  628DPPI   C2B10006  18.006   2.407   8.188  0.3144 -0.0208 -0.0649
  628DPPI   C3B10007  18.241   2.310   7.795 -0.2165  0.0404  0.1451
  628DPPI   C4B10008  18.172   2.265   7.369 -0.3432 -0.4815  0.1527
  629DPPI    C110009  13.599   1.466   9.580 -0.0772  0.0554 -0.0203
  629DPPI    C210010  13.914   1.262   9.718  0.1595  0.4878  0.0955
  629DPPI    C310011  13.604   1.339   9.959 -0.0779 -0.0029 -0.0397
  629DPPI   PO410012  13.621   1.393   9.283  0.1051 -0.0423  0.1561
  629DPPI   GL110013  13.831   1.367   8.897 -0.0276 -0.2304 -0.0839
  629DPPI   GL210014  13.862   1.679   8.822  0.0775  0.0769 -0.3048
  629DPPI   C1A10015  13.625   1.550   8.447 -0.1865  0.2183  0.3627
  629DPPI   C2A10016  13.731   1.571   8.031  0.1150 -0.0717 -0.2171
  629DPPI   C3A10017  13.885   1.617   7.653 -0.1433  0.0408 -0.0871
  629DPPI   C4A10018  13.926   1.382   7.332  0.0089 -0.3832  0.0901
  629DPPI   C1B10019  14.168   1.598   8.574  0.1111  0.0436  0.3930
  629DPPI   C2B10020  14.140   1.735   8.160 -0.1766  0.1571 -0.0572
  629DPPI   C3B10021  14.143   2.002   7.901 -0.0725 -0.2745 -0.1758
  629DPPI   C4B10022  14.148   1.914   7.347  0.0236 -0.0331 -0.3148
  630DPPI    C110023   8.935  18.446   9.349 -0.1736 -0.1235  0.0295
  630DPPI    C210024   9.096  18.532   9.705  0.1404 -0.2488 -0.0785
  630DPPI    C310025   8.709  18.606   9.637  0.1192 -0.0610  0.2291
  630DPPI   PO410026   9.020  18.611   9.156 -0.0950  0.4303 -0.1674
  630DPPI   GL110027   8.945  18.697   8.808 -0.0863 -0.0748  0.1396
  630DPPI   GL210028   8.929  18.468   8.659 -0.1757 -0.0150 -0.1827
  630DPPI   C1A10029   8.905  19.041   8.413  0.0045 -0.1016 -0.0621
  630DPPI   C2A10030   9.170  19.121   8.043  0.4481  0.2571 -0.2056
  630DPPI   C3A10031   9.263  18.998   7.547 -0.1876  0.1963 -0.1162
  630DPPI   C4A10032   9.530  18.653   7.302 -0.0106  0.2601 -0.1188
  630DPPI   C1B10033   9.044  18.522   8.247  0.1739  0.3804 -0.1395
  630DPPI   C2B10034   8.909  18.707   7.960 -0.0745  0.3171  0.0570
  630DPPI   C3B10035   8.555  18.857   7.574 -0.2010 -0.2745  0.1510
  630DPPI   C4B10036   8.065  18.753   7.388 -0.1772 -0.0290  0.3855
  631DPPI    C110037  12.173  19.011   9.413 -0.1374  0.2094 -0.0631
  631DPPI    C210038  12.308  18.720   9.653 -0.0031  0.3110 -0.0137
  631DPPI    C310039  11.944  18.876   9.712  0.0778  0.4220  0.2035
  631DPPI   PO410040  12.184  18.849   9.108  0.2149  0.0304 -0.0399
  631DPPI   GL110041  11.946  18.737   8.766  0.0756  0.0953 -0.0869
  631DPPI   GL210042  12.012  19.093   8.686 -0.3010 -0.0768  0.3699
  631DPPI   C1A10043  12.002  18.558   8.371  0.4046 -0.0638  0.1404
  631DPPI   C2A10044  11.946  18.651   7.937 -0.2703  0.0372 -0.0198
  631DPPI   C3A10045  11.637  18.605   7.574 -0.0937  0.0308 -0.1123
  631DPPI   C4A10046  11.501  18.305   7.284  0.0869 -0.0204  0.1657
  631DPPI   C1B10047  11.937  19.098   8.273 -0.1668 -0.1139  0.0416
  631DPPI   C2B10048  11.816  19.378   8.096 -0.0887 -0.0979  0.2120
  631DPPI   C3B10049  11.992  19.643   7.761  0.0181 -0.1255  0.0526
  631DPPI   C4B10050  11.949  19.915   7.449  0.0574 -0.1030  0.1974
  632DPPI    C110051  13.059  10.189  10.472 -0.0208 -0.0599  0.0949
  632DPPI    C210052  13.444  10.086  10.503 -0.0058 -0.0969 -0.1837
  632DPPI    C310053  13.194  10.017  10.807  0.2433  0.0947  0.0710
  632DPPI   PO410054  12.972  10.040  10.223 -0.1911  0.1025  0.1664
  632DPPI   GL110055  12.893   9.949   9.806 -0.0135 -0.0498 -0.2151
  632DPPI   GL210056  12.544  10.019   9.852  0.0145 -0.1369 -0.3103
  632DPPI   C1A10057  12.950  10.132   9.492  0.5047  0.2164 -0.0696
  632DPPI   C2A10058  12.866  10.152   9.110  0.2732  0.1376  0.1762
  632DPPI   C3A10059  12.677   9.842   8.979  0.0485 -0.0391  0.3186
  632DPPI   C4A10060  12.249   9.767   8.986  0.2577  0.0131 -0.0499
  632DPPI   C1B10061  12.484  10.014   9.454  0.0449  0.2457 -0.1537
  632DPPI   C2B10062  12.369  10.264   9.177 -0.1693 -0.0314  0.1381
  632DPPI   C3B10063  12.385  10.180   8.687  0.2039  0.1961  0.0633
  632DPPI   C4B10064  12.392  10.331   8.159 -0.0446 -0.1804 -0.1555
  633DPPI    C110065   0.631   9.917   9.954  0.2065  0.2105  0.0217
  633DPPI    C210066   0.484   9.545   9.957 -0.0240  0.2942 -0.2912
  633DPPI    C310067   0.466   9.770  10.287  0.1540  0.0168 -0.0882
  633DPPI   PO410068   0.484  10.091   9.716  0.0282  0.0407 -0.1663
  633DPPI   GL110069   0.488  10.073   9.299  0.1334  0.2207  0.1415
  633DPPI   GL210070   0.297   9.743   9.442  0.0955 -0.0900 -0.2254
  633DPPI   C1A10071   0.505  10.000   8.892 -0.1785  0.1422  0.0127
  633DPPI   C2A10072   0.508   9.817   8.500 -0.0669  0.3023  0.1512
  633DPPI   C3A10073   0.168   9.706   8.241  0.4650 -0.0453  0.0341
  633DPPI   C4A10074   0.136   9.347   7.950  0.0088  0.0942  0.1362
  633DPPI   C1B10075   0.068   9.982   9.158  0.1583  0.0837  0.1650
  633DPPI   C2B10076   0.035   9.918   8.628 -0.0134 -0.2333  0.1501
  633DPPI   C3B10077  -0.121   9.498   8.632 -0.3070  0.0805  0.2287
  633DPPI   C4B10078  -0.180   9.148   8.924  0.1756  0.0695 -0.0771
  634DPPI    C110079  17.540  13.895   9.696 -0.1860 -0.0322  0.1724
  634DPPI    C210080  17.547  14.062  10.059  0.0867  0.0318  0.1398
  634DPPI    C310081  17.688  13.692  10.007  0.3101  0.1280  0.0494
  634DPPI   PO410082  17.576  14.045   9.442 -0.3368  0.1345 -0.1514
  634DPPI   GL110083  17.678  14.245   9.040 -0.0914 -0.1378  0.1698
  634DPPI   GL210084  17.828  14.464   9.249  0.2102  0.1867 -0.0732
  634DPPI   C1A10085  17.619  14.320   8.526 -0.1898  0.0459 -0.0657
  634DPPI   C2A10086  17.371  14.256   8.086 -0.0021 -0.1135  0.0225
  634DPPI   C3A10087  17.302  13.954   7.872 -0.1762 -0.1079  0.0693
  634DPPI   C4A10088  17.375  14.084   7.495  0.0644  0.0599 -0.4161
  634DPPI   C1B10089  17.757  14.666   8.861 -0.0687  0.1654  0.2531
  634DPPI   C2B10090  17.715  14.999   8.544 -0.3449  0.1094 -0.1390
  634DPPI   C3B10091  17.845  15.338   8.210  0.1488  0.3142  0.2056
  634DPPI   C4B10092  17.772  15.370   7.701  0.0496 -0.0041 -0.0802
  635PYPI    C110093  16.166   8.122   9.943  0.0704  0.0582  0.2289
  635PYPI    C210094  16.111   7.780   9.744 -0.0101  0.1818  0.0363
  635PYPI    C310095  15.959   7.824  10.111 -0.0225  0.0215  0.0511
  635PYPI   PO410096  16.205   8.300   9.740  0.1815  0.0165 -0.0815
  635PYPI   GL110097  16.152   8.041   9.386  0.2050 -0.3501 -0.1987
  635PYPI   GL210098  16.114   7.767   9.256  0.0165 -0.0739  0.0772
  635PYPI   C1A10099  15.941   8.147   9.041 -0.1819 -0.0282  0.0664
  635PYPI   C2A10100  15.681   7.889   8.875  0.0256  0.1149 -0.1770
  635PYPI   D3A10101  15.426   7.660   9.012 -0.3521 -0.2212 -0.2349
  635PYPI   C4A10102  15.153   7.824   9.239  0.0878 -0.4572  0.2013
  635PYPI   C1B10103  16.198   7.709   8.891  0.1207 -0.3383 -0.2983
  635PYPI   C2B10104  16.159   7.733   8.476 -0.3906  0.2590 -0.1421
  635PYPI   C3B10105  16.201   7.932   8.237  0.0757  0.2634 -0.1159
  635PYPI   C4B10106  16.337   8.045   7.871  0.2301 -0.1170 -0.0125
  636PYPI    C110107  16.403   9.118  10.092 -0.2312 -0.0236  0.2354
  636PYPI    C210108  16.640   9.276  10.373  0.1486 -0.1054 -0.0303
  636PYPI    C310109  16.597   8.879  10.348  0.1080 -0.0978 -0.0814
  636PYPI   PO410110  16.451   9.289   9.822 -0.0672 -0.0412 -0.3333
  636PYPI   GL110111  16.461   9.168   9.434 -0.1456 -0.0679 -0.3209
  636PYPI   GL210112  16.181   9.025   9.246  0.0316  0.0906  0.2967
  636PYPI   C1A10113  16.490   9.583   9.236 -0.2213  0.0778 -0.3149
  636PYPI   C2A10114  16.668   9.880   8.894 -0.1893 -0.0855  0.2378
  636PYPI   D3A10115  16.726  10.049   8.505 -0.2448 -0.3553 -0.0532
  636PYPI   C4A10116  16.408  10.214   8.205 -0.4585  0.0454  0.0185
  636PYPI   C1B10117  16.069   9.114   8.760  0.1670 -0.0664 -0.0926
  636PYPI   C2B10118  16.122   9.226   8.332 -0.0562  0.0821 -0.2491
  636PYPI   C3B10119  15.830   9.413   7.986 -0.0911  0.1714  0.2722
  636PYPI   C4B10120  15.465   9.710   8.007 -0.2329 -0.3257  0.0721
  637PYPI    C110121  15.714  17.172   9.464 -0.4253  0.1308 -0.0610
  637PYPI    C210122  15.705  17.200   9.863  0.0346 -0.0995 -0.0284
  637PYPI    C310123  15.579  16.866   9.683  0.1702 -0.1395 -0.0513
  637PYPI   PO410124  15.985  17.301   9.401  0.1321  0.1092 -0.0608
  637PYPI   GL110125  16.051  17.097   9.095 -0.0771 -0.0005 -0.3294
  637PYPI   GL210126  16.042  16.831   9.206 -0.3910 -0.0651 -0.0987
  637PYPI   C1A10127  15.846  17.090   8.695 -0.0670 -0.0479 -0.2804
  637PYPI   C2A10128  15.621  17.144   8.434 -0.2522 -0.0927  0.1667
  637PYPI   D3A10129  15.311  17.156   8.028 -0.0453  0.2105  0.1082
  637PYPI   C4A10130  15.103  17.572   7.850  0.2005 -0.1037  0.0161
  637PYPI   C1B10131  15.998  16.675   8.837 -0.1286  0.0752 -0.3418
  637PYPI   C2B10132  15.914  16.701   8.437 -0.0759  0.1420 -0.1334
  637PYPI   C3B10133  16.003  16.895   8.066 -0.2267  0.1326  0.1084
  637PYPI   C4B10134  16.099  17.007   7.680 -0.0601 -0.2825  0.2828
  638PYPI    C110135   8.727   6.029   9.672  0.0084  0.1496 -0.1845
  638PYPI    C210136   8.874   6.086  10.040 -0.2695 -0.1438 -0.0218
  638PYPI    C310137   8.575   6.316   9.907  0.1359  0.2695 -0.2478
  638PYPI   PO410138   8.881   5.863   9.532  0.0807 -0.1122  0.1746
  638PYPI   GL110139   8.927   6.000   9.135  0.0806 -0.0278  0.4903
  638PYPI   GL210140   9.160   6.243   9.192  0.1327 -0.1054  0.2617
  638PYPI   C1A10141   9.008   6.061   8.666 -0.0946 -0.0584  0.0631
  638PYPI   C2A10142   8.843   6.010   8.191 -0.1260  0.1358 -0.1970
  638PYPI   D3A10143   8.477   6.053   7.793 -0.1676  0.0548  0.0464
  638PYPI   C4A10144   8.558   5.897   7.430  0.0464 -0.1459  0.1069
  638PYPI   C1B10145   9.409   5.872   8.980 -0.0121 -0.0737  0.0636
  638PYPI   C2B10146   9.264   5.593   8.653  0.0142 -0.0815  0.0551
  638PYPI   C3B10147   9.206   5.468   8.324 -0.1985  0.2454 -0.0118
  638PYPI   C4B10148   9.331   5.263   7.853  0.0786 -0.0140 -0.2180
  639PYPI    C110149   9.226   1.682  10.139  0.2497 -0.0418 -0.0336
  639PYPI    C210150   9.194   2.050  10.292  0.1262 -0.0736  0.0181
  639PYPI    C310151   9.238   1.736  10.535 -0.2057 -0.1388 -0.0015
  639PYPI   PO410152   8.989   1.664   9.937  0.1804 -0.0722 -0.2335
  639PYPI   GL110153   8.923   1.680   9.448  0.1516 -0.4400 -0.0372
  639PYPI   GL210154   8.658   1.679   9.260 -0.1016 -0.0006  0.0664
  639PYPI   C1A10155   9.096   1.955   8.983  0.1567 -0.0167  0.1885
  639PYPI   C2A10156   9.124   2.006   8.515  0.0553  0.0634 -0.2416
  639PYPI   D3A10157   9.321   1.989   8.118  0.1085  0.0559  0.2935
  639PYPI   C4A10158   9.588   1.864   7.866  0.2190 -0.1020 -0.0250
  639PYPI   C1B10159   8.508   1.913   8.929  0.1273  0.2548 -0.0893
  639PYPI   C2B10160   8.590   1.947   8.461 -0.2124  0.1243 -0.0285
  639PYPI   C3B10161   8.522   2.053   8.035  0.1078  0.1753  0.0910
  639PYPI   C4B10162   8.614   1.991   7.504  0.0415 -0.0852 -0.3271
  640PYPI    C110163  12.247   6.640  10.067  0.2052  0.1183 -0.0026
  640PYPI    C210164  12.434   6.435  10.355 -0.3305 -0.1582  0.1612
  640PYPI    C310165  12.367   6.826  10.400 -0.0468 -0.1145  0.2231
  640PYPI   PO410166  12.438   6.590   9.884  0.2065  0.0012  0.2138
  640PYPI   GL110167  12.431   6.716   9.510  0.6669 -0.0302  0.2618
  640PYPI   GL210168  12.763   6.949   9.630  0.1024 -0.2764 -0.1687
  640PYPI   C1A10169  12.270   6.943   9.094 -0.1066  0.0813  0.2144
  640PYPI   C2A10170  12.470   6.863   8.701  0.0904  0.1674 -0.1514
  640PYPI   D3A10171  12.849   6.728   8.424 -0.0529  0.0613 -0.0464
  640PYPI   C4A10172  13.072   6.783   8.033  0.2960  0.0913  0.1382
  640PYPI   C1B10173  12.801   7.068   9.195 -0.0196 -0.0782 -0.0923
  640PYPI   C2B10174  12.899   7.100   8.751 -0.1989 -0.0798  0.1070
  640PYPI   C3B10175  12.770   7.185   8.301  0.0311 -0.1944  0.3877
  640PYPI   C4B10176  12.525   7.345   7.936 -0.0513  0.2387  0.2085
  641ERGO   ROH10177   9.612   3.845   9.625 -0.1312 -0.0727 -0.0724
  641ERGO    R110178   9.545   3.842   9.350 -0.3078  0.1974 -0.0353
  641ERGO    R210179   9.465   4.069   9.214  0.1711  0.4599  0.1024
  641ERGO    R310180   9.668   4.000   9.046 -0.0889  0.0132 -0.0458
  641ERGO    R410181   9.479   4.149   8.878  0.0940  0.4142  0.0878
  641ERGO    R510182   9.559   3.950   8.839 -0.3563  0.2313  0.0345
  641ERGO    C110183   9.678   4.131   8.525 -0.1950 -0.0316 -0.0601
  641ERGO    C210184   9.709   4.115   8.234  0.0545  0.2855 -0.1643
  642ERGO   ROH10185  14.194   2.642   9.052 -0.0558 -0.0989  0.1425
  642ERGO    R110186  14.075   2.725   8.809 -0.0352  0.0503  0.1828
  642ERGO    R210187  14.130   2.970   8.693  0.1492  0.0274  0.2192
  642ERGO    R310188  14.189   2.817   8.476 -0.0252  0.0182  0.1773
  642ERGO    R410189  14.095   3.072   8.364  0.0160  0.0633  0.2441
  642ERGO    R510190  14.019   2.873   8.316 -0.0882  0.0959  0.2704
  642ERGO    C110191  14.130   2.988   7.970 -0.2253  0.0754  0.2192
  642ERGO    C210192  14.187   3.043   7.647  0.0773 -0.4309 -0.0702
  643ERGO   ROH10193  17.145  15.385   9.182  0.1762 -0.1378  0.0347
  643ERGO    R110194  17.253  15.448   8.927 -0.0855  0.1422 -0.0116
  643ERGO    R210195  17.319  15.253   8.742  0.2507  0.3125 -0.0684
  643ERGO    R310196  17.155  15.398   8.580 -0.1545 -0.0164  0.0275
  643ERGO    R410197  17.302  15.221   8.399  0.2464  0.3854 -0.0762
  643ERGO    R510198  17.286  15.438   8.384 -0.2859  0.3725  0.0034
  643ERGO    C110199  17.139  15.337   8.046 -0.1364  0.1191  0.0094
  643ERGO    C210200  17.247  15.369   7.689  0.1901 -0.0870 -0.2065
  644ERGO   ROH10201   8.622  13.306   8.732 -0.2858 -0.1689 -0.0448
  644ERGO    R110202   8.566  13.383   8.465 -0.0617 -0.0907 -0.0740
  644ERGO    R210203   8.736  13.327   8.255 -0.0594 -0.3718 -0.0127
  644ERGO    R310204   8.514  13.214   8.147 -0.2008 -0.0312 -0.0806
  644ERGO    R410205   8.638  13.360   7.925 -0.0981  0.0401  0.0367
  644ERGO    R510206   8.432  13.379   7.993 -0.0585  0.1956  0.0896
  644ERGO    C110207   8.371  13.273   7.632 -0.2533  0.5994  0.0017
  644ERGO    C210208   8.542  13.037   7.337 -0.1545  0.0547 -0.2916
  645ERGO   ROH10209  18.928   2.455   8.598  0.3000  0.1654  0.1045
  645ERGO    R110210  19.123   2.493   8.396  0.3338 -0.0513  0.0915
  645ERGO    R210211  19.293   2.292   8.314  0.1231 -0.2434  0.0911
  645ERGO    R310212  19.194   2.353   8.068  0.1657 -0.1501  0.0983
  645ERGO    R410213  19.410   2.161   8.016  0.0684 -0.2350  0.0672
  645ERGO    R510214  19.387   2.358   7.926  0.1669 -0.2132  0.1066
  645ERGO    C110215  19.385   2.141   7.612  0.0763 -0.1425  0.0601
  645ERGO    C210216  19.473   1.847   7.345 -0.0878  0.2904  0.0824
  646ERGO   ROH10217   2.624   8.629   9.236  0.1563 -0.0032 -0.2495
  646ERGO    R110218   2.725   8.430   9.063  0.0286 -0.1172 -0.1975
  646ERGO    R210219   2.563   8.284   8.892 -0.0640 -0.0371 -0.1924
  646ERGO    R310220   2.738   8.373   8.704  0.0254 -0.1966 -0.1828
  646ERGO    R410221   2.535   8.227   8.552 -0.1088  0.0261 -0.1979
  646ERGO    R510222   2.750   8.195   8.545 -0.1471 -0.1870 -0.1988
  646ERGO    C110223   2.684   8.276   8.178 -0.0510 -0.0868 -0.1920
  646ERGO    C210224   2.589   8.284   7.857 -0.1430 -0.2129  0.2683
  647ERGO   ROH10225  19.328  18.647   8.953 -0.2326 -0.1205  0.2258
  647ERGO    R110226  19.153  18.465   8.826 -0.3284  0.0514  0.1076
  647ERGO    R210227  18.989  18.538   8.616 -0.1024  0.2112 -0.0178
  647ERGO    R310228  19.110  18.329   8.491 -0.2219  0.0795  0.0826
  647ERGO    R410229  18.907  18.421   8.301  0.0900  0.3585 -0.1245
  647ERGO    R510230  18.933  18.218   8.375 -0.2378  0.3129 -0.1236
  647ERGO    C110231  18.973  18.158   8.000  0.0896  0.3204 -0.0924
  647ERGO    C210232  19.047  17.923   7.716 -0.3216  0.0770  0.2678
  648ERGO   ROH10233  19.562  11.827   8.765 -0.1253 -0.0216 -0.0835
  648ERGO    R110234  19.688  11.875   8.516 -0.0312 -0.0462 -0.0409
  648ERGO    R210235  19.547  11.947   8.289  0.0473 -0.1319 -0.1157
  648ERGO    R310236  19.721  12.156   8.287 -0.0026 -0.0891 -0.0901
  648ERGO    R410237  19.634  12.129   8.009  0.1131 -0.1734 -0.1226
  648ERGO    R510238  19.840  12.132   8.080  0.0862 -0.1072 -0.0396
  648ERGO    C110239  19.849  12.431   7.843  0.1045 -0.1572 -0.1026
  648ERGO    C210240  19.851  12.614   7.461 -0.1523  0.0785  0.2545
  649ERGO   ROH10241  14.398  18.560   9.177  0.0829  0.1173  0.0795
  649ERGO    R110242  14.528  18.563   8.926  0.1429 -0.0305  0.1082
  649ERGO    R210243  14.449  18.403   8.715  0.0639 -0.0058  0.1197
  649ERGO    R310244  14.439  18.640   8.582  0.2817 -0.0197  0.0738
  649ERGO    R410245  14.412  18.435   8.373 -0.2963 -0.0399  0.1516
  649ERGO    R510246  14.557  18.598   8.378 -0.0248 -0.2652 -0.0623
  649ERGO    C110247  14.380  18.676   8.049 -0.3016 -0.0728  0.1272
  649ERGO    C210248  14.343  18.752   7.710  0.2440  0.1215 -0.0945
  650ERGO   ROH10249  18.023   7.321   9.200 -0.4464  0.2573  0.0282
  650ERGO    R110250  18.113   7.380   8.938 -0.1919  0.2068  0.1006
  650ERGO    R210251  18.020   7.246   8.715  0.0258  0.1598  0.0299
  650ERGO    R310252  17.965   7.498   8.628  0.1044  0.1421 -0.0687
  650ERGO    R410253  17.976   7.336   8.384  0.0886  0.0533 -0.0069
  650ERGO    R510254  18.087   7.519   8.424  0.1316  0.0356 -0.0613
  650ERGO    C110255  17.898   7.625   8.110  0.1987 -0.0253 -0.1207
  650ERGO    C210256  18.015   7.667   7.858  0.0418  0.1270  0.2271
  651ERGO   ROH10257  11.192  15.474   9.083 -0.0162 -0.0423  0.1126
  651ERGO    R110258  11.275  15.568   8.829 -0.2030  0.0397  0.0812
  651ERGO    R210259  11.412  15.410   8.650 -0.0368  0.2004  0.0674
  651ERGO    R310260  11.211  15.481   8.482 -0.1750 -0.0845  0.1060
  651ERGO    R410261  11.435  15.414   8.305 -0.1017  0.2348  0.0631
  651ERGO    R510262  11.320  15.599   8.304 -0.3712  0.0771  0.0859
  651ERGO    C110263  11.259  15.483   7.946 -0.2691 -0.0128  0.0969
  651ERGO    C210264  11.295  15.404   7.547  0.0899 -0.1766 -0.0100
  652ERGO   ROH10265   6.405   6.396   9.146 -0.0297 -0.2722 -0.0326
  652ERGO    R110266   6.549   6.427   8.904 -0.0288 -0.1577 -0.0179
  652ERGO    R210267   6.716   6.230   8.805  0.0652 -0.0601 -0.0471
  652ERGO    R310268   6.563   6.258   8.582  0.0690 -0.0852 -0.0531
  652ERGO    R410269   6.780   6.076   8.503  0.2512  0.1443 -0.1147
  652ERGO    R510270   6.721   6.261   8.402  0.0971  0.1473 -0.0310
  652ERGO    C110271   6.673   6.012   8.117  0.3631  0.2397 -0.1598
  652ERGO    C210272   6.605   5.737   8.031  0.0937  0.0943 -0.2205
  653ERGO   ROH10273  13.737  14.600   9.204  0.0038  0.1640 -0.0677
  653ERGO    R110274  13.640  14.646   8.942  0.0842  0.0358 -0.1216
  653ERGO    R210275  13.802  14.630   8.719  0.1541 -0.0700 -0.0661
  653ERGO    R310276  13.613  14.455   8.633  0.1843 -0.1144 -0.0390
  653ERGO    R410277  13.727  14.567   8.387 -0.0255  0.0823 -0.0548
  653ERGO    R510278  13.516  14.562   8.442  0.0095 -0.0508  0.0809
  653ERGO    C110279  13.506  14.367   8.114 -0.1017  0.1293 -0.0228
  653ERGO    C210280  13.517  14.261   7.855 -0.3715  0.0799  0.1344
  654ERGO   ROH10281   1.406   8.802   9.288 -0.3165 -0.0325 -0.1320
  654ERGO    R110282   1.262   8.678   9.078 -0.4674  0.1913 -0.1641
  654ERGO    R210283   1.169   8.818   8.858 -0.0604  0.3173 -0.2643
  654ERGO    R310284   1.307   8.629   8.720 -0.3739 -0.0260 -0.1244
  654ERGO    R410285   1.180   8.794   8.514 -0.0980  0.0412 -0.2478
  654ERGO    R510286   1.166   8.577   8.534 -0.4644  0.0705 -0.0847
  654ERGO    C110287   1.315   8.602   8.183 -0.4143 -0.4420 -0.1067
  654ERGO    C210288   1.381   8.795   7.831  0.1485  0.2415  0.1004
  655ERGO   ROH10289  11.130  14.520   9.332 -0.0125  0.2257 -0.2273
  655ERGO    R110290  11.054  14.439   9.072  0.0332  0.3451 -0.2785
  655ERGO    R210291  11.186  14.525   8.845  0.3374  0.1247 -0.1898
  655ERGO    R310292  11.207  14.258   8.796 -0.0686  0.0816 -0.1659
  655ERGO    R410293  11.269  14.386   8.539  0.5076 -0.0056 -0.0864
  655ERGO    R510294  11.120  14.232   8.574  0.1770  0.2515 -0.2894
  655ERGO    C110295  11.337  14.056   8.315  0.2256 -0.1217 -0.0039
  655ERGO    C210296  11.608  13.972   8.133 -0.1591  0.1974  0.2790
  656ERGO   ROH10297  12.982   2.353   8.940  0.0782  0.0134 -0.0226
  656ERGO    R110298  13.074   2.525   8.735 -0.0587  0.1309  0.0132
  656ERGO    R210299  13.184   2.431   8.500  0.1665  0.2673  0.0625
  656ERGO    R310300  12.992   2.587   8.386  0.0077  0.0165 -0.0237
  656ERGO    R410301  13.189   2.545   8.174  0.0546  0.0935 -0.0016
  656ERGO    R510302  13.114   2.737   8.244 -0.1375  0.0617 -0.1056
  656ERGO    C110303  13.013   2.758   7.877 -0.1594 -0.2430 -0.1200
  656ERGO    C210304  13.116   2.956   7.572 -0.0158 -0.0298  0.2848
  657ERGO   ROH10305  11.417   4.337   9.105  0.0261  0.0153 -0.0358
  657ERGO    R110306  11.272   4.449   8.890  0.0436  0.1058 -0.0004
  657ERGO    R210307  11.391   4.518   8.650  0.0692  0.2375  0.0502
  657ERGO    R310308  11.197   4.359   8.545  0.1011  0.2678 -0.0562
  657ERGO    R410309  11.315   4.497   8.314  0.0868  0.4306  0.0321
  657ERGO    R510310  11.103   4.490   8.367  0.0857  0.3611  0.0195
  657ERGO    C110311  11.089   4.334   8.019  0.1269  0.5714 -0.0781
  657ERGO    C210312  11.116   4.171   7.786 -0.0241  0.0652  0.4356
  658ERGO   ROH10313  18.212   1.860   8.909 -0.1872 -0.0087  0.0042
  658ERGO    R110314  18.100   1.816   8.653 -0.0761  0.2166 -0.0863
  658ERGO    R210315  18.127   1.997   8.446  0.3382  0.2325 -0.0314
  658ERGO    R310316  18.225   1.781   8.313  0.1157  0.1136 -0.0060
  658ERGO    R410317  18.119   1.955   8.103  0.2687  0.1764 -0.0229
  658ERGO    R510318  18.070   1.745   8.134  0.0675  0.2316  0.0152
  658ERGO    C110319  18.206   1.727   7.779  0.0193  0.0320  0.0060
  658ERGO    C210320  18.235   1.768   7.428 -0.1052 -0.0120 -0.0840
  659ERGO   ROH10321  19.518   4.878   9.051 -0.3330 -0.2131  0.1667
  659ERGO    R110322  19.351   4.776   8.847 -0.3389  0.0780  0.0180
  659ERGO    R210323  19.236   4.937   8.655  0.0641  0.2973 -0.0673
  659ERGO    R310324  19.355   4.764   8.483 -0.0603  0.1252  0.0206
  659ERGO    R410325  19.156   4.905   8.320  0.1201  0.2361 -0.0732
  659ERGO    R510326  19.177   4.689   8.341 -0.0852  0.2343  0.0084
  659ERGO    C110327  19.222   4.723   7.964  0.0358  0.0388  0.0060
  659ERGO    C210328  19.093   4.779   7.603  0.1218  0.1673 -0.1367
  660ERGO   ROH10329   3.334  18.781   8.784  0.0550 -0.1444 -0.1681
  660ERGO    R110330   3.244  18.942   8.570  0.0261  0.0566 -0.0082
  660ERGO    R210331   3.281  19.216   8.563  0.2781  0.0289  0.1102
  660ERGO    R310332   3.395  19.162   8.323  0.0295  0.0471 -0.0146
  660ERGO    R410333   3.284  19.432   8.294  0.1959  0.1423  0.1997
  660ERGO    R510334   3.246  19.262   8.163 -0.0417  0.2228  0.1571
  660ERGO    C110335   3.393  19.508   7.911 -0.0854  0.2253  0.1347
  660ERGO    C210336   3.457  19.550   7.613 -0.0190  0.0296  0.2566
  661ERGO   ROH10337   7.275  19.272   8.514 -0.0711 -0.1288 -0.0967
  661ERGO    R110338   7.147  19.173   8.282 -0.2719  0.0760 -0.0796
  661ERGO    R210339   7.026  19.338   8.097  0.0132  0.2874 -0.0977
  661ERGO    R310340   7.188  19.207   7.922 -0.2233 -0.0351 -0.0823
  661ERGO    R410341   6.978  19.322   7.755 -0.0587  0.2349 -0.0839
  661ERGO    R510342   7.039  19.113   7.760 -0.3917  0.1428 -0.0236
  661ERGO    C110343   7.103  19.190   7.392 -0.3224 -0.0985 -0.0616
  661ERGO    C210344   6.880  19.250   7.083 -0.1862  0.4601  0.1355
  662ERGO   ROH10345   3.311   0.798   8.517 -0.0334 -0.0089 -0.0204
  662ERGO    R110346   3.200   0.893   8.274 -0.0887  0.0233  0.0169
  662ERGO    R210347   3.321   0.852   8.029 -0.0901  0.1464 -0.0069
  662ERGO    R310348   3.079   0.746   7.964 -0.0538  0.0712 -0.0188
  662ERGO    R410349   3.181   0.859   7.713  0.0242 -0.1066 -0.0656
  662ERGO    R510350   2.987   0.900   7.805 -0.0134 -0.0588 -0.1689
  662ERGO    C110351   2.872   0.764   7.468  0.1247 -0.3245 -0.1110
  662ERGO    C210352   2.656   0.787   7.170 -0.1595 -0.1251  0.0261
  663ERGO   ROH10353   4.383   4.462   8.896  0.2456 -0.2173  0.0166
  663ERGO    R110354   4.643   4.501   8.789  0.2872 -0.3729  0.0555
  663ERGO    R210355   4.751   4.335   8.597  0.1038 -0.2760 -0.1413
  663ERGO    R310356   4.786   4.568   8.462  0.3442 -0.1520  0.1253
  663ERGO    R410357   4.861   4.359   8.270 -0.2197 -0.0353 -0.2378
  663ERGO    R510358   4.982   4.530   8.329  0.1369 -0.3124 -0.1400
  663ERGO    C110359   4.958   4.591   7.953 -0.1823  0.2211 -0.0436
  663ERGO    C210360   4.760   4.671   7.667  0.1691  0.0737 -0.0050
  664ERGO   ROH10361   8.195   5.109   9.515  0.0934  0.2591 -0.0105
  664ERGO    R110362   8.282   4.973   9.283  0.0257  0.2579 -0.0347
  664ERGO    R210363   8.129   4.780   9.158  0.0398  0.1752  0.0801
  664ERGO    R310364   8.168   4.936   8.939 -0.1428  0.1529  0.0298
  664ERGO    R410365   8.062   4.683   8.833  0.2863 -0.0738  0.0996
  664ERGO    R510366   8.246   4.784   8.771  0.1529  0.1982  0.1156
  664ERGO    C110367   8.059   4.774   8.438  0.2583 -0.2397  0.0634
  664ERGO    C210368   7.927   4.906   8.102  0.0516 -0.3304 -0.0757
  665ERGO   ROH10369   3.258  16.916   8.685 -0.0489 -0.0376 -0.0278
  665ERGO    R110370   3.440  17.018   8.493 -0.1102  0.0082 -0.0610
  665ERGO    R210371   3.589  16.855   8.328 -0.0147  0.0439 -0.0062
  665ERGO    R310372   3.477  17.005   8.132 -0.1027 -0.0859 -0.0578
  665ERGO    R410373   3.704  16.870   8.003  0.1200  0.1719  0.0458
  665ERGO    R510374   3.664  17.085   8.005 -0.1315  0.1307  0.0279
  665ERGO    C110375   3.665  17.021   7.628  0.1159  0.1244  0.0277
  665ERGO    C210376   3.669  16.889   7.434  0.0334 -0.0611  0.1063
  666ERGO   ROH10377  13.565   4.597   9.157  0.1005  0.1521  0.0959
  666ERGO    R110378  13.428   4.549   8.914  0.1009 -0.1980  0.1599
  666ERGO    R210379  13.328   4.752   8.757 -0.2916 -0.4353  0.0867
  666ERGO    R310380  13.474   4.631   8.563 -0.1454 -0.2893  0.1040
  666ERGO    R410381  13.287   4.805   8.418 -0.4240 -0.6019  0.0756
  666ERGO    R510382  13.317   4.591   8.386 -0.1200 -0.5738  0.1411
  666ERGO    C110383  13.401   4.722   8.038 -0.3639 -0.5618  0.0855
  666ERGO    C210384  13.408   4.747   7.718  0.4999 -0.1878  0.0960
  667ERGO   ROH10385   8.134   1.174   8.638 -0.0244 -0.1377 -0.0217
  667ERGO    R110386   8.094   1.090   8.371  0.0802 -0.0827 -0.0558
  667ERGO    R210387   8.062   1.267   8.162 -0.0056 -0.0379 -0.0065
  667ERGO    R310388   8.267   1.126   8.053  0.1119  0.1366 -0.0146
  667ERGO    R410389   8.118   1.229   7.823 -0.0840 -0.1299 -0.0092
  667ERGO    R510390   8.172   1.021   7.860  0.1569 -0.0559  0.0667
  667ERGO    C110391   8.344   1.073   7.524 -0.0193 -0.0197 -0.0182
  667ERGO    C210392   8.491   1.048   7.147  0.0064  0.0301  0.3454
  668ERGO   ROH10393   2.467  10.137   8.894 -0.0413  0.1577 -0.1623
  668ERGO    R110394   2.415  10.190   8.621  0.0535  0.0529 -0.2021
  668ERGO    R210395   2.568  10.083   8.417  0.0505 -0.1282 -0.1175
  668ERGO    R310396   2.327   9.996   8.326  0.0254 -0.0468 -0.1266
  668ERGO    R410397   2.474  10.073   8.085 -0.0016  0.0324 -0.1078
  668ERGO    R510398   2.276  10.142   8.144  0.0224  0.0378 -0.0536
  668ERGO    C110399   2.193   9.985   7.806 -0.0556  0.2024 -0.1107
  668ERGO    C210400   2.045   9.880   7.460  0.1602 -0.1955 -0.0206
  669ERGO   ROH10401   8.486  18.752   8.646 -0.3877  0.0572 -0.1177
  669ERGO    R110402   8.488  18.688   8.370 -0.2900  0.0359 -0.1123
  669ERGO    R210403   8.586  18.449   8.274 -0.0339  0.1272 -0.0808
  669ERGO    R310404   8.341  18.432   8.158 -0.0051 -0.1334 -0.1106
  669ERGO    R410405   8.530  18.415   7.934  0.0445  0.0177 -0.0839
  669ERGO    R510406   8.363  18.554   7.953 -0.0980 -0.1414 -0.1270
  669ERGO    C110407   8.267  18.380   7.628  0.1170 -0.2905 -0.1136
  669ERGO    C210408   8.254  18.258   7.266 -0.0355 -0.0546 -0.1647
  670ERGO   ROH10409  18.124   8.382   9.569 -0.0797  0.1410  0.0486
  670ERGO    R110410  18.246   8.363   9.315 -0.0087  0.0937  0.0862
  670ERGO    R210411  18.132   8.224   9.105  0.0095  0.1252  0.0563
  670ERGO    R310412  18.164   8.460   8.974  0.1268  0.1110  0.0576
  670ERGO    R410413  18.001   8.295   8.794  0.1035  0.1683  0.0258
  670ERGO    R510414  18.187   8.397   8.744  0.1533  0.0972  0.0638
  670ERGO    C110415  17.954   8.559   8.489  0.2683  0.1801  0.0092
  670ERGO    C210416  17.810   8.701   8.232 -0.4713  0.0557 -0.0333
  671ERGO   ROH10417   8.921   8.075   9.111  0.3191  0.0617 -0.0263
  671ERGO    R110418   8.865   8.162   8.848  0.2361  0.0870  0.0010
  671ERGO    R210419   9.062   8.201   8.659  0.1558 -0.0637 -0.1024
  671ERGO    R310420   8.910   8.031   8.511 -0.0435  0.0409 -0.0239
  671ERGO    R410421   8.977   8.252   8.328  0.2376 -0.1030 -0.1307
  671ERGO    R510422   8.777   8.177   8.373  0.1328  0.1513 -0.0961
  671ERGO    C110423   8.785   8.123   7.996  0.0980 -0.0277 -0.0734
  671ERGO    C210424   8.750   8.054   7.681  0.2965 -0.0672 -0.5726
  672ERGO   ROH10425   0.440  14.192   8.482 -0.0072 -0.1004  0.1047
  672ERGO    R110426   0.251  14.229   8.275  0.0357 -0.1638  0.0535
  672ERGO    R210427   0.091  14.454   8.258 -0.0874 -0.2494  0.0529
  672ERGO    R310428   0.195  14.469   8.007 -0.0161 -0.1372  0.0882
  672ERGO    R410429  -0.030  14.657   8.006 -0.1094 -0.2507  0.0625
  672ERGO    R510430   0.004  14.494   7.865  0.0165 -0.1998  0.0340
  672ERGO    C110431  -0.003  14.789   7.623 -0.0556 -0.1460  0.1011
  672ERGO    C210432  -0.044  15.002   7.296  0.2742  0.1416  0.2249
  673ERGO   ROH10433  14.884   8.766   9.866  0.1630 -0.1340  0.0907
  673ERGO    R110434  14.803   8.704   9.602  0.2032 -0.0648  0.0618
  673ERGO    R210435  14.637   8.869   9.455  0.0843 -0.1098  0.1436
  673ERGO    R310436  14.838   8.854   9.272  0.0934  0.1198  0.1327
  673ERGO    R410437  14.594   8.883   9.112  0.0502 -0.1431  0.1466
  673ERGO    R510438  14.745   8.727   9.092  0.2233  0.0230  0.1325
  673ERGO    C110439  14.757   8.877   8.741  0.0389  0.0529  0.1382
  673ERGO    C210440  14.778   8.871   8.317 -0.1271  0.3216 -0.2092
  674PSPI    C110441   6.122   0.187   4.648  0.0470 -0.0117 -0.0517
  674PSPI    C210442   6.429  -0.009   4.483  0.0860  0.0021  0.0041
  674PSPI    C310443   6.259   0.297   4.289  0.0852 -0.0275 -0.0420
  674PSPI   PO410444   6.163   0.041   4.903 -0.0744  0.2123  0.2617
  674PSPI   GL110445   5.996   0.100   5.294  0.2301 -0.3510  0.2714
  674PSPI   GL210446   5.704  -0.157   5.270 -0.0441  0.2107 -0.0282
  674PSPI   C1A10447   6.207  -0.002   5.721  0.2351 -0.1096 -0.0912
  674PSPI   C2A10448   6.523  -0.080   6.061 -0.0269 -0.1433 -0.3209
  674PSPI   C3A10449   6.542  -0.153   6.461  0.0092  0.3967 -0.1771
  674PSPI   C4A10450   6.313  -0.170   6.872 -0.0036  0.1411 -0.3868
  674PSPI   C1B10451   5.810  -0.223   5.560 -0.0192 -0.1764 -0.1123
  674PSPI   C2B10452   5.834  -0.277   5.919  0.3297  0.1324 -0.3067
  674PSPI   C3B10453   5.928  -0.436   6.333  0.1904 -0.2106 -0.0963
  674PSPI   C4B10454   5.863  -0.140   6.680 -0.1354  0.1438 -0.0062
  675PSPI    C110455   6.286   3.331   5.401 -0.1065 -0.1130  0.1323
  675PSPI    C210456   6.046   3.289   5.084 -0.0782  0.1370  0.0759
  675PSPI    C310457   5.904   3.450   5.422 -0.0256  0.1625  0.0859
  675PSPI   PO410458   6.589   3.388   5.282 -0.1929 -0.1054 -0.3501
  675PSPI   GL110459   6.898   3.362   5.561  0.0285 -0.2741 -0.1693
  675PSPI   GL210460   6.671   3.523   5.737 -0.0409 -0.2559 -0.1010
  675PSPI   C1A10461   7.062   3.233   5.890 -0.1905  0.0710 -0.0092
  675PSPI   C2A10462   7.067   3.164   6.322  0.0133 -0.1844 -0.0337
  675PSPI   C3A10463   6.790   3.329   6.770 -0.0627  0.0923  0.1009
  675PSPI   C4A10464   6.685   3.595   7.080  0.0639 -0.0773 -0.1316
  675PSPI   C1B10465   6.783   3.721   6.081  0.1837  0.0858 -0.0611
  675PSPI   C2B10466   7.037   3.689   6.424 -0.0212  0.2086  0.1822
  675PSPI   C3B10467   7.262   3.577   6.700  0.3233  0.4557  0.1430
  675PSPI   C4B10468   7.305   3.195   6.897 -0.1903  0.2528  0.3260
  676PSPI    C110469  10.519  11.473   5.304 -0.1120  0.0773 -0.1749
  676PSPI    C210470  10.314  11.214   5.078 -0.0922  0.0667 -0.1806
  676PSPI    C310471  10.588  11.453   4.910 -0.0722  0.0534 -0.1668
  676PSPI   PO410472  10.351  11.608   5.502 -0.1545  0.0356 -0.1667
  676PSPI   GL110473  10.365  11.600   5.943 -0.0808  0.0529 -0.1149
  676PSPI   GL210474  10.079  11.866   6.090  0.0293  0.3276 -0.0906
  676PSPI   C1A10475  10.135  11.340   6.308 -0.1045  0.1001 -0.0133
  676PSPI   C2A10476   9.701  11.338   6.506 -0.0642 -0.0908 -0.5293
  676PSPI   C3A10477   9.478  11.584   6.791  0.2972  0.1026 -0.2624
  676PSPI   C4A10478   9.450  11.723   7.203  0.1879 -0.0489 -0.0332
  676PSPI   C1B10479   9.734  11.918   6.306 -0.0240  0.2994  0.0132
  676PSPI   C2B10480   9.620  12.089   6.692 -0.0893  0.3314 -0.0020
  676PSPI   C3B10481   9.396  12.210   7.002 -0.3013  0.2931 -0.1762
  676PSPI   C4B10482   9.461  12.500   7.403 -0.1543  0.2556 -0.0367
  677PSPI    C110483   5.615   6.019   5.166 -0.1519  0.1415  0.1720
  677PSPI    C210484   5.253   5.994   4.998 -0.0742  0.0728  0.0114
  677PSPI    C310485   5.504   5.684   4.978  0.0428  0.1668  0.0077
  677PSPI   PO410486   5.534   6.128   5.449  0.1517  0.1091 -0.0522
  677PSPI   GL110487   5.655   6.315   5.914  0.0428  0.3359  0.0918
  677PSPI   GL210488   5.692   5.955   5.931 -0.1214  0.0530  0.0186
  677PSPI   C1A10489   5.763   6.425   6.310 -0.0544 -0.3353  0.2253
  677PSPI   C2A10490   5.635   6.575   6.733  0.0060 -0.1798  0.1626
  677PSPI   C3A10491   5.736   6.680   7.061  0.1019  0.0309  0.2605
  677PSPI   C4A10492   5.998   6.949   7.288  0.1735 -0.2890 -0.3284
  677PSPI   C1B10493   5.612   5.732   6.296 -0.0776  0.2263 -0.2224
  677PSPI   C2B10494   5.705   5.634   6.723  0.1994 -0.3876 -0.0608
  677PSPI   C3B10495   5.525   5.765   7.133 -0.1178  0.2264 -0.0230
  677PSPI   C4B10496   5.587   5.891   7.547  0.0488 -0.1028 -0.0172
  678PSPI    C110497   9.275   8.538   5.487  0.0075  0.0431  0.1049
  678PSPI    C210498   9.601   8.678   5.673  0.1761 -0.0902 -0.0859
  678PSPI    C310499   9.638   8.403   5.385 -0.1149 -0.1830 -0.0380
  678PSPI   PO410500   9.095   8.478   5.685  0.0345  0.0255 -0.1732
  678PSPI   GL110501   9.092   8.568   6.100  0.0133 -0.2320  0.1795
  678PSPI   GL210502   9.327   8.739   6.032 -0.0007 -0.1284 -0.1640
  678PSPI   C1A10503   8.771   8.724   6.351  0.1372  0.0006  0.2807
  678PSPI   C2A10504   8.432   8.787   6.609  0.2475 -0.0172  0.2814
  678PSPI   C3A10505   8.276   8.896   6.960 -0.0730 -0.2239 -0.1636
  678PSPI   C4A10506   7.783   8.900   7.312 -0.0762 -0.2022  0.0129
  678PSPI   C1B10507   9.407   8.618   6.458  0.3274  0.0854 -0.4251
  678PSPI   C2B10508   9.334   8.645   6.858  0.3914 -0.1182  0.0572
  678PSPI   C3B10509   9.365   8.985   7.171  0.0170  0.3621  0.0028
  678PSPI   C4B10510   9.460   9.113   7.553 -0.0244  0.0538  0.0532
  679PSPI    C110511   3.209  12.908   4.519  0.1509  0.1952  0.0022
  679PSPI    C210512   2.824  12.871   4.417  0.1322  0.0555  0.1197
  679PSPI    C310513   3.011  13.221   4.369  0.0604  0.0562 -0.1730
  679PSPI   PO410514   3.295  12.779   4.794  0.1355 -0.0702  0.0147
  679PSPI   GL110515   3.230  12.852   5.221  0.1920  0.0386 -0.1829
  679PSPI   GL210516   3.470  12.965   5.254  0.0176  0.2145  0.0172
  679PSPI   C1A10517   3.228  12.554   5.542 -0.0584 -0.0433 -0.5277
  679PSPI   C2A10518   3.066  12.303   5.953 -0.1643 -0.1539 -0.1099
  679PSPI   C3A10519   3.022  12.560   6.278 -0.0200 -0.2299 -0.1059
  679PSPI   C4A10520   3.249  12.894   6.657  0.0198  0.3745  0.0611
  679PSPI   C1B10521   3.577  13.052   5.627 -0.0211 -0.1208 -0.1156
  679PSPI   C2B10522   3.817  12.947   5.977 -0.2659  0.0195 -0.1243
  679PSPI   C3B10523   4.271  12.954   5.998 -0.2249 -0.0953  0.0631
  679PSPI   C4B10524   4.607  13.254   6.263  0.1531  0.3076  0.0472
  680PSPI    C110525  15.546   9.547   5.375 -0.0182  0.1443  0.0990
  680PSPI    C210526  15.433   9.770   5.063 -0.0814  0.0697  0.0679
  680PSPI    C310527  15.800   9.610   5.072  0.0401  0.3470  0.1883
  680PSPI   PO410528  15.403   9.681   5.523 -0.0430 -0.1495 -0.1315
  680PSPI   GL110529  15.338   9.605   5.938  0.1317 -0.0554  0.0583
  680PSPI   GL210530  15.571   9.524   6.239 -0.0865  0.0242 -0.5968
  680PSPI   C1A10531  15.076   9.594   6.279  0.1744  0.3298 -0.3083
  680PSPI   C2A10532  15.032   9.604   6.693  0.0438  0.3717 -0.0681
  680PSPI   C3A10533  14.817   9.291   6.944 -0.1584  0.1772 -0.1293
  680PSPI   C4A10534  14.667   9.197   7.369  0.2308  0.0403  0.0206
  680PSPI   C1B10535  15.648   9.647   6.625  0.0062  0.0716  0.2932
  680PSPI   C2B10536  15.516   9.528   6.949  0.0346 -0.1929  0.0800
  680PSPI   C3B10537  15.254   9.354   7.188 -0.2343  0.1414  0.1830
  680PSPI   C4B10538  15.087   8.993   7.411 -0.1050 -0.1012  0.1265
  681PSPI    C110539   4.824  12.363   5.107 -0.0387  0.0546 -0.2965
  681PSPI    C210540   5.090  12.144   4.904  0.1562  0.1232 -0.1182
  681PSPI    C310541   4.757  11.973   5.046  0.1426  0.0191 -0.2736
  681PSPI   PO410542   5.007  12.687   5.050  0.6175 -0.1070 -0.1218
  681PSPI   GL110543   5.121  12.916   5.407  0.1621  0.1694 -0.1869
  681PSPI   GL210544   4.984  13.208   5.405  0.2565 -0.0419 -0.2690
  681PSPI   C1A10545   5.463  12.701   5.720  0.0712 -0.0629  0.0091
  681PSPI   C2A10546   5.730  12.707   6.010 -0.3154 -0.0294  0.0863
  681PSPI   C3A10547   5.885  12.761   6.464  0.0480 -0.0163  0.0823
  681PSPI   C4A10548   6.050  13.066   6.792  0.1867  0.1218 -0.4787
  681PSPI   C1B10549   5.110  13.490   5.644  0.1228 -0.1483  0.0632
  681PSPI   C2B10550   5.094  13.565   6.014  0.1367  0.0326  0.0698
  681PSPI   C3B10551   5.028  13.744   6.487 -0.1678  0.0439 -0.3615
  681PSPI   C4B10552   5.088  13.524   6.898 -0.2921  0.4098 -0.2396
  682PSPI    C110553  16.407   4.910   5.583 -0.1499 -0.3581 -0.0788
  682PSPI    C210554  16.046   5.028   5.459 -0.1166 -0.1160  0.0472
  682PSPI    C310555  16.334   4.950   5.192 -0.1474  0.0650 -0.0407
  682PSPI   PO410556  16.525   5.130   5.745 -0.0929 -0.1771  0.0964
  682PSPI   GL110557  16.500   5.332   6.226 -0.0219 -0.2080  0.0466
  682PSPI   GL210558  16.224   5.196   6.108  0.2956  0.2588 -0.0469
  682PSPI   C1A10559  16.483   5.144   6.579 -0.1601 -0.0517 -0.6219
  682PSPI   C2A10560  16.501   5.051   7.030  0.0004 -0.0234  0.0455
  682PSPI   C3A10561  16.324   4.673   7.248 -0.0612  0.1018 -0.0480
  682PSPI   C4A10562  16.206   4.325   7.150  0.0584  0.2616 -0.1903
  682PSPI   C1B10563  16.224   4.890   6.271 -0.4195  0.0088 -0.2199
  682PSPI   C2B10564  16.220   4.518   6.211 -0.2100 -0.3896  0.1144
  682PSPI   C3B10565  16.383   4.157   6.334  0.0017  0.1832  0.1253
  682PSPI   C4B10566  16.566   4.102   6.829 -0.0611  0.0412  0.2175
  683PSPI    C110567  15.654  13.279   4.922 -0.0368 -0.0770 -0.0351
  683PSPI    C210568  15.308  13.295   5.121 -0.0637 -0.0743 -0.0819
  683PSPI    C310569  15.454  12.942   5.003  0.0151 -0.0870  0.0525
  683PSPI   PO410570  15.733  13.535   5.033  0.0435  0.0606  0.3238
  683PSPI   GL110571  15.750  13.768   5.383 -0.0705  0.0057 -0.0539
  683PSPI   GL210572  15.966  13.981   5.400 -0.0248  0.1491  0.0551
  683PSPI   C1A10573  15.747  13.784   5.865 -0.1478 -0.0019 -0.1103
  683PSPI   C2A10574  15.908  13.951   6.286 -0.0895  0.2604 -0.0042
  683PSPI   C3A10575  15.885  14.028   6.734  0.0895  0.2280  0.0847
  683PSPI   C4A10576  15.966  14.110   7.239 -0.3313  0.3646 -0.0186
  683PSPI   C1B10577  15.924  14.234   5.741 -0.2666  0.0314  0.2708
  683PSPI   C2B10578  15.972  14.396   6.134 -0.2193  0.0614 -0.2508
  683PSPI   C3B10579  15.917  14.677   6.528 -0.0079 -0.2421  0.2088
  683PSPI   C4B10580  16.144  14.894   6.875  0.2423  0.1267 -0.0293
  684PSPI    C110581   4.241   8.741   5.191 -0.4197 -0.0714 -0.0463
  684PSPI    C210582   4.167   9.132   5.233 -0.0997  0.0052 -0.1605
  684PSPI    C310583   4.468   9.010   5.001 -0.1587 -0.3089 -0.0768
  684PSPI   PO410584   4.231   8.616   5.472 -0.2044  0.1332  0.0543
  684PSPI   GL110585   4.312   8.652   5.859  0.2522  0.0970 -0.3205
  684PSPI   GL210586   3.998   8.485   5.950 -0.2070  0.2718  0.2782
  684PSPI   C1A10587   4.125   8.851   6.254  0.2430  0.1005 -0.0738
  684PSPI   C2A10588   4.293   9.037   6.679 -0.1303  0.0135  0.4016
  684PSPI   C3A10589   4.328   9.322   6.989 -0.0065 -0.2655 -0.1404
  684PSPI   C4A10590   4.209   9.687   7.036 -0.1279  0.0342  0.1888
  684PSPI   C1B10591   4.116   8.345   6.324 -0.2298 -0.2067  0.3344
  684PSPI   C2B10592   4.282   8.438   6.825  0.2673 -0.3327 -0.0500
  684PSPI   C3B10593   4.302   8.548   7.296 -0.1053  0.1302  0.0375
  684PSPI   C4B10594   4.613   8.589   7.632  0.2605 -0.1013 -0.0502
  685PSPI    C110595   5.245  14.038   4.826  0.0830 -0.0976 -0.1359
  685PSPI    C210596   5.098  14.006   4.455 -0.2060  0.1417 -0.0454
  685PSPI    C310597   5.322  14.322   4.556  0.1733 -0.0991 -0.1123
  685PSPI   PO410598   5.015  14.019   5.016 -0.1676  0.0954 -0.2666
  685PSPI   GL110599   5.174  13.971   5.494  0.0012 -0.1508 -0.0167
  685PSPI   GL210600   5.406  13.986   5.385 -0.1232  0.0497  0.1497
  685PSPI   C1A10601   5.175  14.076   5.959  0.1330 -0.0961 -0.1810
  685PSPI   C2A10602   4.892  14.210   6.340  0.2435  0.0453 -0.3271
  685PSPI   C3A10603   4.790  14.305   6.777  0.0506  0.2515 -0.1961
  685PSPI   C4A10604   4.881  14.740   6.874  0.0278  0.0434 -0.1168
  685PSPI   C1B10605   5.615  14.052   5.732 -0.2985 -0.1259  0.1279
  685PSPI   C2B10606   5.850  14.240   6.065 -0.1540 -0.0642 -0.1278
  685PSPI   C3B10607   5.919  14.263   6.549  0.2180  0.1711 -0.1211
  685PSPI   C4B10608   6.164  14.397   6.875  0.0663  0.0561  0.1323
  686PSPI    C110609  12.276   6.709   5.576  0.0113  0.0822 -0.0961
  686PSPI    C210610  12.561   6.657   5.851 -0.0568  0.1816 -0.0057
  686PSPI    C310611  12.594   6.953   5.584  0.0798 -0.0030 -0.1966
  686PSPI   PO410612  12.048   6.741   5.665  0.0615  0.0007  0.0902
  686PSPI   GL110613  11.879   6.562   6.036  0.1828  0.0230 -0.1680
  686PSPI   GL210614  12.195   6.453   6.089 -0.0822 -0.2650  0.0444
  686PSPI   C1A10615  11.594   6.586   6.346  0.0754 -0.1581 -0.1040
  686PSPI   C2A10616  11.698   6.414   6.735  0.0518  0.2519 -0.2578
  686PSPI   C3A10617  11.561   6.521   7.203  0.0653  0.1526 -0.2596
  686PSPI   C4A10618  11.490   6.821   7.460  0.2158  0.0894  0.1283
  686PSPI   C1B10619  12.404   6.345   6.430  0.0696  0.1929 -0.1327
  686PSPI   C2B10620  12.543   6.346   6.815  0.0110  0.0318 -0.3074
  686PSPI   C3B10621  12.882   6.482   7.104  0.0212 -0.3367  0.0099
  686PSPI   C4B10622  13.110   6.495   7.420  0.0275  0.0064  0.6661
  687PSPI    C110623  18.418   9.611   4.999  0.1724 -0.2272 -0.0097
  687PSPI    C210624  18.795   9.640   4.867  0.1823 -0.2014  0.0242
  687PSPI    C310625  18.597   9.968   4.980  0.1760 -0.2243  0.0795
  687PSPI   PO410626  18.464   9.516   5.247  0.2500  0.2920 -0.0559
  687PSPI   GL110627  18.218   9.316   5.519 -0.0454  0.2631 -0.0582
  687PSPI   GL210628  17.973   9.262   5.670  0.0716  0.1157 -0.2527
  687PSPI   C1A10629  18.349   9.024   5.876  0.0159  0.0638  0.1656
  687PSPI   C2A10630  18.665   9.156   6.204 -0.0048  0.2153  0.1415
  687PSPI   C3A10631  18.612   9.105   6.650 -0.0515 -0.1347  0.1416
  687PSPI   C4A10632  18.755   9.242   6.981  0.0155  0.1850 -0.0253
  687PSPI   C1B10633  18.293   9.527   5.950  0.2425 -0.1714 -0.0148
  687PSPI   C2B10634  18.323   9.455   6.396 -0.2785  0.1755  0.0500
  687PSPI   C3B10635  18.455   9.595   6.829 -0.2518  0.0300  0.1734
  687PSPI   C4B10636  18.653   9.902   7.096  0.0897  0.2884 -0.0605
  688PSPI    C110637  12.833  12.318   5.006  0.2147 -0.0281 -0.0169
  688PSPI    C210638  12.498  12.501   4.886  0.3828  0.2778 -0.0314
  688PSPI    C310639  12.598  12.145   4.733  0.2841  0.3830 -0.3484
  688PSPI   PO410640  12.823  12.415   5.262 -0.1490 -0.1502  0.0111
  688PSPI   GL110641  12.863  12.533   5.719  0.0970  0.4571 -0.3117
  688PSPI   GL210642  12.563  12.712   5.917 -0.0871  0.0454  0.1553
  688PSPI   C1A10643  12.942  12.394   6.173  0.1780 -0.0521  0.0392
  688PSPI   C2A10644  12.863  12.527   6.628 -0.1919 -0.0142 -0.1796
  688PSPI   C3A10645  12.864  12.585   7.063 -0.1586 -0.1273 -0.3413
  688PSPI   C4A10646  13.230  12.928   7.376 -0.1238 -0.0357  0.1174
  688PSPI   C1B10647  12.386  12.752   6.403  0.3232 -0.0444  0.1665
  688PSPI   C2B10648  12.435  12.715   6.903  0.3422  0.1293 -0.2075
  688PSPI   C3B10649  12.377  13.032   7.219  0.0566 -0.4243  0.0133
  688PSPI   C4B10650  11.983  13.294   7.425 -0.1124 -0.0417 -0.0307
  689PSPI    C110651  19.524  19.291   5.010 -0.1456  0.2339 -0.3117
  689PSPI    C210652  19.781  19.553   4.852  0.2981  0.1805  0.2899
  689PSPI    C310653  19.888  19.170   4.898 -0.1046  0.0303  0.0280
  689PSPI   PO410654  19.437  19.378   5.241  0.1914 -0.3901  0.1018
  689PSPI   GL110655  19.464  19.207   5.566  0.1863 -0.6389  0.1058
  689PSPI   GL210656  19.365  19.047   5.915  0.1456 -0.1291 -0.0912
  689PSPI   C1A10657  19.565  19.491   5.880  0.2875  0.3225 -0.1134
  689PSPI   C2A10658  19.798  19.739   6.180  0.2876  0.2360  0.0613
  689PSPI   C3A10659  19.789  19.879   6.573 -0.0587 -0.0631 -0.1557
  689PSPI   C4A10660  19.989  20.221   6.658 -0.2389  0.0723 -0.0875
  689PSPI   C1B10661  19.504  19.318   6.342  0.1203  0.1653  0.0828
  689PSPI   C2B10662  19.730  19.368   6.671  0.3537 -0.1343  0.2736
  689PSPI   C3B10663  19.789  19.703   7.062  0.0507 -0.0143 -0.1701
  689PSPI   C4B10664  19.776  19.624   7.428  0.0699 -0.3499 -0.0471
  690PSPI    C110665  15.993  12.866   5.026  0.2337 -0.1088 -0.0902
  690PSPI    C210666  15.781  12.658   4.757  0.0318  0.1038 -0.0984
  690PSPI    C310667  16.133  12.818   4.654  0.0178  0.0716 -0.1973
  690PSPI   PO410668  15.914  12.768   5.243 -0.1192  0.2114  0.4611
  690PSPI   GL110669  15.992  12.843   5.691  0.0633  0.0235 -0.2489
  690PSPI   GL210670  15.762  12.714   5.802 -0.0359 -0.0587 -0.2597
  690PSPI   C1A10671  16.113  12.874   6.198 -0.3420  0.3102  0.3391
  690PSPI   C2A10672  15.918  12.906   6.676  0.3533 -0.3277 -0.0472
  690PSPI   C3A10673  15.651  13.093   6.990  0.0407 -0.2322  0.0157
  690PSPI   C4A10674  15.802  13.405   7.347 -0.0662 -0.0584  0.2954
  690PSPI   C1B10675  15.670  12.735   6.243 -0.0914 -0.1466 -0.0996
  690PSPI   C2B10676  15.426  12.841   6.678 -0.0998 -0.0879  0.1388
  690PSPI   C3B10677  15.136  13.091   6.904  0.2777  0.0519  0.0720
  690PSPI   C4B10678  14.719  13.093   6.869 -0.1526  0.1013  0.4517
  691PSPI    C110679   8.187  18.955   4.969 -0.0206  0.0455  0.0971
  691PSPI    C210680   8.565  18.873   4.868 -0.0728 -0.0001 -0.0634
  691PSPI    C310681   8.270  18.810   4.606 -0.2128 -0.1384  0.1251
  691PSPI   PO410682   8.248  19.204   5.072 -0.0602  0.1005  0.1329
  691PSPI   GL110683   7.998  19.273   5.381  0.2847 -0.0951 -0.1128
  691PSPI   GL210684   7.664  19.279   5.285 -0.1339 -0.2482  0.2987
  691PSPI   C1A10685   7.966  19.501   5.689  0.6869  0.0615  0.3087
  691PSPI   C2A10686   7.993  19.620   6.061  0.1345  0.1157 -0.0700
  691PSPI   C3A10687   7.826  19.524   6.392  0.0457  0.3085  0.1144
  691PSPI   C4A10688   7.774  19.080   6.628  0.1595 -0.3300  0.0088
  691PSPI   C1B10689   7.574  19.141   5.602 -0.1509  0.4673 -0.1028
  691PSPI   C2B10690   7.700  19.118   6.009 -0.0971  0.2553  0.0263
  691PSPI   C3B10691   7.388  19.086   6.323  0.1969  0.2134 -0.1818
  691PSPI   C4B10692   7.201  19.176   6.736 -0.1388 -0.0390  0.2044
  692PSPI    C110693  12.129   1.404   4.861  0.1820  0.1405  0.0343
  692PSPI    C210694  12.249   1.073   4.671  0.1894  0.1324  0.0532
  692PSPI    C310695  11.867   1.189   4.648  0.2066  0.1735 -0.0296
  692PSPI   PO410696  12.182   1.424   5.078  0.4031 -0.1634 -0.0660
  692PSPI   GL110697  12.201   1.441   5.535 -0.0411  0.0934  0.4719
  692PSPI   GL210698  12.017   1.321   5.792 -0.1891 -0.3361  0.1778
  692PSPI   C1A10699  12.387   1.664   5.810 -0.2882 -0.2956  0.0228
  692PSPI   C2A10700  12.335   2.021   6.143  0.4168  0.1551 -0.0829
  692PSPI   C3A10701  12.437   2.029   6.528  0.0745 -0.1112  0.0224
  692PSPI   C4A10702  12.747   2.082   6.730  0.3541  0.1591 -0.1907
  692PSPI   C1B10703  11.904   1.622   6.069 -0.1320  0.2025 -0.2399
  692PSPI   C2B10704  11.987   1.802   6.497  0.1510  0.1143  0.2630
  692PSPI   C3B10705  12.012   2.225   6.724 -0.1827 -0.0731 -0.2461
  692PSPI   C4B10706  11.881   2.529   7.006 -0.1963 -0.2627  0.0210
  693PSPI    C110707  10.631  15.395   5.046  0.1593  0.1466  0.1699
  693PSPI    C210708  10.801  15.742   4.944  0.0065  0.1928  0.0704
  693PSPI    C310709  10.784  15.443   4.680  0.1637  0.0989  0.1655
  693PSPI   PO410710  10.710  15.405   5.283 -0.0376  0.1460 -0.0851
  693PSPI   GL110711  10.546  15.527   5.712  0.2800  0.0626  0.0303
  693PSPI   GL210712  10.833  15.728   5.689  0.3201 -0.0491 -0.0348
  693PSPI   C1A10713  10.664  15.536   6.093 -0.0467  0.2075 -0.2038
  693PSPI   C2A10714  10.693  15.352   6.375  0.1236  0.2303 -0.0304
  693PSPI   C3A10715  10.860  15.303   6.767 -0.1061 -0.0636  0.2612
  693PSPI   C4A10716  11.048  15.488   7.168  0.2867  0.0297  0.3874
  693PSPI   C1B10717  11.159  15.744   5.957 -0.1681  0.0379  0.0056
  693PSPI   C2B10718  11.133  15.710   6.487  0.1746  0.0769 -0.2270
  693PSPI   C3B10719  10.875  15.915   6.626 -0.1352  0.1708 -0.0116
  693PSPI   C4B10720  10.483  15.802   6.580  0.0440  0.0099 -0.2881
  694POPI    C110721  17.908  15.631   5.276  0.2465  0.0381 -0.2089
  694POPI    C210722  17.728  15.276   5.237  0.1313  0.0763 -0.0324
  694POPI    C310723  17.676  15.558   4.959 -0.1533  0.1170  0.0590
  694POPI   PO410724  18.139  15.518   5.330 -0.0262 -0.2519 -0.2460
  694POPI   GL110725  18.107  15.382   5.701  0.2350  0.1949 -0.0691
  694POPI   GL210726  17.751  15.413   5.790  0.1722 -0.0246  0.8300
  694POPI   C1A10727  18.058  15.288   6.089 -0.1047 -0.1915  0.0846
  694POPI   D2A10728  18.024  15.059   6.515  0.0784  0.0047 -0.0622
  694POPI   C3A10729  18.111  15.309   6.852  0.3068 -0.0427  0.0236
  694POPI   C4A10730  17.978  15.277   7.273 -0.1803  0.2799 -0.2797
  694POPI   C1B10731  17.563  15.507   6.160  0.3359  0.1573  0.0825
  694POPI   C2B10732  17.622  15.409   6.630  0.1620  0.2240 -0.2792
  694POPI   C3B10733  17.489  15.338   7.089 -0.1418 -0.1213  0.2858
  694POPI   C4B10734  17.133  14.966   7.135  0.2993 -0.1511  0.3061
  695POPI    C110735   9.302   0.310   5.125 -0.1707  0.2502 -0.1497
  695POPI    C210736   9.075   0.232   4.805 -0.2917 -0.1115  0.0192
  695POPI    C310737   8.961   0.106   5.167  0.0336 -0.0398  0.1505
  695POPI   PO410738   9.401   0.625   5.076  0.2045 -0.2074  0.1146
  695POPI   GL110739   9.555   0.936   5.489 -0.1815  0.0755  0.0115
  695POPI   GL210740   9.419   0.705   5.578 -0.0547  0.1427 -0.1511
  695POPI   C1A10741   9.444   1.058   5.914  0.2218 -0.0038  0.0736
  695POPI   D2A10742   9.172   0.863   6.174 -0.1626 -0.1911 -0.0861
  695POPI   C3A10743   9.022   1.093   6.501 -0.0328 -0.2242  0.1337
  695POPI   C4A10744   8.768   1.338   6.897  0.1600 -0.3192 -0.0470
  695POPI   C1B10745   9.539   0.608   6.015 -0.0933  0.2555 -0.0284
  695POPI   C2B10746   9.759   0.470   6.363 -0.0125  0.0413 -0.0489
  695POPI   C3B10747  10.110   0.289   6.522  0.0247 -0.3208  0.0764
  695POPI   C4B10748  10.468   0.117   6.503  0.0303  0.1356  0.1728
  696POPI    C110749  16.127   7.659   5.506  0.0251  0.0170 -0.1066
  696POPI    C210750  15.818   7.848   5.336 -0.0854 -0.1497 -0.0934
  696POPI    C310751  16.166   7.818   5.141 -0.1220 -0.0871 -0.1686
  696POPI   PO410752  16.023   7.656   5.758  0.0623 -0.1466  0.2510
  696POPI   GL110753  16.064   7.496   6.148 -0.3556  0.3150  0.0792
  696POPI   GL210754  15.754   7.617   6.150  0.3073  0.0992 -0.4989
  696POPI   C1A10755  15.970   7.095   6.309  0.0848  0.0104 -0.1262
  696POPI   D2A10756  15.776   6.806   6.304 -0.3770 -0.2902  0.1947
  696POPI   C3A10757  15.890   6.532   6.663 -0.1164 -0.1352 -0.0061
  696POPI   C4A10758  16.167   6.400   6.914 -0.1260 -0.0642 -0.2259
  696POPI   C1B10759  15.964   7.785   6.593  0.3297  0.1882 -0.0194
  696POPI   C2B10760  15.884   7.918   6.974 -0.1407  0.2252  0.0762
  696POPI   C3B10761  15.744   7.937   7.399 -0.4589 -0.1545  0.0912
  696POPI   C4B10762  15.550   7.863   7.765  0.0415 -0.1002 -0.1421
  697POPI    C110763  13.329   3.549   5.345 -0.2119 -0.0993 -0.0002
  697POPI    C210764  13.571   3.439   5.046 -0.0063  0.2398  0.0368
  697POPI    C310765  13.191   3.535   4.970 -0.1057 -0.1951 -0.0360
  697POPI   PO410766  13.501   3.771   5.541 -0.0030 -0.0117  0.3888
  697POPI   GL110767  13.435   3.819   6.007 -0.1194  0.0744  0.1009
  697POPI   GL210768  13.263   3.517   5.924 -0.2926  0.0957  0.2957
  697POPI   C1A10769  13.188   3.843   6.420 -0.0671 -0.1007  0.0000
  697POPI   D2A10770  13.085   3.636   6.835  0.3083  0.1168  0.0484
  697POPI   C3A10771  12.785   3.408   6.799 -0.2411 -0.0698 -0.1316
  697POPI   C4A10772  12.518   3.255   6.549  0.0335  0.2565  0.1690
  697POPI   C1B10773  13.591   3.455   6.260  0.2363 -0.5102  0.1005
  697POPI   C2B10774  13.535   3.536   6.638  0.2046  0.1650 -0.1408
  697POPI   C3B10775  13.685   3.581   7.023 -0.0270 -0.1556  0.1443
  697POPI   C4B10776  13.964   3.813   7.246 -0.0712  0.0855 -0.1213
  698POPI    C110777   3.172   5.278   4.932  0.1571 -0.1260 -0.0502
  698POPI    C210778   2.885   5.543   5.018  0.1379 -0.1283 -0.1075
  698POPI    C310779   2.828   5.155   5.094  0.1864 -0.1100  0.0251
  698POPI   PO410780   3.357   5.403   5.114  0.1689  0.1382 -0.0813
  698POPI   GL110781   3.554   5.499   5.559 -0.1997  0.1238  0.2370
  698POPI   GL210782   3.509   5.199   5.543 -0.1966  0.2637  0.2340
  698POPI   C1A10783   3.781   5.582   5.937 -0.1284 -0.0269 -0.0353
  698POPI   D2A10784   4.087   5.780   6.172  0.1428 -0.2035 -0.0518
  698POPI   C3A10785   3.955   5.585   6.472  0.0566 -0.2485  0.1435
  698POPI   C4A10786   4.025   5.410   6.820  0.0935  0.0899  0.4308
  698POPI   C1B10787   3.517   5.189   5.997  0.2861  0.0886 -0.0758
  698POPI   C2B10788   3.714   5.157   6.459  0.0221  0.2257 -0.1143
  698POPI   C3B10789   3.709   5.014   6.915  0.2753  0.0226 -0.0685
  698POPI   C4B10790   3.829   4.712   7.135  0.2351 -0.4405  0.0399
  699POPI    C110791   3.123   8.803   5.252 -0.1687  0.0593  0.1975
  699POPI    C210792   3.377   8.844   4.946 -0.0036 -0.1004  0.3109
  699POPI    C310793   3.161   8.509   4.983  0.0072 -0.0987  0.3906
  699POPI   PO410794   3.305   8.871   5.470 -0.0404  0.0393  0.2342
  699POPI   GL110795   3.450   8.692   5.936  0.3288  0.0745  0.2839
  699POPI   GL210796   3.118   8.559   5.911 -0.3728 -0.1839 -0.0532
  699POPI   C1A10797   3.693   8.648   6.279  0.1168 -0.1411 -0.2578
  699POPI   D2A10798   3.888   8.647   6.640  0.0456 -0.0483 -0.2037
  699POPI   C3A10799   3.774   8.411   6.859  0.0483  0.2135  0.2556
  699POPI   C4A10800   3.480   8.153   6.999 -0.0933  0.1505 -0.0135
  699POPI   C1B10801   2.925   8.136   6.130  0.0306  0.0741 -0.0154
  699POPI   C2B10802   2.768   8.036   6.419  0.2578  0.1146 -0.5753
  699POPI   C3B10803   2.734   7.666   6.751 -0.0536 -0.2047 -0.0596
  699POPI   C4B10804   2.401   7.774   7.030  0.1117  0.3784 -0.0030
  700POPI    C110805  13.925  17.446   5.187  0.2899  0.1040  0.1529
  700POPI    C210806  13.821  17.708   5.471  0.0029  0.1559  0.0043
  700POPI    C310807  13.872  17.831   5.094 -0.0617  0.0110 -0.0526
  700POPI   PO410808  13.843  17.182   5.267 -0.3788 -0.1542 -0.3756
  700POPI   GL110809  14.109  17.013   5.623 -0.0272  0.0909  0.1541
  700POPI   GL210810  14.113  17.352   5.729 -0.0867 -0.1050 -0.2695
  700POPI   C1A10811  13.968  17.025   6.012 -0.0738 -0.4580  0.0593
  700POPI   D2A10812  13.892  17.292   6.281 -0.0131  0.2198  0.2329
  700POPI   C3A10813  13.784  17.296   6.590  0.1348 -0.2584 -0.0062
  700POPI   C4A10814  13.616  17.160   6.957  0.1358  0.2056  0.3860
  700POPI   C1B10815  14.229  17.586   6.064  0.1616  0.0878 -0.0666
  700POPI   C2B10816  14.216  17.915   6.344 -0.2362 -0.0146  0.0819
  700POPI   C3B10817  14.167  18.145   6.762  0.0174 -0.0050  0.0628
  700POPI   C4B10818  13.986  18.257   7.163  0.0335  0.0912  0.1577
  701POPI    C110819  19.327   6.977   5.379 -0.2190  0.0352  0.0284
  701POPI    C210820  19.155   7.185   5.083 -0.4815 -0.1156  0.0715
  701POPI    C310821  19.164   6.785   5.068  0.0276 -0.1073 -0.0153
  701POPI   PO410822  19.573   7.169   5.476 -0.2601 -0.4791  0.0371
  701POPI   GL110823  19.878   7.124   5.774 -0.0035  0.0384 -0.2224
  701POPI   GL210824  20.223   7.168   5.705  0.0680 -0.1218 -0.3979
  701POPI   C1A10825  19.855   6.923   6.155 -0.5371  0.1142  0.0589
  701POPI   D2A10826  19.616   7.112   6.549  0.2990  0.0215  0.0716
  701POPI   C3A10827  19.693   7.192   7.004  0.0094 -0.2445 -0.0175
  701POPI   C4A10828  19.842   6.911   7.250 -0.1451  0.2948 -0.0613
  701POPI   C1B10829  20.255   7.178   6.136 -0.1545  0.0616 -0.0894
  701POPI   C2B10830  20.159   7.181   6.533 -0.1119  0.1109 -0.0083
  701POPI   C3B10831  20.202   7.314   6.920  0.0015 -0.0294  0.0340
  701POPI   C4B10832  20.344   7.399   7.324 -0.1809 -0.0370  0.2489
  702POPI    C110833   5.803  16.616   4.475 -0.1202 -0.0708 -0.0143
  702POPI    C210834   5.803  16.819   4.130 -0.1075  0.2676  0.1805
  702POPI    C310835   6.041  16.501   4.175  0.0142  0.3219 -0.0644
  702POPI   PO410836   5.875  16.897   4.663  0.2647 -0.1374  0.0758
  702POPI   GL110837   5.800  17.234   4.919 -0.1255 -0.1724  0.2803
  702POPI   GL210838   5.964  17.041   5.200  0.1267 -0.0530  0.2288
  702POPI   C1A10839   5.588  17.347   5.196  0.2347  0.1964  0.0404
  702POPI   D2A10840   5.223  17.024   5.205 -0.0710  0.3003 -0.2021
  702POPI   C3A10841   5.157  16.665   5.404  0.1248  0.0915 -0.4090
  702POPI   C4A10842   5.384  16.349   5.406 -0.1104  0.1076  0.1895
  702POPI   C1B10843   5.652  16.932   5.459  0.0709 -0.1880  0.0035
  702POPI   C2B10844   5.697  17.220   5.738 -0.1959  0.2603 -0.0498
  702POPI   C3B10845   5.861  17.453   6.067  0.1781 -0.2281  0.2079
  702POPI   C4B10846   5.668  17.572   6.419 -0.2977  0.0911  0.2648
  703POPI    C110847   6.162   9.179   5.343  0.3134  0.1278  0.1111
  703POPI    C210848   6.485   9.137   5.111  0.0843  0.0702 -0.2055
  703POPI    C310849   6.127   9.201   4.945 -0.1078 -0.1057  0.1283
  703POPI   PO410850   6.239   9.019   5.556  0.3033  0.1253  0.2629
  703POPI   GL110851   6.651   8.913   5.603 -0.0628 -0.4684 -0.2892
  703POPI   GL210852   7.036   8.967   5.455  0.0906  0.4697  0.2011
  703POPI   C1A10853   6.772   8.753   6.011 -0.0253 -0.1793  0.1176
  703POPI   D2A10854   6.599   8.714   6.344  0.1684 -0.0740 -0.1149
  703POPI   C3A10855   6.223   8.449   6.415  0.0808 -0.1664 -0.2661
  703POPI   C4A10856   5.923   8.091   6.338  0.0561 -0.1297  0.0666
  703POPI   C1B10857   7.065   9.235   5.878 -0.2217  0.1738 -0.0468
  703POPI   C2B10858   6.738   9.219   6.183  0.0489 -0.1389  0.0518
  703POPI   C3B10859   6.716   9.205   6.664 -0.1423  0.1765 -0.1613
  703POPI   C4B10860   6.875   9.465   7.019 -0.2149 -0.2672  0.1345
  704POPI    C110861   1.629  10.901   5.044 -0.1141  0.0452  0.0273
  704POPI    C210862   1.896  10.869   4.749 -0.0167 -0.1930  0.1389
  704POPI    C310863   1.734  11.224   4.834  0.0990 -0.0875 -0.0734
  704POPI   PO410864   1.765  10.751   5.237  0.0827  0.0412  0.2019
  704POPI   GL110865   1.757  11.071   5.580  0.2497  0.2513 -0.0722
  704POPI   GL210866   2.053  10.981   5.720 -0.0901  0.2848 -0.1955
  704POPI   C1A10867   1.609  11.037   5.979 -0.1911  0.3274 -0.1345
  704POPI   D2A10868   1.702  11.070   6.417  0.0896  0.0138  0.0498
  704POPI   C3A10869   1.723  10.752   6.691 -0.2357  0.5211 -0.0375
  704POPI   C4A10870   1.588  10.357   6.785 -0.1265  0.0830 -0.1405
  704POPI   C1B10871   2.121  11.173   6.122 -0.0646  0.0127  0.0794
  704POPI   C2B10872   2.212  11.182   6.542 -0.2396 -0.0309  0.1596
  704POPI   C3B10873   2.263  11.619   6.902  0.1535  0.2610 -0.0816
  704POPI   C4B10874   2.236  11.832   7.225 -0.0310 -0.3188  0.1071
  705POPI    C110875  11.810  12.973   5.156 -0.0978 -0.0572  0.0115
  705POPI    C210876  12.128  12.731   5.133 -0.0775 -0.0270 -0.0230
  705POPI    C310877  11.784  12.627   4.958 -0.0298  0.0307 -0.1525
  705POPI   PO410878  11.755  13.010   5.397 -0.0607  0.2447 -0.0982
  705POPI   GL110879  11.789  13.377   5.604 -0.0841  0.3863 -0.1029
  705POPI   GL210880  11.737  13.273   5.947 -0.0633  0.1160 -0.2443
  705POPI   C1A10881  11.980  13.699   5.758  0.0158  0.0268 -0.2229
  705POPI   D2A10882  12.203  14.023   5.848  0.1384  0.2140 -0.2399
  705POPI   C3A10883  12.151  14.082   6.275  0.2262 -0.0456  0.1697
  705POPI   C4A10884  12.075  14.051   6.759  0.1930  0.3629  0.1543
  705POPI   C1B10885  11.952  13.175   6.233 -0.0880  0.0049  0.1392
  705POPI   C2B10886  12.066  13.086   6.535 -0.0919  0.4217 -0.0552
  705POPI   C3B10887  11.980  13.000   6.816  0.4661 -0.0012 -0.3929
  705POPI   C4B10888  11.805  12.850   7.220 -0.1888  0.0265 -0.0945
  706POPI    C110889  19.063   2.906   4.765 -0.2529  0.1746 -0.0872
  706POPI    C210890  19.039   2.984   4.373 -0.0518 -0.2531 -0.1921
  706POPI    C310891  19.391   2.889   4.536 -0.1827 -0.3525  0.0382
  706POPI   PO410892  18.814   3.063   4.854  0.0651 -0.0080 -0.0968
  706POPI   GL110893  18.685   2.979   5.204  0.0501  0.0297 -0.0199
  706POPI   GL210894  18.464   3.296   5.141  0.0068  0.1886  0.0591
  706POPI   C1A10895  18.749   3.300   5.540 -0.0619  0.5799 -0.2203
  706POPI   D2A10896  18.761   3.252   6.051  0.3932  0.0379  0.2054
  706POPI   C3A10897  18.388   3.143   6.365  0.3411  0.0804 -0.4502
  706POPI   C4A10898  18.510   3.305   6.818 -0.1042 -0.1201  0.1413
  706POPI   C1B10899  18.298   3.537   5.451  0.0649  0.6037 -0.0800
  706POPI   C2B10900  18.301   3.602   5.885 -0.1108 -0.1767  0.0636
  706POPI   C3B10901  18.449   3.715   6.319  0.0701  0.4009 -0.1542
  706POPI   C4B10902  18.443   3.885   6.706  0.4175 -0.0725 -0.2578
  707POPI    C110903   0.163  16.805   4.718  0.1051  0.0078  0.0400
  707POPI    C210904  -0.099  16.719   4.429  0.1886 -0.2862  0.0486
  707POPI    C310905  -0.128  17.065   4.628  0.0407 -0.1465 -0.2089
  707POPI   PO410906   0.158  16.563   4.908 -0.2521 -0.2237 -0.0820
  707POPI   GL110907   0.302  16.607   5.315  0.1367  0.0598 -0.0791
  707POPI   GL210908   0.227  16.882   5.596  0.2225 -0.1066 -0.0155
  707POPI   C1A10909   0.522  16.284   5.541  0.1897 -0.0051 -0.3040
  707POPI   D2A10910   0.659  15.882   5.705 -0.0387  0.5095 -0.1853
  707POPI   C3A10911   0.930  15.657   6.003  0.4026 -0.0957  0.0162
  707POPI   C4A10912   1.274  15.914   6.181 -0.2969 -0.1169 -0.0219
  707POPI   C1B10913   0.115  16.925   6.012 -0.2303 -0.1962  0.4519
  707POPI   C2B10914   0.319  16.845   6.398 -0.3390  0.0056  0.0475
  707POPI   C3B10915   0.137  16.804   6.805 -0.2754 -0.0712  0.1253
  707POPI   C4B10916   0.278  16.812   7.353 -0.1428 -0.0689 -0.1987
  708POPI    C110917  13.436  11.717   4.940 -0.0802 -0.0373 -0.0407
  708POPI    C210918  13.081  11.888   5.009 -0.1501 -0.1515 -0.1137
  708POPI    C310919  13.281  11.969   4.671 -0.1381 -0.1395 -0.1037
  708POPI   PO410920  13.585  11.744   5.145 -0.4424 -0.2678 -0.0541
  708POPI   GL110921  14.041  11.826   5.418  0.1851  0.1082  0.0672
  708POPI   GL210922  14.321  11.827   5.613  0.0859  0.1083 -0.2310
  708POPI   C1A10923  14.007  11.697   5.920  0.1681  0.3028  0.1122
  708POPI   D2A10924  14.128  11.731   6.413 -0.1905 -0.3453 -0.2727
  708POPI   C3A10925  14.448  11.928   6.589 -0.3658 -0.3886 -0.0243
  708POPI   C4A10926  14.618  11.914   7.077 -0.0254  0.1461 -0.1350
  708POPI   C1B10927  14.613  12.048   6.040 -0.1395 -0.1057 -0.1440
  708POPI   C2B10928  14.846  12.051   6.312 -0.0915  0.0615  0.0397
  708POPI   C3B10929  15.010  12.125   6.590 -0.0917  0.1783 -0.1376
  708POPI   C4B10930  15.028  12.620   6.742  0.0415  0.2203 -0.1131
  709POPI    C110931   5.232   4.911   5.237 -0.0883  0.0287  0.0177
  709POPI    C210932   5.553   5.099   5.382 -0.1023  0.0438  0.0291
  709POPI    C310933   5.527   5.021   4.990 -0.0850  0.0430  0.0280
  709POPI   PO410934   5.018   4.962   5.436  0.0664 -0.1949 -0.1548
  709POPI   GL110935   4.909   4.909   5.783  0.0773 -0.0689  0.0468
  709POPI   GL210936   4.726   4.764   5.922 -0.0342 -0.2045 -0.3294
  709POPI   C1A10937   5.213   4.774   6.110 -0.6237 -0.2129 -0.1057
  709POPI   D2A10938   5.349   4.543   6.335 -0.1217  0.0805  0.0052
  709POPI   C3A10939   5.486   4.724   6.799  0.1548  0.1499  0.3137
  709POPI   C4A10940   5.668   4.852   7.194 -0.0376  0.0088  0.1473
  709POPI   C1B10941   4.763   4.680   6.297  0.1825 -0.1223 -0.4170
  709POPI   C2B10942   4.961   4.504   6.738  0.1028 -0.0088  0.1426
  709POPI   C3B10943   5.252   4.191   6.791  0.1330 -0.0732 -0.1751
  709POPI   C4B10944   5.455   3.981   6.514  0.0867  0.0071  0.1908
  710POPI    C110945  16.029   6.467   5.370 -0.0924 -0.1866  0.0024
  710POPI    C210946  15.725   6.273   5.197  0.2653 -0.4442 -0.3546
  710POPI    C310947  15.868   6.608   5.032 -0.1197 -0.0593  0.0681
  710POPI   PO410948  15.903   6.574   5.631 -0.1057 -0.1841 -0.0041
  710POPI   GL110949  16.147   6.633   6.037  0.3066 -0.1918 -0.2025
  710POPI   GL210950  16.376   6.893   6.047  0.4813 -0.3508  0.2066
  710POPI   C1A10951  16.622   6.440   6.189 -0.1888  0.1381 -0.0866
  710POPI   D2A10952  16.858   6.012   6.194  0.4062  0.2819 -0.2184
  710POPI   C3A10953  16.911   5.698   6.458 -0.3314 -0.0515  0.0743
  710POPI   C4A10954  16.819   5.533   6.834  0.0838 -0.0763  0.1370
  710POPI   C1B10955  16.397   6.849   6.462  0.1676  0.0390  0.0067
  710POPI   C2B10956  16.445   7.052   6.944 -0.2921  0.2618 -0.0783
  710POPI   C3B10957  16.355   6.865   7.297 -0.1166  0.2812 -0.2966
  710POPI   C4B10958  16.057   6.601   7.388 -0.2579 -0.1764 -0.2511
  711POPI    C110959  17.540   7.990   5.450  0.3558 -0.3321  0.1043
  711POPI    C210960  17.533   7.603   5.347 -0.0884 -0.3011 -0.0049
  711POPI    C310961  17.220   7.837   5.264  0.1293  0.0585  0.1631
  711POPI   PO410962  17.708   7.932   5.715  0.2840  0.2054  0.1245
  711POPI   GL110963  17.903   7.867   6.118  0.5340  0.2656  0.3230
  711POPI   GL210964  18.220   7.580   6.127 -0.1621 -0.1914  0.1384
  711POPI   C1A10965  17.900   8.012   6.470 -0.1315  0.0565 -0.0027
  711POPI   D2A10966  17.716   8.102   6.858 -0.0230  0.0990 -0.0697
  711POPI   C3A10967  17.825   8.438   6.947 -0.0761 -0.0965 -0.2365
  711POPI   C4A10968  17.748   8.835   7.157  0.0488 -0.0531  0.1400
  711POPI   C1B10969  18.206   7.532   6.482 -0.0303  0.2367 -0.1997
  711POPI   C2B10970  18.233   7.379   6.877 -0.0051  0.1084 -0.2213
  711POPI   C3B10971  18.049   7.067   6.982  0.1677  0.2225 -0.2297
  711POPI   C4B10972  18.068   6.720   7.240 -0.2608  0.0515  0.2239
  712POPI    C110973   4.098  10.893   5.252 -0.2127 -0.0266  0.0695
  712POPI    C210974   4.448  10.850   5.062 -0.1309  0.0435  0.2023
  712POPI    C310975   4.306  11.216   5.140 -0.1766  0.0150  0.2535
  712POPI   PO410976   4.201  10.698   5.500 -0.2531 -0.1935 -0.2590
  712POPI   GL110977   3.860  10.794   5.850 -0.2394  0.2989  0.1119
  712POPI   GL210978   3.706  10.814   5.636  0.0220 -0.0738 -0.1264
  712POPI   C1A10979   3.711  10.776   6.276 -0.1031  0.1501 -0.2991
  712POPI   D2A10980   3.793  10.686   6.804  0.1049 -0.1608  0.0695
  712POPI   C3A10981   4.169  10.589   7.008  0.0118 -0.1228 -0.2637
  712POPI   C4A10982   4.403  10.258   7.169 -0.1323  0.1771  0.1565
  712POPI   C1B10983   3.321  10.873   5.939  0.3432  0.1063 -0.0428
  712POPI   C2B10984   3.201  10.937   6.324  0.0913  0.3122 -0.0758
  712POPI   C3B10985   3.412  11.047   6.732 -0.3608  0.2782  0.0215
  712POPI   C4B10986   3.448  10.923   7.169 -0.2717 -0.1509  0.0687
  713POPI    C110987   0.283   8.854   5.125 -0.1204  0.2426 -0.0293
  713POPI    C210988   0.588   8.715   4.907  0.0156  0.2003  0.1851
  713POPI    C310989   0.512   9.107   4.917 -0.1382  0.1816 -0.1240
  713POPI   PO410990   0.357   8.756   5.343 -0.0235 -0.1462 -0.2193
  713POPI   GL110991   0.318   8.437   5.549  0.1747 -0.3122  0.2160
  713POPI   GL210992   0.124   8.243   5.505  0.0023  0.2208 -0.0903
  713POPI   C1A10993   0.518   8.194   5.951  0.3355  0.0532  0.0808
  713POPI   D2A10994   0.616   8.146   6.405 -0.0290  0.0247  0.3164
  713POPI   C3A10995   0.911   7.830   6.555 -0.0299  0.0295  0.0002
  713POPI   C4A10996   1.056   7.711   6.844  0.3008 -0.0037  0.0180
  713POPI   C1B10997   0.262   7.848   5.808 -0.2803 -0.2107 -0.0695
  713POPI   C2B10998   0.649   7.699   6.079  0.1785  0.0576 -0.4443
  713POPI   C3B10999   0.951   7.999   6.000 -0.1004 -0.1271 -0.2616
  713POPI   C4B11000   1.340   8.135   5.989  0.1165  0.2974 -0.0718
  714POPI    C111001   7.293  10.234   5.171  0.0535  0.0327  0.0456
  714POPI    C211002   6.988  10.290   5.423  0.0562  0.0851  0.0372
  714POPI    C311003   6.982   9.983   5.167  0.0129  0.0829  0.0408
  714POPI   PO411004   7.574  10.250   5.349  0.1844  0.2229  0.0132
  714POPI   GL111005   7.615  10.349   5.833 -0.4537 -0.3735  0.0675
  714POPI   GL211006   7.304  10.256   5.890 -0.3634 -0.0422  0.0797
  714POPI   C1A11007   7.748  10.678   6.091  0.2634  0.2609  0.0260
  714POPI   D2A11008   7.818  10.926   6.357 -0.1195 -0.0609  0.0156
  714POPI   C3A11009   7.712  11.274   6.678  0.1296  0.0953  0.0400
  714POPI   C4A11010   7.300  11.265   6.838 -0.3752  0.0717 -0.2183
  714POPI   C1B11011   7.385  10.425   6.301  0.4486  0.1376 -0.0205
  714POPI   C2B11012   7.420  10.667   6.566 -0.0846  0.1117 -0.1569
  714POPI   C3B11013   6.969  10.774   6.836  0.0406 -0.3428  0.0601
  714POPI   C4B11014   6.609  10.808   7.121 -0.0132 -0.0171 -0.0299
  715POPI    C111015  13.347  16.038   5.172  0.1487 -0.1329 -0.3567
  715POPI    C211016  13.047  15.867   4.971 -0.2406 -0.1250  0.1944
  715POPI    C311017  13.414  15.710   4.954 -0.3499 -0.3524 -0.1955
  715POPI   PO411018  13.322  16.296   5.174 -0.0194 -0.1242 -0.0134
  715POPI   GL111019  13.006  16.583   5.452 -0.0889  0.0723 -0.0714
  715POPI   GL211020  13.266  16.526   5.594 -0.0815 -0.0970  0.0354
  715POPI   C1A11021  12.905  16.776   5.851 -0.2631  0.0107  0.1895
  715POPI   D2A11022  12.838  16.854   6.295 -0.0447 -0.2015 -0.0533
  715POPI   C3A11023  12.538  16.780   6.445 -0.0863 -0.0360 -0.0641
  715POPI   C4A11024  12.271  16.534   6.609 -0.1132  0.1538  0.1425
  715POPI   C1B11025  13.245  16.459   5.998 -0.0590 -0.2601  0.5001
  715POPI   C2B11026  13.238  16.406   6.415 -0.3399 -0.2079  0.1659
  715POPI   C3B11027  13.077  16.758   6.731 -0.1620 -0.0000 -0.0894
  715POPI   C4B11028  12.721  17.052   7.004 -0.0395  0.2284 -0.0786
  716POPI    C111029   6.779   7.118   5.396  0.0001  0.0816  0.1091
  716POPI    C211030   6.497   7.039   5.123  0.0247  0.1635  0.0595
  716POPI    C311031   6.883   6.996   5.029  0.0293  0.0545  0.1264
  716POPI   PO411032   6.733   7.293   5.542 -0.0035  0.0365  0.1808
  716POPI   GL111033   7.040   7.404   5.761  0.2212 -0.1617  0.3070
  716POPI   GL211034   7.221   7.678   5.712  0.2710 -0.0268  0.1574
  716POPI   C1A11035   6.974   7.369   6.173 -0.0851 -0.1568  0.1946
  716POPI   D2A11036   7.058   7.325   6.526 -0.1405  0.1443  0.0868
  716POPI   C3A11037   7.191   7.619   6.792  0.0684  0.0375  0.1825
  716POPI   C4A11038   7.150   7.994   6.636  0.0733 -0.2557 -0.1015
  716POPI   C1B11039   6.953   7.864   5.952 -0.0527  0.3549  0.2719
  716POPI   C2B11040   6.758   7.813   6.369  0.1066 -0.2082 -0.0742
  716POPI   C3B11041   6.674   7.633   6.707 -0.3226  0.2936  0.1479
  716POPI   C4B11042   6.860   7.883   7.072  0.0890  0.3754  0.0298
  717POPI    C111043  17.100   2.151   4.942  0.2375  0.2864 -0.1326
  717POPI    C211044  17.252   1.843   4.737 -0.1433 -0.1123  0.1664
  717POPI    C311045  17.072   2.143   4.543 -0.1225 -0.2737 -0.1066
  717POPI   PO411046  16.994   1.994   5.188  0.2914 -0.0017  0.2000
  717POPI   GL111047  16.958   1.910   5.648 -0.1489  0.1599 -0.1048
  717POPI   GL211048  16.784   1.683   5.493  0.2989 -0.1121  0.0531
  717POPI   C1A11049  17.171   1.773   6.105 -0.3072 -0.2073 -0.0621
  717POPI   D2A11050  17.026   1.656   6.517 -0.1180  0.0404  0.2090
  717POPI   C3A11051  17.266   1.894   6.883 -0.0667  0.0517 -0.3829
  717POPI   C4A11052  17.483   2.225   7.070  0.0547  0.1230  0.0939
  717POPI   C1B11053  16.785   1.506   5.878  0.1726  0.0809  0.0816
  717POPI   C2B11054  16.576   1.417   6.353 -0.1665  0.1448 -0.4253
  717POPI   C3B11055  16.398   1.473   6.752 -0.1321  0.2310  0.0572
  717POPI   C4B11056  16.052   1.514   7.020  0.0865 -0.2230 -0.1336
  718POPI    C111057  11.577  17.207   4.753  0.1491  0.1555 -0.0604
  718POPI    C211058  11.383  17.535   4.633 -0.1196  0.0525  0.0822
  718POPI    C311059  11.395  17.212   4.397  0.0538  0.1265 -0.0124
  718POPI   PO411060  11.755  17.356   5.029 -0.1234 -0.2407  0.0827
  718POPI   GL111061  11.801  17.595   5.487 -0.1657  0.3664 -0.0660
  718POPI   GL211062  11.478  17.435   5.437 -0.1510 -0.0181 -0.2935
  718POPI   C1A11063  12.075  17.497   5.756  0.1249 -0.0778 -0.0790
  718POPI   D2A11064  12.141  17.068   5.940  0.1121 -0.1288  0.0445
  718POPI   C3A11065  12.475  17.232   6.178 -0.1260  0.2745  0.0462
  718POPI   C4A11066  12.560  17.241   6.580 -0.1255 -0.0101  0.0630
  718POPI   C1B11067  11.185  17.342   5.641  0.1692  0.0660 -0.1865
  718POPI   C2B11068  10.899  17.283   5.859  0.1116  0.0795 -0.3377
  718POPI   C3B11069  10.784  17.171   6.218  0.2948 -0.0605 -0.2013
  718POPI   C4B11070  10.834  17.116   6.702 -0.0716  0.0194  0.0536
  719POPI    C111071   6.519   4.894   5.199  0.0905 -0.1193  0.2366
  719POPI    C211072   6.855   5.038   5.036  0.1088 -0.1255  0.2686
  719POPI    C311073   6.786   4.643   5.038 -0.0002 -0.1090  0.0678
  719POPI   PO411074   6.531   5.190   5.411  0.1801 -0.0097  0.1496
  719POPI   GL111075   6.684   5.240   5.883 -0.2556 -0.3764  0.3170
  719POPI   GL211076   6.497   5.505   6.056  0.0069  0.0041 -0.1103
  719POPI   C1A11077   6.935   4.915   6.076  0.1671 -0.4189 -0.2003
  719POPI   D2A11078   7.088   4.485   6.045 -0.0654  0.2933  0.0367
  719POPI   C3A11079   7.546   4.225   6.075  0.0126  0.0906 -0.0479
  719POPI   C4A11080   7.599   3.814   6.335  0.0632  0.1957 -0.0655
  719POPI   C1B11081   6.497   5.200   6.393 -0.0593 -0.0849 -0.0519
  719POPI   C2B11082   6.654   4.940   6.614  0.1337  0.1362  0.2843
  719POPI   C3B11083   6.806   4.914   7.030  0.0726 -0.2181 -0.0489
  719POPI   C4B11084   6.880   5.046   7.466 -0.1926  0.1051 -0.0843
  720POPI    C111085  12.693  11.578   5.493 -0.1590  0.0136  0.0679
  720POPI    C211086  12.824  11.940   5.384 -0.0362 -0.1042 -0.1846
  720POPI    C311087  12.651  11.700   5.115  0.1461 -0.3475 -0.0888
  720POPI   PO411088  12.642  11.607   5.770  0.1273 -0.0633  0.0613
  720POPI   GL111089  12.498  11.667   6.035  0.0680 -0.0290  0.2772
  720POPI   GL211090  12.187  11.593   6.040 -0.1604 -0.4679  0.4159
  720POPI   C1A11091  12.639  11.640   6.518  0.0251 -0.1008 -0.0139
  720POPI   D2A11092  12.719  11.391   6.850  0.0035  0.2493 -0.0424
  720POPI   C3A11093  12.379  11.287   7.265 -0.0306 -0.0004 -0.0956
  720POPI   C4A11094  12.377  10.947   7.611 -0.2281  0.2157 -0.3086
  720POPI   C1B11095  12.129  11.694   6.402  0.0771  0.0100 -0.1792
  720POPI   C2B11096  12.262  11.557   6.866  0.3826 -0.0767 -0.1623
  720POPI   C3B11097  12.024  11.581   7.275  0.0397 -0.2143 -0.1393
  720POPI   C4B11098  12.210  11.855   7.503  0.0849 -0.0551  0.2130
  721POPI    C111099  13.762   1.598   4.758 -0.1888  0.0209 -0.0947
  721POPI    C211100  13.524   1.322   4.924  0.0784  0.0353  0.3274
  721POPI    C311101  13.832   1.209   4.695  0.0563 -0.0082  0.3189
  721POPI   PO411102  13.645   1.835   4.990 -0.2170 -0.0949 -0.1728
  721POPI   GL111103  13.729   1.947   5.510 -0.0195 -0.1854  0.4336
  721POPI   GL211104  13.956   2.210   5.542 -0.0964  0.0401 -0.4653
  721POPI   C1A11105  13.769   1.839   5.939 -0.2581 -0.2941  0.0897
  721POPI   D2A11106  13.648   1.697   6.347 -0.0174  0.3416  0.1818
  721POPI   C3A11107  13.350   1.285   6.452 -0.0503 -0.3821  0.3782
  721POPI   C4A11108  13.136   1.211   6.147 -0.0933  0.3555  0.0450
  721POPI   C1B11109  14.364   2.113   5.802  0.2497 -0.2190  0.1664
  721POPI   C2B11110  14.198   2.051   6.174  0.2010  0.0116 -0.0398
  721POPI   C3B11111  14.286   2.126   6.549  0.2426 -0.1902  0.2994
  721POPI   C4B11112  14.427   2.529   6.706  0.0423  0.0866  0.0791
  722POPI    C111113  18.469   7.623   5.499 -0.1463 -0.1578 -0.2528
  722POPI    C211114  18.556   7.590   5.110 -0.0730  0.1134 -0.2615
  722POPI    C311115  18.462   7.947   5.264 -0.1842 -0.0067 -0.0464
  722POPI   PO411116  18.555   7.506   5.663 -0.0855  0.1664 -0.4396
  722POPI   GL111117  18.786   7.606   6.117  0.0701  0.1081  0.3302
  722POPI   GL211118  18.648   7.259   6.183  0.0531 -0.1299  0.1827
  722POPI   C1A11119  18.686   7.564   6.579 -0.0822 -0.0065  0.1119
  722POPI   D2A11120  18.736   7.511   6.895 -0.0419  0.1479 -0.3602
  722POPI   C3A11121  19.044   7.788   7.056  0.3395  0.1805 -0.0923
  722POPI   C4A11122  19.319   8.055   7.230 -0.0281  0.1007 -0.2742
  722POPI   C1B11123  18.461   7.032   6.502  0.0952 -0.4199 -0.1286
  722POPI   C2B11124  17.991   7.004   6.518  0.1347 -0.0512 -0.4007
  722POPI   C3B11125  17.767   6.741   6.749  0.2454  0.0907  0.0622
  722POPI   C4B11126  17.628   6.330   6.788 -0.1737 -0.1483 -0.2282
  723POPI    C111127  18.320   1.805   4.972 -0.0363 -0.0826  0.0717
  723POPI    C211128  18.181   1.909   4.612 -0.3996  0.0195  0.2372
  723POPI    C311129  18.491   2.105   4.771 -0.2365 -0.0270 -0.0174
  723POPI   PO411130  18.099   1.812   5.118  0.1014  0.0691 -0.0812
  723POPI   GL111131  18.089   1.860   5.519  0.1341 -0.1748 -0.2078
  723POPI   GL211132  17.783   2.115   5.602 -0.3581  0.4600 -0.0166
  723POPI   C1A11133  18.405   1.867   5.881  0.2559 -0.1597 -0.1137
  723POPI   D2A11134  18.697   1.836   6.232 -0.2315  0.3562 -0.0454
  723POPI   C3A11135  18.468   2.013   6.666 -0.0782 -0.1431  0.2261
  723POPI   C4A11136  18.466   2.262   6.920  0.1826 -0.1251  0.0592
  723POPI   C1B11137  17.932   2.054   5.991 -0.1361  0.1394 -0.3035
  723POPI   C2B11138  17.985   2.025   6.446 -0.1731  0.0645 -0.1351
  723POPI   C3B11139  17.845   2.362   6.711 -0.1848 -0.0576  0.1524
  723POPI   C4B11140  17.912   2.600   6.984 -0.0237  0.1623 -0.1233
  724POPI    C111141   0.708  17.677   4.703 -0.1791  0.0582 -0.0051
  724POPI    C211142   0.500  17.893   4.439 -0.0919  0.0930 -0.0457
  724POPI    C311143   0.704  17.571   4.317 -0.1806  0.0163  0.0063
  724POPI   PO411144   0.610  17.625   4.903 -0.3803  0.5380 -0.6737
  724POPI   GL111145   0.541  17.716   5.400  0.1199 -0.1204  0.2420
  724POPI   GL211146   0.726  17.967   5.327  0.0909 -0.3527  0.2368
  724POPI   C1A11147   0.340  17.758   5.779 -0.2385  0.1740 -0.1390
  724POPI   D2A11148   0.392  17.878   6.190 -0.3358 -0.0214 -0.1034
  724POPI   C3A11149   0.719  18.051   6.199 -0.1235 -0.0610  0.0345
  724POPI   C4A11150   1.089  17.932   6.338 -0.4590 -0.2309  0.1094
  724POPI   C1B11151   0.546  18.278   5.688  0.0043  0.0990  0.1999
  724POPI   C2B11152   0.687  18.593   6.010 -0.1235 -0.1408  0.2150
  724POPI   C3B11153   0.997  18.445   6.172  0.3804  0.0129  0.2445
  724POPI   C4B11154   1.392  18.201   6.062  0.2462 -0.0044 -0.1270
  725POPI    C111155  12.414  17.695   4.965  0.0840  0.5048  0.1800
  725POPI    C211156  12.289  17.542   5.313 -0.1007  0.0250 -0.0871
  725POPI    C311157  12.038  17.757   5.086 -0.0785  0.0650 -0.0740
  725POPI   PO411158  12.689  17.634   5.031  0.0144 -0.1009  0.4282
  725POPI   GL111159  12.907  17.572   5.418 -0.0386  0.0160  0.2650
  725POPI   GL211160  12.700  17.647   5.522 -0.1376 -0.1213 -0.0400
  725POPI   C1A11161  13.089  17.336   5.784 -0.1507 -0.1291  0.1570
  725POPI   D2A11162  12.956  17.311   6.197 -0.1313  0.0243  0.1250
  725POPI   C3A11163  12.886  17.649   6.422 -0.1800  0.0694 -0.1511
  725POPI   C4A11164  12.653  18.012   6.601 -0.1470 -0.0923  0.0824
  725POPI   C1B11165  12.687  17.652   5.939  0.0548  0.2225  0.2787
  725POPI   C2B11166  12.532  18.050   6.091 -0.1788 -0.1852 -0.1169
  725POPI   C3B11167  12.296  18.258   6.342  0.0513  0.0887 -0.0489
  725POPI   C4B11168  11.931  18.482   6.222  0.3147 -0.0154  0.0728
  726POPI    C111169   2.074  14.005   4.752  0.1834  0.1601 -0.0249
  726POPI    C211170   1.819  14.280   4.612  0.1217  0.1088 -0.0135
  726POPI    C311171   2.120  14.150   4.382 -0.1679 -0.2109 -0.2210
  726POPI   PO411172   1.798  13.734   4.799 -0.1979 -0.0441  0.1758
  726POPI   GL111173   1.534  13.560   5.162  0.2538 -0.0361  0.2195
  726POPI   GL211174   1.527  13.863   5.466 -0.0589 -0.0196  0.2183
  726POPI   C1A11175   1.243  13.427   5.439 -0.0047  0.2826 -0.1868
  726POPI   D2A11176   1.097  13.602   5.773 -0.3724  0.2494 -0.1016
  726POPI   C3A11177   1.183  13.846   6.109 -0.1062  0.3862 -0.0622
  726POPI   C4A11178   1.266  14.103   6.480 -0.1403 -0.0001 -0.3462
  726POPI   C1B11179   1.733  13.795   5.857 -0.1241 -0.0551  0.0040
  726POPI   C2B11180   1.712  13.979   6.248 -0.0107  0.0865 -0.0463
  726POPI   C3B11181   1.673  14.282   6.659 -0.5164 -0.1171  0.1948
  726POPI   C4B11182   1.845  14.452   6.848  0.0458  0.0643  0.0856
  727POPI    C111183   4.600  14.161   4.545 -0.3126  0.2508  0.1133
  727POPI    C211184   4.825  14.390   4.306 -0.1942  0.1171  0.0951
  727POPI    C311185   4.658  14.056   4.164 -0.1148  0.0313  0.2014
  727POPI   PO411186   4.475  14.365   4.745 -0.0608  0.1876 -0.2045
  727POPI   GL111187   4.545  14.699   5.022 -0.0311  0.1035  0.4157
  727POPI   GL211188   4.848  14.835   5.193 -0.3501  0.1379  0.2204
  727POPI   C1A11189   4.332  14.888   5.389  0.1074  0.0049  0.2091
  727POPI   D2A11190   4.546  15.171   5.645  0.3866 -0.1897  0.0137
  727POPI   C3A11191   4.549  15.090   6.070  0.1913 -0.1827  0.0330
  727POPI   C4A11192   4.698  15.087   6.506  0.1965  0.1320  0.1158
  727POPI   C1B11193   5.074  14.957   5.557 -0.0361  0.0532  0.0223
  727POPI   C2B11194   5.053  15.201   5.964 -0.3471  0.1740  0.2175
  727POPI   C3B11195   5.302  15.651   6.154  0.1365 -0.2402 -0.0249
  727POPI   C4B11196   5.245  15.945   6.598  0.0267 -0.0357  0.1088
  728POPI    C111197  13.804  14.592   5.013 -0.5112 -0.2027 -0.0811
  728POPI    C211198  13.704  14.814   4.695 -0.1209  0.1996  0.0661
  728POPI    C311199  14.082  14.693   4.743 -0.2646 -0.2304  0.1578
  728POPI   PO411200  13.531  14.490   5.095 -0.3803  0.0124 -0.1080
  728POPI   GL111201  13.401  14.734   5.457 -0.0637  0.0894  0.2027
  728POPI   GL211202  13.714  14.755   5.470  0.3314 -0.5240  0.1357
  728POPI   C1A11203  13.325  15.052   5.564  0.3251 -0.0107  0.3171
  728POPI   D2A11204  13.352  15.153   5.923  0.3083 -0.0868 -0.1283
  728POPI   C3A11205  13.725  15.229   6.113  0.1297 -0.0280  0.1155
  728POPI   C4A11206  14.179  15.174   6.176  0.1245 -0.4035 -0.4740
  728POPI   C1B11207  13.676  14.741   5.928 -0.0264  0.0185  0.5171
  728POPI   C2B11208  13.468  14.876   6.420  0.0922 -0.0972  0.1970
  728POPI   C3B11209  13.279  15.176   6.735  0.2100  0.0085  0.2993
  728POPI   C4B11210  13.244  15.538   6.879  0.0210 -0.1259 -0.3769
  729POPI    C111211   0.546   5.682   5.303 -0.0658  0.1471 -0.0493
  729POPI    C211212   0.735   6.014   5.185  0.2296  0.0486  0.1364
  729POPI    C311213   0.854   5.658   5.049  0.0053  0.0049  0.0496
  729POPI   PO411214   0.566   5.688   5.591  0.4364  0.0934  0.2382
  729POPI   GL111215   0.162   5.801   5.911  0.0392 -0.3501  0.0639
  729POPI   GL211216   0.280   5.506   5.957  0.2367 -0.0428  0.0776
  729POPI   C1A11217   0.304   5.944   6.238 -0.1971 -0.2226  0.1953
  729POPI   D2A11218   0.291   5.759   6.660  0.0118  0.0504 -0.2131
  729POPI   C3A11219   0.402   6.037   6.921  0.2043 -0.4013 -0.1105
  729POPI   C4A11220   0.260   6.365   7.133  0.0436  0.0790  0.1055
  729POPI   C1B11221   0.076   5.175   6.093  0.2398 -0.0678 -0.0028
  729POPI   C2B11222  -0.137   4.797   6.267  0.1670  0.2452 -0.4400
  729POPI   C3B11223  -0.476   4.753   6.597 -0.1946  0.5292 -0.2229
  729POPI   C4B11224  -0.596   4.870   7.037  0.1313  0.1176  0.0931
  730POPI    C111225  12.458   8.851   5.715  0.1557  0.4558  0.2154
  730POPI    C211226  12.094   8.947   5.580  0.0524 -0.0610  0.1028
  730POPI    C311227  12.419   9.056   5.374 -0.0551  0.0762  0.0036
  730POPI   PO411228  12.410   8.885   5.993 -0.2736 -0.0122  0.1769
  730POPI   GL111229  12.518   9.060   6.457  0.1221  0.0891  0.5103
  730POPI   GL211230  12.375   9.304   6.278  0.1381  0.2735 -0.1554
  730POPI   C1A11231  12.798   9.361   6.655 -0.0611  0.2727 -0.1810
  730POPI   D2A11232  12.895   9.541   7.004 -0.1204  0.4246 -0.1280
  730POPI   C3A11233  12.828   9.210   7.357 -0.0572 -0.1803  0.0528
  730POPI   C4A11234  12.657   9.276   7.833 -0.5035  0.2146  0.2864
  730POPI   C1B11235  12.108   9.177   6.675  0.2230 -0.0117 -0.1068
  730POPI   C2B11236  12.019   9.428   6.989 -0.1177 -0.2696 -0.1757
  730POPI   C3B11237  11.853   9.680   7.215 -0.3008 -0.0788  0.0292
  730POPI   C4B11238  11.548   9.698   7.564 -0.2114  0.0546  0.1491
  731POPI    C111239  11.765   1.149   5.247  0.1441  0.0392  0.1370
  731POPI    C211240  11.721   0.835   5.003  0.0014  0.0947  0.0905
  731POPI    C311241  12.085   0.943   5.127  0.0664  0.0129 -0.0282
  731POPI   PO411242  11.634   1.103   5.414 -0.2052 -0.1109  0.2421
  731POPI   GL111243  11.525   1.308   5.791  0.0218  0.0104  0.2370
  731POPI   GL211244  11.153   1.423   5.793 -0.1344 -0.0551 -0.1396
  731POPI   C1A11245  11.751   1.164   6.246  0.3121 -0.0134  0.0167
  731POPI   D2A11246  11.893   1.388   6.664 -0.4084 -0.1013  0.0315
  731POPI   C3A11247  11.782   1.355   7.078  0.0008 -0.1508 -0.5706
  731POPI   C4A11248  11.690   1.659   7.370  0.1061  0.5454  0.0730
  731POPI   C1B11249  11.191   1.362   6.249 -0.0832  0.0291  0.1588
  731POPI   C2B11250  11.003   1.688   6.544  0.0509  0.2122  0.5776
  731POPI   C3B11251  11.151   1.968   6.827  0.2435  0.1556 -0.2500
  731POPI   C4B11252  11.576   1.977   6.864  0.0841 -0.0249  0.0931
  732POPI    C111253   6.682   1.792   4.899 -0.1946 -0.2221 -0.2493
  732POPI    C211254   6.610   2.136   4.709 -0.2865 -0.2599 -0.2837
  732POPI    C311255   6.938   1.925   4.623 -0.1599 -0.1133 -0.1651
  732POPI   PO411256   6.693   1.804   5.125 -0.1193 -0.1831 -0.2772
  732POPI   GL111257   6.791   1.761   5.500 -0.0322  0.0129  0.0988
  732POPI   GL211258   6.877   2.124   5.525  0.0829  0.2951  0.1778
  732POPI   C1A11259   7.147   1.744   5.706 -0.3486 -0.1666  0.0794
  732POPI   D2A11260   7.289   1.828   6.201  0.0146  0.0034 -0.5821
  732POPI   C3A11261   7.661   1.813   6.488 -0.1023  0.1308 -0.0625
  732POPI   C4A11262   8.041   1.851   6.712 -0.3160 -0.2414  0.0085
  732POPI   C1B11263   6.852   2.058   6.031  0.0735 -0.1966  0.0265
  732POPI   C2B11264   6.799   1.846   6.328  0.0469 -0.0325  0.3616
  732POPI   C3B11265   6.940   1.522   6.515  0.0576 -0.2109  0.2108
  732POPI   C4B11266   7.208   1.458   6.929  0.3492 -0.3614  0.1911
  733POPI    C111267  17.570   9.485   5.330  0.2149 -0.0920  0.0133
  733POPI    C211268  17.928   9.607   5.197  0.2043 -0.1025 -0.0250
  733POPI    C311269  17.837   9.217   5.199  0.1034 -0.0817 -0.2420
  733POPI   PO411270  17.380   9.683   5.176 -0.0753 -0.0009 -0.3282
  733POPI   GL111271  16.915   9.504   5.304 -0.1055  0.0652  0.0022
  733POPI   GL211272  17.003   9.305   5.147 -0.0096 -0.1673 -0.3440
  733POPI   C1A11273  16.894   9.409   5.711 -0.0471 -0.0096 -0.3301
  733POPI   D2A11274  17.072   9.110   6.043 -0.0227 -0.1424 -0.2411
  733POPI   C3A11275  17.320   9.191   6.342 -0.0373  0.1117 -0.1793
  733POPI   C4A11276  17.591   9.434   6.562 -0.0772 -0.1898  0.2195
  733POPI   C1B11277  17.279   9.163   5.530 -0.1516  0.2297  0.0566
  733POPI   C2B11278  17.501   9.382   5.851 -0.3785 -0.3018  0.2949
  733POPI   C3B11279  17.284   9.621   6.071 -0.0059 -0.0345 -0.3198
  733POPI   C4B11280  17.026  10.001   6.132  0.0907  0.1294 -0.0612
  734POPI    C111281  10.357   6.117   5.522 -0.0948 -0.0389 -0.2976
  734POPI    C211282  10.710   6.103   5.335  0.1502 -0.1022  0.1551
  734POPI    C311283  10.409   5.871   5.211  0.2037  0.0847 -0.3491
  734POPI   PO411284  10.434   6.053   5.814 -0.0678 -0.1193  0.0645
  734POPI   GL111285  10.457   6.211   6.200 -0.0094 -0.1003 -0.1792
  734POPI   GL211286  10.511   6.587   6.187 -0.1597 -0.0844 -0.1277
  734POPI   C1A11287  10.421   6.121   6.656  0.1569 -0.1101 -0.1566
  734POPI   D2A11288  10.278   6.051   7.072 -0.1367  0.2646  0.1472
  734POPI   C3A11289  10.521   6.013   7.511  0.3862  0.2581 -0.1090
  734POPI   C4A11290  10.584   6.033   7.940 -0.0102 -0.1132 -0.0770
  734POPI   C1B11291  10.848   6.387   6.494 -0.0002 -0.3054  0.1481
  734POPI   C2B11292  11.128   6.558   6.790  0.1099 -0.2794 -0.0209
  734POPI   C3B11293  11.454   6.848   6.875  0.0799 -0.0954 -0.3508
  734POPI   C4B11294  11.572   7.241   6.809 -0.0621 -0.0790 -0.2109
  735POPI    C111295  10.042   2.522   5.126 -0.1638 -0.1048  0.0325
  735POPI    C211296   9.906   2.405   4.768 -0.0117 -0.0729 -0.0364
  735POPI    C311297   9.990   2.790   4.833  0.0695 -0.0963 -0.0023
  735POPI   PO411298   9.858   2.302   5.361  0.1793 -0.1778  0.2101
  735POPI   GL111299   9.622   2.096   5.636  0.0959  0.0275 -0.1729
  735POPI   GL211300   9.499   1.901   5.403 -0.4505  0.1912 -0.0314
  735POPI   C1A11301   9.863   1.900   5.867  0.1407 -0.0257 -0.2080
  735POPI   D2A11302   9.819   1.799   6.383  0.3867 -0.0463 -0.2533
  735POPI   C3A11303  10.185   2.036   6.714 -0.0890 -0.0173  0.3289
  735POPI   C4A11304  10.351   2.438   6.824  0.2932 -0.0473 -0.2696
  735POPI   C1B11305   9.379   1.712   5.855  0.1019 -0.2184 -0.2286
  735POPI   C2B11306   9.152   1.453   6.113  0.1461  0.0740 -0.2884
  735POPI   C3B11307   9.065   1.717   6.405  0.2386 -0.1407 -0.0339
  735POPI   C4B11308   8.960   2.015   6.700  0.2125 -0.1372  0.1465
  736POPI    C111309   0.683  16.750   4.592  0.1605 -0.0647 -0.0380
  736POPI    C211310   0.522  16.390   4.525  0.0585  0.0080 -0.1911
  736POPI    C311311   0.450  16.691   4.272 -0.1159  0.2205  0.1051
  736POPI   PO411312   0.687  16.869   4.904  0.0618 -0.0514  0.1582
  736POPI   GL111313   0.862  17.238   5.148 -0.2388 -0.1977  0.0321
  736POPI   GL211314   1.012  16.889   5.263  0.0684 -0.1043 -0.0126
  736POPI   C1A11315   0.787  17.225   5.597  0.2170  0.1421  0.2275
  736POPI   D2A11316   0.572  17.086   5.932  0.0272 -0.1954 -0.1460
  736POPI   C3A11317   0.221  17.370   6.163  0.2104  0.0262  0.2725
  736POPI   C4A11318   0.122  17.659   6.495  0.0709 -0.0424 -0.0888
  736POPI   C1B11319   0.766  16.692   5.618  0.0455  0.2202 -0.1111
  736POPI   C2B11320   0.495  16.563   5.997 -0.0936  0.1917 -0.4078
  736POPI   C3B11321   0.363  16.256   6.300 -0.1025  0.1032  0.0146
  736POPI   C4B11322   0.158  16.017   6.485 -0.3109  0.0425 -0.1126
  737POPI    C111323   3.582   0.408   4.493 -0.0298  0.1730  0.0050
  737POPI    C211324   3.826   0.674   4.664  0.0101  0.0126  0.2022
  737POPI    C311325   3.965   0.314   4.560 -0.0034  0.1224 -0.2124
  737POPI   PO411326   3.231   0.509   4.642  0.0287  0.0518  0.3780
  737POPI   GL111327   3.145   0.471   5.108 -0.1975  0.0120  0.2216
  737POPI   GL211328   2.943   0.598   5.190  0.0950 -0.2025 -0.1832
  737POPI   C1A11329   3.409   0.355   5.501  0.0726 -0.0904  0.2301
  737POPI   D2A11330   3.759   0.410   5.925  0.1573  0.2675 -0.0874
  737POPI   C3A11331   3.760   0.602   6.321  0.0729  0.0988  0.0342
  737POPI   C4A11332   3.509   0.496   6.771 -0.1634  0.1822  0.3577
  737POPI   C1B11333   2.962   0.204   5.548 -0.0129 -0.0549  0.2147
  737POPI   C2B11334   3.150   0.263   5.950  0.1017  0.0625 -0.3402
  737POPI   C3B11335   3.204   0.481   6.292 -0.2082  0.1310 -0.0047
  737POPI   C4B11336   3.008   0.391   6.770 -0.1641 -0.0481  0.0863
  738POPI    C111337   4.996   0.784   4.946 -0.0327 -0.1232  0.0439
  738POPI    C211338   4.806   0.877   4.606 -0.0775 -0.1934  0.0497
  738POPI    C311339   4.602   0.855   4.950 -0.0366 -0.1468  0.0770
  738POPI   PO411340   5.179   0.568   4.909  0.0461 -0.3032  0.0870
  738POPI   GL111341   5.493   0.306   5.084  0.0838  0.0593 -0.0049
  738POPI   GL211342   5.192   0.122   5.166 -0.0756 -0.0248  0.0679
  738POPI   C1A11343   5.592   0.354   5.439  0.2840 -0.1778  0.2847
  738POPI   D2A11344   5.633   0.218   5.822 -0.1228  0.0505 -0.0715
  738POPI   C3A11345   5.470   0.169   6.122 -0.1053 -0.2259 -0.1431
  738POPI   C4A11346   5.348  -0.120   6.449 -0.3328 -0.3433 -0.4025
  738POPI   C1B11347   5.318  -0.043   5.519 -0.2001 -0.2729 -0.2978
  738POPI   C2B11348   5.339  -0.196   5.837 -0.1012  0.0496  0.0128
  738POPI   C3B11349   5.109  -0.314   6.023 -0.1009 -0.0869 -0.1193
  738POPI   C4B11350   5.486  -0.654   6.219 -0.0653 -0.0447  0.0334
  739POPI    C111351  18.600  17.952   5.245  0.0231 -0.0906 -0.0592
  739POPI    C211352  18.627  17.752   5.590  0.1046 -0.0213 -0.0249
  739POPI    C311353  18.923  17.729   5.322 -0.0865 -0.3075 -0.2168
  739POPI   PO411354  18.372  18.193   5.395  0.0915  0.1934  0.0154
  739POPI   GL111355  18.108  18.144   5.696 -0.0497  0.2842 -0.0590
  739POPI   GL211356  18.145  17.782   5.837  0.0607 -0.2954  0.4016
  739POPI   C1A11357  18.440  18.024   6.079  0.0387 -0.3080  0.0229
  739POPI   D2A11358  18.798  17.940   6.122  0.0430 -0.1635 -0.3390
  739POPI   C3A11359  18.806  18.145   6.528 -0.0850 -0.2168  0.1620
  739POPI   C4A11360  19.040  18.304   6.774 -0.1953  0.1040  0.0116
  739POPI   C1B11361  17.882  17.838   6.181 -0.0404  0.0412 -0.0620
  739POPI   C2B11362  17.833  18.006   6.625 -0.0229  0.0341 -0.0773
  739POPI   C3B11363  18.126  18.181   6.897  0.1842 -0.2352 -0.0920
  739POPI   C4B11364  18.502  18.341   6.951  0.2383  0.0123  0.1892
  740POPI    C111365   0.058  13.887   4.712 -0.1432  0.0424  0.2221
  740POPI    C211366   0.085  14.233   4.514  0.3865 -0.0653  0.0896
  740POPI    C311367  -0.131  13.932   4.363  0.3403  0.0357 -0.0483
  740POPI   PO411368   0.362  13.945   4.864  0.1009 -0.0786 -0.3392
  740POPI   GL111369   0.300  14.245   5.130 -0.4029  0.1787 -0.1436
  740POPI   GL211370   0.096  14.306   5.468  0.2957 -0.0750  0.0488
  740POPI   C1A11371   0.558  14.467   5.448  0.0373 -0.2014 -0.0615
  740POPI   D2A11372   0.702  14.662   5.879 -0.0554  0.2675 -0.0728
  740POPI   C3A11373   1.223  14.464   5.985  0.1504  0.0394  0.3483
  740POPI   C4A11374   1.469  14.219   5.762  0.1566  0.0751  0.1159
  740POPI   C1B11375   0.198  14.356   5.926 -0.0524  0.1005  0.0195
  740POPI   C2B11376   0.391  14.201   6.149  0.0723 -0.2047  0.0262
  740POPI   C3B11377   0.203  13.934   6.416  0.0869  0.1640  0.3115
  740POPI   C4B11378   0.395  13.830   6.796 -0.1895  0.1102 -0.2516
  741POPS   CNO11379  18.428   2.578   5.070  0.0860  0.2932 -0.0128
  741POPS   PO411380  18.486   2.132   5.304  0.1043  0.1681 -0.1242
  741POPS   GL111381  18.686   2.104   5.548 -0.1792  0.0518 -0.3141
  741POPS   GL211382  19.012   1.996   5.597  0.2477  0.1699 -0.0567
  741POPS   C1A11383  18.818   2.259   5.974  0.1237  0.1481  0.2182
  741POPS   D2A11384  18.792   2.352   6.393 -0.1942 -0.1422  0.1212
  741POPS   C3A11385  19.022   2.141   6.643  0.4859 -0.1076 -0.0231
  741POPS   C4A11386  19.212   2.087   7.022  0.0353 -0.2680 -0.2432
  741POPS   C1B11387  18.935   1.643   5.778 -0.2904  0.0216 -0.0804
  741POPS   C2B11388  18.929   1.265   5.874  0.1217 -0.0448 -0.0679
  741POPS   C3B11389  18.730   0.913   6.117 -0.3884 -0.3473  0.1451
  741POPS   C4B11390  18.976   0.559   6.312  0.0510  0.2052 -0.1053
  742POPS   CNO11391  13.918  10.081   5.624 -0.3106  0.2332  0.2415
  742POPS   PO411392  13.738  10.458   5.676  0.1349 -0.0300  0.1845
  742POPS   GL111393  13.530  10.530   5.993  0.1789 -0.1416  0.0600
  742POPS   GL211394  13.737  10.759   6.150  0.0461 -0.0569 -0.3384
  742POPS   C1A11395  13.141  10.660   6.310  0.3707  0.1599  0.1302
  742POPS   D2A11396  12.844  10.440   6.644  0.1665  0.0962  0.0457
  742POPS   C3A11397  12.971  10.661   7.032  0.1801  0.0877  0.0441
  742POPS   C4A11398  13.255  10.793   7.228 -0.2349  0.2206  0.1347
  742POPS   C1B11399  14.029  10.798   6.465  0.1288 -0.0166  0.0644
  742POPS   C2B11400  14.113  10.431   6.625  0.0645 -0.1465 -0.0325
  742POPS   C3B11401  14.432  10.342   6.923 -0.0791  0.2751 -0.1396
  742POPS   C4B11402  14.686  10.134   6.981  0.2863  0.0645  0.0064
  743POPS   CNO11403   6.426   2.194   5.311 -0.0149  0.1027  0.1129
  743POPS   PO411404   6.018   2.378   5.483  0.0878 -0.1504 -0.1679
  743POPS   GL111405   6.488   2.431   5.796  0.1808 -0.1202  0.0699
  743POPS   GL211406   6.206   2.452   5.946  0.2386 -0.0613  0.0309
  743POPS   C1A11407   6.703   2.462   6.208  0.1380  0.2927 -0.1360
  743POPS   D2A11408   6.758   2.290   6.585  0.2145  0.0056  0.0134
  743POPS   C3A11409   7.213   2.057   6.675  0.0065 -0.1901  0.1108
  743POPS   C4A11410   7.614   2.075   6.913 -0.1357  0.4372  0.1009
  743POPS   C1B11411   6.230   2.826   6.249  0.0677  0.1159  0.0650
  743POPS   C2B11412   6.169   3.038   6.652  0.0285  0.0363 -0.2974
  743POPS   C3B11413   6.394   3.140   7.025  0.0434 -0.0688 -0.0705
  743POPS   C4B11414   6.261   3.200   7.477 -0.2379 -0.0448  0.3265
  744POPS   CNO11415  11.808   9.957   5.254 -0.2222 -0.1429 -0.0130
  744POPS   PO411416  11.525   9.831   5.421 -0.0015 -0.1898 -0.3222
  744POPS   GL111417  11.494   9.664   5.865 -0.0619 -0.0593  0.2215
  744POPS   GL211418  11.178   9.401   5.937  0.0629 -0.0212  0.0880
  744POPS   C1A11419  11.372   9.764   6.266  0.0033 -0.0998 -0.0417
  744POPS   D2A11420  11.007   9.805   6.527  0.1527  0.1407 -0.2653
  744POPS   C3A11421  11.053  10.061   6.829 -0.0793  0.2443 -0.0790
  744POPS   C4A11422  11.131  10.085   7.283 -0.0718  0.2057  0.0895
  744POPS   C1B11423  10.818   9.375   6.188 -0.1504  0.1164  0.0522
  744POPS   C2B11424  10.522   9.596   6.484  0.0533  0.1594 -0.0383
  744POPS   C3B11425  10.659   9.790   6.863  0.1810  0.2595 -0.0242
  744POPS   C4B11426  10.634  10.251   7.014 -0.2172 -0.2300  0.0626
  745POPS   CNO11427  10.652   3.999   5.210  0.1293  0.1448  0.1441
  745POPS   PO411428  10.617   4.377   5.598 -0.2237  0.0789 -0.0717
  745POPS   GL111429  10.302   4.092   5.790  0.0999  0.3666  0.2239
  745POPS   GL211430  10.369   3.758   5.780  0.1193  0.0294  0.0890
  745POPS   C1A11431  10.229   4.054   6.227 -0.1264 -0.3433 -0.0891
  745POPS   D2A11432  10.093   3.952   6.672 -0.5205 -0.0930  0.1490
  745POPS   C3A11433   9.825   3.955   6.903  0.0505  0.2321 -0.1284
  745POPS   C4A11434   9.383   4.120   7.053  0.1992  0.2016 -0.2797
  745POPS   C1B11435  10.377   3.565   6.206 -0.0992  0.2071  0.0901
  745POPS   C2B11436  10.246   3.477   6.622 -0.0565  0.0601  0.1574
  745POPS   C3B11437   9.892   3.455   6.809 -0.0838  0.0563 -0.1563
  745POPS   C4B11438   9.508   3.537   7.018 -0.2840  0.2870  0.0366
  746POPS   CNO11439  15.780   3.793   5.106 -0.0942  0.0492 -0.3088
  746POPS   PO411440  15.704   4.183   5.291 -0.2955 -0.0179 -0.0610
  746POPS   GL111441  15.588   3.795   5.651  0.1026 -0.3040  0.1264
  746POPS   GL211442  15.706   3.420   5.699  0.1072 -0.0095  0.0069
  746POPS   C1A11443  15.640   3.786   6.106  0.2470 -0.1096 -0.2080
  746POPS   D2A11444  15.711   3.672   6.495  0.1618  0.2107  0.0083
  746POPS   C3A11445  15.676   3.488   6.901 -0.1093 -0.0735 -0.0701
  746POPS   C4A11446  15.575   3.174   7.152  0.2309 -0.3302 -0.0060
  746POPS   C1B11447  15.898   3.179   6.044 -0.1970  0.1409  0.0722
  746POPS   C2B11448  16.106   2.981   6.423 -0.1696 -0.0587  0.1718
  746POPS   C3B11449  16.518   3.104   6.652 -0.0790 -0.0851  0.2383
  746POPS   C4B11450  16.864   3.184   7.038 -0.2269  0.2273 -0.0793
  747POPS   CNO11451   0.208  15.115   4.957 -0.1970 -0.2409 -0.0026
  747POPS   PO411452   0.043  14.680   4.876  0.1610  0.0673 -0.2223
  747POPS   GL111453   0.160  14.761   5.297  0.2291  0.0618  0.1167
  747POPS   GL211454  -0.036  14.761   5.418  0.1750 -0.1824  0.1238
  747POPS   C1A11455   0.469  15.008   5.593 -0.0053  0.1956  0.2015
  747POPS   D2A11456   0.294  15.306   5.828  0.0341 -0.0458  0.0180
  747POPS   C3A11457   0.594  15.297   6.168 -0.1243  0.2330 -0.0414
  747POPS   C4A11458   0.571  15.023   6.508 -0.2756 -0.1734  0.0659
  747POPS   C1B11459   0.011  14.799   5.785 -0.1146 -0.3921 -0.0776
  747POPS   C2B11460   0.275  14.829   6.160 -0.4038  0.3113  0.0070
  747POPS   C3B11461   0.401  14.598   6.478 -0.1945  0.4483  0.0038
  747POPS   C4B11462   0.508  14.324   6.753  0.3819 -0.1043 -0.3488
  748POPS   CNO11463  10.001  11.979   5.504 -0.0621 -0.1369 -0.3398
  748POPS   PO411464  10.048  12.440   5.596  0.0943 -0.1666 -0.1321
  748POPS   GL111465   9.910  12.611   5.971  0.1065 -0.0014  0.0008
  748POPS   GL211466  10.103  12.426   6.107  0.2214  0.0219  0.1217
  748POPS   C1A11467   9.631  12.447   6.324  0.2412 -0.3396 -0.0033
  748POPS   D2A11468   9.247  12.448   6.611  0.4758 -0.1426  0.0074
  748POPS   C3A11469   9.150  12.792   6.862  0.1869  0.0944 -0.1555
  748POPS   C4A11470   9.057  13.210   7.094 -0.1581 -0.0089  0.0875
  748POPS   C1B11471  10.084  12.208   6.495  0.1178  0.1739 -0.3088
  748POPS   C2B11472  10.055  12.330   6.830  0.3498 -0.1359  0.0212
  748POPS   C3B11473  10.188  12.620   7.021 -0.2342 -0.1183  0.4706
  748POPS   C4B11474   9.976  13.078   7.127  0.0533  0.3594 -0.0395
  749POPS   CNO11475   7.673   3.563   4.884  0.1254  0.0544  0.0122
  749POPS   PO411476   7.684   3.584   5.292 -0.0737  0.2938  0.0312
  749POPS   GL111477   8.032   3.486   5.551 -0.1570  0.2211 -0.0051
  749POPS   GL211478   8.220   3.744   5.534  0.2667 -0.0597 -0.0383
  749POPS   C1A11479   8.012   3.253   5.984 -0.4303  0.2103  0.1417
  749POPS   D2A11480   8.081   3.026   6.387  0.3312  0.2444  0.1093
  749POPS   C3A11481   7.941   3.388   6.735 -0.1786  0.0589  0.1253
  749POPS   C4A11482   7.692   3.549   6.997 -0.1376  0.0086  0.0283
  749POPS   C1B11483   8.303   3.625   5.949  0.3064 -0.0403  0.0530
  749POPS   C2B11484   8.124   3.675   6.349  0.1586  0.0044  0.1287
  749POPS   C3B11485   7.954   3.893   6.719 -0.0421  0.1681 -0.0645
  749POPS   C4B11486   8.132   4.139   7.061 -0.0285  0.1842  0.1514
  750POPS   CNO11487   2.020  14.360   5.059 -0.1374 -0.0195 -0.2392
  750POPS   PO411488   2.233  14.672   5.102  0.0798 -0.1069 -0.0783
  750POPS   GL111489   2.300  15.046   5.402  0.2107 -0.0237  0.3718
  750POPS   GL211490   2.612  15.089   5.281  0.3501 -0.0728 -0.2249
  750POPS   C1A11491   2.411  15.156   5.836 -0.0016  0.1603  0.1136
  750POPS   D2A11492   2.361  15.150   6.224 -0.3547  0.2634  0.0563
  750POPS   C3A11493   2.601  14.923   6.540 -0.0651  0.0113 -0.0694
  750POPS   C4A11494   2.542  14.624   6.714 -0.0967 -0.0737 -0.3172
  750POPS   C1B11495   2.807  14.886   5.638  0.0420  0.0110 -0.4394
  750POPS   C2B11496   2.834  14.862   6.040 -0.1146 -0.0694 -0.0433
  750POPS   C3B11497   3.104  14.936   6.284 -0.1723  0.1757 -0.1860
  750POPS   C4B11498   3.160  14.556   6.577  0.2328  0.0060 -0.2118
  751POPS   CNO11499  10.232   3.710   5.056 -0.2974 -0.1093  0.0128
  751POPS   PO411500  10.271   3.454   5.421 -0.3045 -0.1615 -0.1600
  751POPS   GL111501  10.403   3.252   5.761  0.1850  0.0540 -0.1042
  751POPS   GL211502  10.444   2.939   5.798  0.1631  0.0434 -0.2770
  751POPS   C1A11503  10.232   3.080   6.206  0.0547 -0.1468 -0.1779
  751POPS   D2A11504  10.226   2.879   6.698 -0.1055 -0.1139  0.0642
  751POPS   C3A11505  10.011   2.921   7.043  0.0200  0.0815  0.0302
  751POPS   C4A11506   9.711   3.089   7.209 -0.0091  0.0971  0.0990
  751POPS   C1B11507  10.480   2.671   6.192  0.2327 -0.1290 -0.1312
  751POPS   C2B11508  10.789   2.652   6.455 -0.0263  0.1898  0.0236
  751POPS   C3B11509  10.823   2.649   6.922 -0.1521  0.0983 -0.2249
  751POPS   C4B11510  10.808   2.661   7.440 -0.0303  0.1580  0.1747
  752POPS   CNO11511   5.371  10.226   5.038  0.1717 -0.3939 -0.2200
  752POPS   PO411512   4.953  10.261   5.182  0.1512 -0.2760  0.3383
  752POPS   GL111513   4.941  10.372   5.658 -0.0911  0.3147  0.1210
  752POPS   GL211514   4.693  10.235   5.782  0.1032  0.1960 -0.0784
  752POPS   C1A11515   5.150  10.349   6.200  0.0661  0.1099 -0.1549
  752POPS   D2A11516   5.308  10.732   6.493  0.0833 -0.0479  0.0491
  752POPS   C3A11517   5.583  10.594   6.882  0.1173  0.1996 -0.1432
  752POPS   C4A11518   5.603  10.555   7.339 -0.1984 -0.2853 -0.4735
  752POPS   C1B11519   4.709  10.005   6.194 -0.1161  0.1131  0.0674
  752POPS   C2B11520   5.001   9.931   6.416 -0.1438  0.1210  0.0564
  752POPS   C3B11521   5.242   9.646   6.565  0.0784  0.0591  0.3405
  752POPS   C4B11522   5.221   9.289   6.766 -0.1350  0.2326  0.0553
  753POPS   CNO11523  19.279  12.968   5.022 -0.0106  0.4790 -0.0689
  753POPS   PO411524  19.240  12.561   5.108 -0.0634 -0.0723 -0.3277
  753POPS   GL111525  19.438  12.768   5.489 -0.1332 -0.1276 -0.0279
  753POPS   GL211526  19.565  12.531   5.609  0.0596 -0.2212  0.0422
  753POPS   C1A11527  19.314  12.867   5.944 -0.0722 -0.4314  0.0519
  753POPS   D2A11528  19.462  12.887   6.266  0.1512 -0.0237 -0.2255
  753POPS   C3A11529  19.667  12.516   6.493  0.1611  0.1170 -0.0998
  753POPS   C4A11530  19.632  12.294   6.924 -0.1037  0.0382  0.0573
  753POPS   C1B11531  19.645  12.400   6.034 -0.0087  0.1320 -0.2284
  753POPS   C2B11532  19.543  12.055   6.387 -0.1033 -0.0258 -0.0076
  753POPS   C3B11533  19.628  11.803   6.674  0.3454  0.1737  0.1903
  753POPS   C4B11534  19.872  11.739   6.934  0.2331 -0.0815 -0.3379
  754POPS   CNO11535  13.933   3.792   5.159  0.0683 -0.0343  0.0905
  754POPS   PO411536  14.228   3.612   5.471 -0.0154 -0.2333 -0.2114
  754POPS   GL111537  14.381   3.306   5.727 -0.0702 -0.1266 -0.0193
  754POPS   GL211538  14.611   3.459   5.813  0.1304  0.1276  0.0352
  754POPS   C1A11539  14.209   3.016   5.910 -0.0509 -0.0724  0.0142
  754POPS   D2A11540  13.963   3.038   6.213  0.0022 -0.0325  0.0373
  754POPS   C3A11541  13.481   3.030   6.362  0.1367  0.1022  0.0411
  754POPS   C4A11542  13.287   2.999   6.690  0.0020  0.2069 -0.0370
  754POPS   C1B11543  14.655   3.155   6.098  0.5333 -0.0675  0.1776
  754POPS   C2B11544  14.414   2.981   6.337 -0.1405 -0.1785 -0.0980
  754POPS   C3B11545  14.141   2.905   6.650 -0.4521 -0.1834  0.0863
  754POPS   C4B11546  13.783   3.071   6.799  0.0085 -0.1426 -0.0895
  755POPS   CNO11547   6.651   6.543   5.174 -0.0723  0.1428  0.0931
  755POPS   PO411548   6.537   6.654   5.511 -0.3739  0.1871  0.1744
  755POPS   GL111549   6.498   6.492   5.918 -0.1227 -0.0668  0.1284
  755POPS   GL211550   6.662   6.367   6.047  0.3623 -0.1853 -0.0242
  755POPS   C1A11551   6.243   6.627   6.271  0.4783 -0.4042 -0.0206
  755POPS   D2A11552   6.101   6.851   6.734 -0.1173  0.0010 -0.1211
  755POPS   C3A11553   6.133   7.388   6.910  0.1241  0.1890  0.1058
  755POPS   C4A11554   6.182   7.646   7.229  0.0193 -0.2176 -0.0765
  755POPS   C1B11555   6.752   6.398   6.483 -0.1252 -0.2746  0.1144
  755POPS   C2B11556   6.525   6.533   6.781 -0.2519 -0.0739  0.0085
  755POPS   C3B11557   6.293   6.483   7.093  0.0766  0.0279  0.4269
  755POPS   C4B11558   6.156   6.483   7.525  0.1480  0.1347 -0.0870
  756POPS   CNO11559  15.244  11.449   5.490 -0.0070 -0.3363 -0.0322
  756POPS   PO411560  15.032  11.738   5.354  0.1813 -0.0341  0.1553
  756POPS   GL111561  14.913  11.637   5.765 -0.0948  0.1880 -0.0939
  756POPS   GL211562  14.645  11.596   5.873 -0.0987  0.0035 -0.0161
  756POPS   C1A11563  14.995  11.568   6.231 -0.0063 -0.0923 -0.0636
  756POPS   D2A11564  14.757  11.496   6.578  0.0300 -0.4000  0.2058
  756POPS   C3A11565  14.505  11.444   6.898  0.1650  0.1451  0.1233
  756POPS   C4A11566  14.239  11.305   7.231  0.1028 -0.1082  0.1238
  756POPS   C1B11567  14.450  11.442   6.149  0.4124 -0.0270  0.4710
  756POPS   C2B11568  14.322  11.253   6.503  0.2102 -0.3129  0.1573
  756POPS   C3B11569  14.243  10.988   6.880 -0.2457  0.3422  0.0562
  756POPS   C4B11570  14.310  10.797   7.211  0.0304 -0.1555  0.0898
  757POPS   CNO11571  16.558  17.915   5.318 -0.6427  0.3453 -0.1425
  757POPS   PO411572  16.496  18.363   5.240  0.2292 -0.4101  0.1605
  757POPS   GL111573  16.158  18.226   5.571 -0.0695 -0.1487  0.0358
  757POPS   GL211574  15.918  17.824   5.555  0.0874 -0.4069 -0.2998
  757POPS   C1A11575  15.860  18.264   5.828  0.1605  0.0308  0.0756
  757POPS   D2A11576  15.570  18.301   6.246 -0.0704  0.2479 -0.0579
  757POPS   C3A11577  15.485  18.508   6.645 -0.0551  0.1420  0.4265
  757POPS   C4A11578  15.352  18.557   6.995 -0.2981  0.0157  0.0694
  757POPS   C1B11579  15.972  17.829   6.053 -0.0152  0.2023  0.1448
  757POPS   C2B11580  16.197  17.751   6.440 -0.4530 -0.0855 -0.1854
  757POPS   C3B11581  16.372  18.114   6.684 -0.1813 -0.1120  0.1011
  757POPS   C4B11582  16.457  18.445   7.127 -0.1741 -0.0135 -0.0924
  758POPS   CNO11583  12.221  14.286   4.923  0.0357 -0.1140  0.1547
  758POPS   PO411584  12.470  14.612   4.979 -0.4225  0.1294 -0.1872
  758POPS   GL111585  12.359  14.574   5.308 -0.2033  0.0011  0.2292
  758POPS   GL211586  12.261  14.289   5.436  0.0838  0.1240  0.1681
  758POPS   C1A11587  12.092  14.529   5.778  0.2924  0.2544  0.2988
  758POPS   D2A11588  11.956  14.659   6.174  0.0669 -0.2277 -0.3613
  758POPS   C3A11589  12.036  14.602   6.631  0.1605 -0.0010 -0.0383
  758POPS   C4A11590  12.401  14.842   6.835 -0.1224 -0.1185 -0.1506
  758POPS   C1B11591  11.962  14.112   5.438  0.5053 -0.1562 -0.2870
  758POPS   C2B11592  11.576  13.858   5.623 -0.0285 -0.0769 -0.1616
  758POPS   C3B11593  11.544  13.766   6.024 -0.0452  0.1241  0.3912
  758POPS   C4B11594  11.703  13.842   6.478 -0.1407 -0.0576 -0.0358
  759POPS   CNO11595  19.050   0.491   5.174 -0.4266 -0.1741  0.1884
  759POPS   PO411596  18.694   0.750   5.187 -0.0129 -0.1633  0.0478
  759POPS   GL111597  18.599   1.077   5.508 -0.2471  0.0726  0.3371
  759POPS   GL211598  18.364   0.832   5.738  0.1674  0.1358  0.0613
  759POPS   C1A11599  18.477   1.398   5.915  0.3058  0.0762  0.0652
  759POPS   D2A11600  18.235   1.597   6.291  0.1729  0.0660 -0.4174
  759POPS   C3A11601  18.290   1.559   6.810  0.1500 -0.1954 -0.0645
  759POPS   C4A11602  17.978   1.333   7.090 -0.0683 -0.1380 -0.1364
  759POPS   C1B11603  18.239   1.104   6.214 -0.3187  0.0814 -0.1235
  759POPS   C2B11604  18.098   0.914   6.748  0.2649 -0.1899 -0.0780
  759POPS   C3B11605  17.897   0.788   7.101  0.1304 -0.0684  0.1842
  759POPS   C4B11606  17.810   0.877   7.507 -0.1347 -0.1573  0.1353
  760POPS   CNO11607  12.128   0.448   5.160 -0.0406 -0.2265 -0.1368
  760POPS   PO411608  11.843   0.186   5.467 -0.0825  0.2079  0.1813
  760POPS   GL111609  11.994   0.176   5.748 -0.0603  0.0813  0.0394
  760POPS   GL211610  12.265   0.301   5.957  0.0302  0.1084 -0.0099
  760POPS   C1A11611  11.979  -0.016   6.189 -0.3291 -0.0247 -0.0480
  760POPS   D2A11612  12.314  -0.003   6.478  0.1135 -0.3162  0.1009
  760POPS   C3A11613  12.566   0.230   6.759  0.2803 -0.0583 -0.2767
  760POPS   C4A11614  12.737   0.303   7.165  0.1216 -0.1663  0.3404
  760POPS   C1B11615  12.281   0.494   6.318 -0.1590 -0.2141  0.2376
  760POPS   C2B11616  12.197   0.918   6.511 -0.3148  0.2188 -0.5675
  760POPS   C3B11617  12.158   1.017   6.882 -0.0905  0.3682 -0.2490
  760POPS   C4B11618  12.143   1.082   7.366  0.3692 -0.1007 -0.2123
  761POPS   CNO11619  18.357   6.618   5.251  0.1940 -0.6253 -0.2908
  761POPS   PO411620  18.227   6.207   5.167 -0.0693  0.2079  0.2061
  761POPS   GL111621  18.460   6.060   5.547 -0.1684 -0.3462  0.3510
  761POPS   GL211622  18.780   6.155   5.696 -0.2356 -0.2078  0.1219
  761POPS   C1A11623  18.276   5.957   5.869 -0.1185  0.1563  0.1483
  761POPS   D2A11624  18.338   5.817   6.289  0.2052 -0.2634 -0.0001
  761POPS   C3A11625  18.162   6.052   6.687 -0.0833  0.0321 -0.1152
  761POPS   C4A11626  18.213   6.541   6.623  0.1131  0.0935 -0.2132
  761POPS   C1B11627  18.686   6.146   6.094  0.2469 -0.0986  0.1086
  761POPS   C2B11628  18.655   6.102   6.530 -0.1799  0.2260 -0.4561
  761POPS   C3B11629  18.621   5.919   6.889 -0.1207 -0.1899  0.0672
  761POPS   C4B11630  18.252   5.673   7.182 -0.4020 -0.3337 -0.0306
  762POPS   CNO11631  10.980  18.237   5.648  0.0480 -0.0081  0.4532
  762POPS   PO411632  11.280  18.472   5.548  0.2839  0.0468 -0.0240
  762POPS   GL111633  11.226  18.497   6.021 -0.0654 -0.1576 -0.0763
  762POPS   GL211634  11.075  18.170   6.094  0.2846 -0.0309 -0.2662
  762POPS   C1A11635  11.438  18.480   6.387 -0.2597 -0.0976 -0.0046
  762POPS   D2A11636  11.522  18.903   6.628 -0.3692  0.3551 -0.1515
  762POPS   C3A11637  11.262  19.280   6.776 -0.2586  0.0113 -0.2042
  762POPS   C4A11638  11.363  19.597   6.955 -0.0242 -0.0817 -0.1835
  762POPS   C1B11639  11.449  18.052   6.183 -0.3517 -0.1437  0.0251
  762POPS   C2B11640  11.617  17.746   6.063 -0.0837  0.1424 -0.0774
  762POPS   C3B11641  11.951  17.525   6.251 -0.2808 -0.0086  0.3150
  762POPS   C4B11642  12.307  17.682   6.512  0.0496 -0.0629  0.2154
  763POPS   CNO11643   9.990   7.729   5.398 -0.0937 -0.2515  0.0179
  763POPS   PO411644   9.865   7.883   5.639 -0.0440 -0.0088  0.1199
  763POPS   GL111645   9.898   7.918   6.055  0.2023 -0.0876 -0.1094
  763POPS   GL211646   9.514   7.966   6.271  0.3316  0.0727 -0.1355
  763POPS   C1A11647  10.198   8.063   6.459  0.0962 -0.2213 -0.0479
  763POPS   D2A11648  10.531   7.895   6.662  0.3796  0.1919 -0.3261
  763POPS   C3A11649  10.889   8.156   6.843  0.3908 -0.2322  0.0520
  763POPS   C4A11650  10.886   8.383   7.198  0.1509 -0.2611  0.1650
  763POPS   C1B11651   9.774   8.274   6.438  0.1584  0.2951  0.0122
  763POPS   C2B11652   9.764   8.403   6.864  0.2620  0.0016  0.2918
  763POPS   C3B11653   9.798   8.730   7.113 -0.2556 -0.0810  0.1653
  763POPS   C4B11654   9.775   9.217   7.166 -0.0843  0.3570 -0.1494
  764POPS   CNO11655  16.089  19.291   4.809  0.0279 -0.0684  0.0323
  764POPS   PO411656  15.846  19.691   4.993  0.0960  0.3741  0.1855
  764POPS   GL111657  15.887  19.404   5.216  0.1744  0.1229 -0.0588
  764POPS   GL211658  15.627  19.293   5.368 -0.0340 -0.3895 -0.0070
  764POPS   C1A11659  16.104  19.040   5.338  0.2324 -0.5630  0.0461
  764POPS   D2A11660  16.286  18.684   5.522  0.0596 -0.3693  0.0817
  764POPS   C3A11661  16.207  18.652   5.895  0.0944  0.1722 -0.1231
  764POPS   C4A11662  15.837  18.722   6.158 -0.2422  0.1358  0.1651
  764POPS   C1B11663  15.332  19.270   5.432  0.0258 -0.3549 -0.0484
  764POPS   C2B11664  15.088  19.446   5.805  0.0383 -0.1459  0.0559
  764POPS   C3B11665  15.211  19.507   6.194  0.2860 -0.3461 -0.0649
  764POPS   C4B11666  15.179  19.668   6.548 -0.0610  0.1898 -0.2470
  765POPS   CNO11667  16.574  10.270   5.261  0.1584 -0.2424  0.0631
  765POPS   PO411668  16.151  10.073   5.596  0.0791  0.0277 -0.1064
  765POPS   GL111669  16.304  10.207   5.991  0.4377  0.5448  0.2706
  765POPS   GL211670  16.460   9.901   6.148  0.0784 -0.0205 -0.0194
  765POPS   C1A11671  16.372  10.337   6.402  0.3353  0.1885  0.2528
  765POPS   D2A11672  16.278  10.323   6.879  0.0444  0.2025 -0.0037
  765POPS   C3A11673  16.368   9.924   7.102  0.0405  0.2305  0.1639
  765POPS   C4A11674  16.389   9.566   7.279 -0.1153  0.0996 -0.1434
  765POPS   C1B11675  16.456   9.847   6.608  0.0392 -0.1680  0.2879
  765POPS   C2B11676  16.516   9.460   6.720  0.3235 -0.3350 -0.0889
  765POPS   C3B11677  16.827   9.208   6.734  0.2500 -0.2118 -0.3510
  765POPS   C4B11678  16.967   8.870   6.460 -0.0448 -0.1337 -0.0564
  766POPS   CNO11679   0.413   4.469   5.091  0.0814 -0.3632 -0.0009
  766POPS   PO411680   0.666   4.773   5.272 -0.1559  0.2833  0.3828
  766POPS   GL111681   0.440   4.752   5.663 -0.0743 -0.1036 -0.3637
  766POPS   GL211682   0.124   4.781   5.719  0.3290 -0.0595 -0.0054
  766POPS   C1A11683   0.401   4.788   6.145  0.1606  0.0550  0.0219
  766POPS   D2A11684   0.363   4.763   6.630  0.4430 -0.0612 -0.0462
  766POPS   C3A11685   0.403   4.619   7.004  0.1590  0.2120  0.2137
  766POPS   C4A11686   0.451   4.736   7.422  0.3532  0.3503  0.0309
  766POPS   C1B11687   0.109   4.380   6.045 -0.1082 -0.1632  0.0306
  766POPS   C2B11688   0.080   4.318   6.498 -0.2872  0.0374 -0.1581
  766POPS   C3B11689   0.021   4.356   6.944  0.1978 -0.2333 -0.1466
  766POPS   C4B11690   0.258   4.224   7.366 -0.2074  0.2158 -0.2115
  767POPS   CNO11691   2.655   7.676   4.994 -0.3699 -0.0623  0.2759
  767POPS   PO411692   3.101   7.543   4.992 -0.2358 -0.0982 -0.2587
  767POPS   GL111693   3.273   7.501   5.331 -0.0679  0.1457 -0.0911
  767POPS   GL211694   2.917   7.544   5.468  0.0997 -0.3541  0.4533
  767POPS   C1A11695   3.432   7.287   5.723  0.1138  0.1180 -0.1856
  767POPS   D2A11696   3.077   6.940   5.977 -0.0565  0.2076 -0.1487
  767POPS   C3A11697   3.231   6.878   6.364 -0.1620  0.0700  0.2490
  767POPS   C4A11698   3.438   6.552   6.560 -0.4559  0.1405  0.2473
  767POPS   C1B11699   2.916   7.571   5.924 -0.0351  0.0741 -0.1489
  767POPS   C2B11700   2.992   7.375   6.357  0.2001 -0.2324  0.0631
  767POPS   C3B11701   3.180   7.271   6.661  0.2204 -0.4636 -0.0579
  767POPS   C4B11702   3.299   7.121   7.002 -0.3317 -0.1077  0.4584
  768POPS   CNO11703  16.420  11.068   5.351 -0.0661 -0.0658  0.1365
  768POPS   PO411704  16.714  10.758   5.525 -0.0562  0.0356 -0.4345
  768POPS   GL111705  16.548  11.026   5.841 -0.0706 -0.0677  0.0567
  768POPS   GL211706  16.341  11.250   5.798 -0.1272 -0.2484  0.2929
  768POPS   C1A11707  16.503  10.996   6.327  0.0203 -0.1316 -0.2696
  768POPS   D2A11708  16.638  11.143   6.682 -0.0509 -0.1748 -0.1574
  768POPS   C3A11709  17.088  11.195   6.806 -0.1452  0.1229 -0.1641
  768POPS   C4A11710  17.335  11.018   6.620  0.2844 -0.3591 -0.1390
  768POPS   C1B11711  16.221  11.363   6.160 -0.1866  0.2041 -0.0106
  768POPS   C2B11712  16.445  11.569   6.511 -0.0547 -0.0667 -0.0424
  768POPS   C3B11713  16.817  11.612   6.714  0.2236  0.1475  0.4034
  768POPS   C4B11714  16.879  11.734   7.104 -0.1984 -0.1519 -0.2752
  769POPS   CNO11715   3.000   9.607   4.956 -0.2126 -0.1948  0.0757
  769POPS   PO411716   3.081   9.800   5.292  0.0957  0.1139 -0.1092
  769POPS   GL111717   3.134   9.879   5.685  0.1299 -0.4181 -0.3191
  769POPS   GL211718   3.059   9.613   5.874 -0.4347  0.0890 -0.0325
  769POPS   C1A11719   3.061   9.995   6.134 -0.1503 -0.0543  0.1523
  769POPS   D2A11720   2.650  10.241   6.337  0.3509 -0.3110 -0.0524
  769POPS   C3A11721   2.559  10.293   6.747 -0.1549  0.0490 -0.1644
  769POPS   C4A11722   2.407  10.002   7.081 -0.1165  0.3292 -0.2588
  769POPS   C1B11723   3.090   9.395   6.294 -0.1240  0.0852  0.1282
  769POPS   C2B11724   2.910   9.226   6.591  0.1314 -0.0480 -0.0554
  769POPS   C3B11725   2.495   9.184   6.638  0.1938  0.1310  0.3787
  769POPS   C4B11726   2.321   8.943   7.005  0.0037  0.0779 -0.1499
  770POPS   CNO11727  18.682   4.816   5.151 -0.0381 -0.1520  0.2287
  770POPS   PO411728  18.923   4.620   4.909  0.1669 -0.2254 -0.2078
  770POPS   GL111729  18.893   4.389   5.290 -0.0975  0.1078  0.0081
  770POPS   GL211730  18.763   4.585   5.571 -0.0648  0.2617  0.0783
  770POPS   C1A11731  18.844   3.967   5.565  0.3044 -0.2147 -0.2788
  770POPS   D2A11732  18.871   3.685   5.886 -0.1797 -0.0388 -0.3079
  770POPS   C3A11733  18.942   3.712   6.323  0.2095 -0.0092 -0.3904
  770POPS   C4A11734  18.953   3.340   6.509 -0.4714  0.0181 -0.1412
  770POPS   C1B11735  18.682   4.753   6.001 -0.0982  0.1198  0.0174
  770POPS   C2B11736  18.690   4.661   6.420  0.2752 -0.1193 -0.3279
  770POPS   C3B11737  18.633   4.989   6.689 -0.4504 -0.0698 -0.2088
  770POPS   C4B11738  18.661   5.251   7.101 -0.2091 -0.0026  0.2017
  771POPS   CNO11739   4.205   5.004   4.970 -0.2098  0.1101 -0.0037
  771POPS   PO411740   4.074   4.731   5.255 -0.1570  0.2842  0.1225
  771POPS   GL111741   3.822   4.727   5.660  0.0980  0.2494 -0.1245
  771POPS   GL211742   4.002   4.449   5.911 -0.3070 -0.0427 -0.0579
  771POPS   C1A11743   3.753   4.794   6.144  0.0691 -0.0173 -0.0495
  771POPS   D2A11744   3.790   4.651   6.612  0.2160 -0.0518 -0.0203
  771POPS   C3A11745   4.205   4.871   6.776 -0.0215 -0.1606  0.2673
  771POPS   C4A11746   4.648   4.883   6.706  0.2198  0.2979  0.0197
  771POPS   C1B11747   4.201   4.567   6.310 -0.1745  0.1069 -0.0933
  771POPS   C2B11748   4.365   4.420   6.777  0.1046  0.1391  0.0762
  771POPS   C3B11749   4.526   4.583   7.169  0.0907  0.1457  0.2023
  771POPS   C4B11750   4.338   4.944   7.251  0.1835 -0.1419  0.0350
  772POPS   CNO11751  16.672   0.875   5.176 -0.0787  0.1764  0.0471
  772POPS   PO411752  16.268   0.587   5.119  0.1273  0.0774 -0.1904
  772POPS   GL111753  16.297   0.575   5.444 -0.3523 -0.1418 -0.1443
  772POPS   GL211754  16.582   0.650   5.593  0.1179  0.2658  0.0426
  772POPS   C1A11755  16.157   0.695   5.945  0.1126 -0.0877 -0.0915
  772POPS   D2A11756  15.952   0.664   6.342 -0.3184 -0.0200  0.2517
  772POPS   C3A11757  16.081   0.973   6.585  0.1541  0.0832  0.0141
  772POPS   C4A11758  16.455   1.027   6.927  0.1293 -0.0820 -0.1953
  772POPS   C1B11759  16.622   0.851   5.965 -0.1126  0.1697  0.0358
  772POPS   C2B11760  16.262   1.141   6.143  0.1066  0.1887  0.0057
  772POPS   C3B11761  16.102   1.449   6.286  0.2530 -0.1332  0.1679
  772POPS   C4B11762  15.749   1.570   6.424  0.0575  0.0366  0.1458
  773POPS   CNO11763   7.020   0.854   5.026 -0.1735 -0.2624 -0.0565
  773POPS   PO411764   6.607   0.937   4.769  0.2011 -0.0209  0.1637
  773POPS   GL111765   6.755   1.273   5.101  0.3073 -0.4234 -0.0492
  773POPS   GL211766   6.496   1.385   5.311 -0.0372  0.1334  0.0492
  773POPS   C1A11767   6.933   1.321   5.534  0.1110  0.2866  0.1704
  773POPS   D2A11768   6.743   1.484   5.914 -0.2586  0.2732 -0.1351
  773POPS   C3A11769   6.395   1.304   6.248  0.1764  0.0119  0.4066
  773POPS   C4A11770   6.089   1.241   6.379  0.1337 -0.6184  0.0302
  773POPS   C1B11771   6.343   1.292   5.708  0.0806 -0.2511  0.1580
  773POPS   C2B11772   6.201   0.975   5.947  0.0905  0.2027 -0.0834
  773POPS   C3B11773   6.298   0.777   6.382  0.1086 -0.3076  0.2683
  773POPS   C4B11774   6.239   0.375   6.497 -0.2350 -0.0971  0.2145
  774POPS   CNO11775   3.125   2.688   4.762  0.0905 -0.0515  0.2949
  774POPS   PO411776   2.832   2.344   4.926  0.2593  0.0826 -0.1893
  774POPS   GL111777   2.935   2.322   5.421  0.2986  0.1005 -0.1861
  774POPS   GL211778   3.032   2.026   5.225 -0.2274 -0.0223 -0.1869
  774POPS   C1A11779   2.927   2.309   5.878 -0.1195 -0.1136  0.1148
  774POPS   D2A11780   2.960   2.301   6.316 -0.0422  0.1320  0.0348
  774POPS   C3A11781   2.808   2.456   6.535  0.0579 -0.3250  0.1061
  774POPS   C4A11782   2.579   2.726   6.671  0.3184  0.3310 -0.2827
  774POPS   C1B11783   2.998   1.829   5.618  0.3909  0.1166 -0.0867
  774POPS   C2B11784   2.891   1.828   6.014  0.0979  0.2230  0.1232
  774POPS   C3B11785   3.041   1.793   6.384  0.0598  0.1768  0.0161
  774POPS   C4B11786   3.239   2.003   6.781 -0.0329  0.0241  0.3832
  775POPS   CNO11787   9.445  16.382   4.879 -0.1638 -0.0802  0.0510
  775POPS   PO411788   9.287  16.309   5.294 -0.0770  0.1159  0.0378
  775POPS   GL111789   9.013  16.492   5.526  0.2604  0.1097  0.1159
  775POPS   GL211790   9.039  16.830   5.700 -0.0731  0.2597  0.0083
  775POPS   C1A11791   8.705  16.533   5.956  0.1038  0.1273 -0.0400
  775POPS   D2A11792   8.683  16.640   6.369  0.1330 -0.0620  0.0802
  775POPS   C3A11793   8.349  16.615   6.583 -0.0481 -0.1383 -0.4163
  775POPS   C4A11794   8.348  16.652   6.989 -0.1225 -0.0651  0.0310
  775POPS   C1B11795   9.209  16.598   6.099  0.0893  0.1041 -0.0034
  775POPS   C2B11796   9.222  16.453   6.464  0.1022  0.1736  0.1860
  775POPS   C3B11797   9.254  16.124   6.600  0.0808  0.1161 -0.2142
  775POPS   C4B11798   9.176  15.793   6.812  0.0475  0.0980 -0.1777
  776POPS   CNO11799   1.663  11.847   5.035  0.0872 -0.0082  0.0871
  776POPS   PO411800   1.940  11.631   5.070 -0.2655 -0.1625  0.1875
  776POPS   GL111801   1.931  11.580   5.492  0.1525 -0.2319 -0.1154
  776POPS   GL211802   1.792  11.584   5.760  0.0643 -0.5220 -0.2296
  776POPS   C1A11803   2.274  11.450   5.735  0.1760  0.0853 -0.0530
  776POPS   D2A11804   2.635  11.568   5.782 -0.1297  0.3010 -0.3140
  776POPS   C3A11805   2.737  11.835   5.991  0.1167 -0.2781 -0.2115
  776POPS   C4A11806   2.661  11.980   6.364 -0.2244 -0.0174 -0.2553
  776POPS   C1B11807   1.820  11.561   6.161  0.1272  0.0534 -0.1564
  776POPS   C2B11808   1.791  11.520   6.573  0.1380 -0.2568  0.1884
  776POPS   C3B11809   1.862  11.232   6.881 -0.1694  0.0805  0.1586
  776POPS   C4B11810   1.857  11.381   7.338 -0.3528 -0.2303  0.0975
  777POPS   CNO11811   7.474  12.463   4.715  0.0337  0.1771 -0.1966
  777POPS   PO411812   7.145  12.550   4.515  0.3471  0.0941  0.1559
  777POPS   GL111813   7.151  12.829   4.884  0.0426 -0.1751 -0.1502
  777POPS   GL211814   7.433  12.934   4.993  0.3367  0.1317 -0.0843
  777POPS   C1A11815   6.946  12.783   5.303  0.1558  0.0984 -0.0040
  777POPS   D2A11816   6.614  12.724   5.490  0.0840 -0.2128 -0.1711
  777POPS   C3A11817   6.649  12.735   5.918 -0.1721  0.0219 -0.4376
  777POPS   C4A11818   6.808  12.895   6.372 -0.0783 -0.3821  0.1440
  777POPS   C1B11819   7.337  13.113   5.411  0.0742  0.1460  0.1824
  777POPS   C2B11820   7.198  12.818   5.758 -0.1957  0.0599  0.2542
  777POPS   C3B11821   7.116  12.575   6.118  0.2140  0.1938  0.1088
  777POPS   C4B11822   7.328  12.637   6.537  0.0836 -0.0326 -0.1376
  778POPS   CNO11823  17.058  17.742   4.977  0.0872 -0.0206  0.2717
  778POPS   PO411824  17.092  17.970   5.340  0.0112 -0.0628  0.0590
  778POPS   GL111825  16.909  18.179   5.696  0.0332  0.1245 -0.1813
  778POPS   GL211826  16.628  18.290   5.700  0.0657 -0.1349 -0.1203
  778POPS   C1A11827  16.976  18.283   6.096  0.2569 -0.1565 -0.2954
  778POPS   D2A11828  16.760  18.349   6.468  0.0265  0.2043  0.1966
  778POPS   C3A11829  16.906  18.357   6.913  0.0878  0.0071 -0.4085
  778POPS   C4A11830  17.235  18.589   7.091  0.1371 -0.3615  0.2714
  778POPS   C1B11831  16.401  18.183   6.046  0.2277  0.2254 -0.3102
  778POPS   C2B11832  16.053  18.221   6.367  0.1477 -0.2695  0.2431
  778POPS   C3B11833  16.046  18.491   6.680 -0.0199  0.2102 -0.2916
  778POPS   C4B11834  15.862  18.718   7.004  0.0660 -0.0976  0.1440
  779POPS   CNO11835   0.978   6.431   5.061  0.3063  0.3451  0.0587
  779POPS   PO411836   0.992   6.259   5.548  0.0468 -0.2556  0.0659
  779POPS   GL111837   1.182   6.351   6.012  0.1041  0.1139  0.0123
  779POPS   GL211838   1.461   6.179   5.992 -0.1056 -0.1243 -0.0699
  779POPS   C1A11839   1.452   6.558   6.318  0.0598  0.0910 -0.1287
  779POPS   D2A11840   1.732   6.564   6.772 -0.0018  0.2319  0.2019
  779POPS   C3A11841   2.061   6.485   7.061  0.1237  0.1493 -0.0249
  779POPS   C4A11842   2.328   6.558   7.116 -0.0701  0.0737  0.2883
  779POPS   C1B11843   1.332   6.034   6.347 -0.0776  0.3285  0.2810
  779POPS   C2B11844   1.263   6.150   6.745  0.2623 -0.1059  0.0724
  779POPS   C3B11845   1.339   6.169   7.142 -0.0069 -0.1227 -0.0521
  779POPS   C4B11846   1.249   6.184   7.456 -0.2439  0.0198  0.4206
  780POPS   CNO11847  12.132  11.021   5.956  0.2325  0.2754  0.1414
  780POPS   PO411848  12.485  10.667   5.879  0.1883 -0.0492  0.1085
  780POPS   GL111849  12.577  10.762   6.165  0.0888  0.3075 -0.0633
  780POPS   GL211850  12.646  11.190   6.047 -0.0939  0.1032 -0.4284
  780POPS   C1A11851  12.766  10.967   6.516  0.2610 -0.1459 -0.0059
  780POPS   D2A11852  13.130  11.045   6.739  0.2102  0.1745 -0.2112
  780POPS   C3A11853  13.347  11.218   7.060 -0.0483 -0.2125 -0.2073
  780POPS   C4A11854  13.616  11.447   7.202 -0.0694 -0.0785 -0.2711
  780POPS   C1B11855  12.997  11.386   6.321 -0.1292 -0.0334 -0.1807
  780POPS   C2B11856  13.220  11.554   6.638  0.1103 -0.0549  0.3350
  780POPS   C3B11857  13.210  11.715   7.104  0.0506 -0.0046 -0.1406
  780POPS   C4B11858  13.188  11.899   7.508 -0.2966 -0.0436  0.3295
  781POPS   CNO11859   6.718   2.644   4.695 -0.0520 -0.6266  0.0561
  781POPS   PO411860   7.227   2.708   4.908 -0.3085  0.1486 -0.2429
  781POPS   GL111861   7.278   2.784   5.385 -0.1868  0.0680 -0.4675
  781POPS   GL211862   7.305   2.426   5.426 -0.3051 -0.0573 -0.3426
  781POPS   C1A11863   7.539   3.012   5.660 -0.5597  0.4361 -0.0650
  781POPS   D2A11864   7.489   3.334   5.643  0.1839  0.0240  0.1040
  781POPS   C3A11865   7.304   3.611   6.019  0.2784  0.0285 -0.0642
  781POPS   C4A11866   7.180   3.937   5.941  0.0647  0.1355  0.0276
  781POPS   C1B11867   7.254   2.325   5.823  0.1244  0.1493  0.2058
  781POPS   C2B11868   7.306   2.293   6.247 -0.1972 -0.3859 -0.0003
  781POPS   C3B11869   7.576   2.319   6.544 -0.1523  0.2269 -0.1655
  781POPS   C4B11870   7.953   2.541   6.564 -0.3418 -0.2289  0.4442
  782POPS   CNO11871   7.093  13.715   4.137  0.0442 -0.0318  0.1214
  782POPS   PO411872   7.080  13.594   4.602 -0.1092 -0.1631 -0.1771
  782POPS   GL111873   6.926  13.546   5.074 -0.4123  0.0571 -0.0804
  782POPS   GL211874   6.531  13.680   5.103 -0.0363 -0.1771  0.0283
  782POPS   C1A11875   7.110  13.601   5.525  0.0872  0.2371  0.1581
  782POPS   D2A11876   7.464  13.849   5.700 -0.1588 -0.0955 -0.0773
  782POPS   C3A11877   7.511  13.956   6.086 -0.1901  0.0553 -0.0487
  782POPS   C4A11878   7.413  13.668   6.473  0.1198  0.0383  0.0747
  782POPS   C1B11879   6.214  13.647   5.426 -0.1237 -0.1016 -0.2548
  782POPS   C2B11880   6.095  13.610   5.864 -0.1924  0.0712  0.3319
  782POPS   C3B11881   6.146  13.826   6.298  0.5123  0.3433  0.0904
  782POPS   C4B11882   6.432  14.059   6.536  0.4950  0.1036 -0.0183
  783POPS   CNO11883   1.663   2.714   4.426 -0.1904  0.1004 -0.1826
  783POPS   PO411884   1.781   2.566   4.904 -0.2247  0.1460 -0.1676
  783POPS   GL111885   1.750   2.468   5.242  0.5417  0.1813 -0.1058
  783POPS   GL211886   1.593   2.738   5.490 -0.0799 -0.1528 -0.2391
  783POPS   C1A11887   1.938   2.294   5.591  0.3001 -0.0651  0.2671
  783POPS   D2A11888   2.136   1.908   5.512 -0.1123  0.0367  0.1269
  783POPS   C3A11889   2.314   1.701   5.832  0.0957  0.2398  0.3156
  783POPS   C4A11890   2.426   1.561   6.215 -0.1378 -0.1594 -0.2616
  783POPS   C1B11891   1.458   2.804   6.036 -0.1374  0.2785  0.0948
  783POPS   C2B11892   1.790   2.779   6.405 -0.0302 -0.1491 -0.0323
  783POPS   C3B11893   1.622   2.698   6.794 -0.1283 -0.0188 -0.3174
  783POPS   C4B11894   1.443   2.730   7.245 -0.0835 -0.1439 -0.3562
  784POPS   CNO11895   6.225  11.372   5.126 -0.1200  0.0590 -0.0512
  784POPS   PO411896   6.064  11.774   5.184  0.1425  0.0611  0.0418
  784POPS   GL111897   5.900  11.884   5.503 -0.0769 -0.1489 -0.1234
  784POPS   GL211898   5.797  11.612   5.733 -0.0044  0.0637 -0.1358
  784POPS   C1A11899   5.913  12.061   5.973  0.2496  0.2396  0.0158
  784POPS   D2A11900   5.999  12.130   6.422 -0.1602 -0.0688  0.0275
  784POPS   C3A11901   6.284  12.424   6.672  0.2139  0.0919 -0.2367
  784POPS   C4A11902   6.553  12.731   6.871 -0.0073 -0.0481  0.0051
  784POPS   C1B11903   5.809  11.388   6.099  0.2023 -0.2703 -0.2084
  784POPS   C2B11904   6.099  11.342   6.487  0.3663 -0.4788 -0.0363
  784POPS   C3B11905   5.956  11.590   6.810 -0.3745 -0.0873 -0.0925
  784POPS   C4B11906   6.110  11.978   6.908 -0.4076 -0.1949  0.2796
  785POPS   CNO11907   3.966   1.642   5.054 -0.0854  0.0749  0.0480
  785POPS   PO411908   4.236   1.356   5.032  0.0726  0.1444 -0.1770
  785POPS   GL111909   4.345   1.255   5.422 -0.2305 -0.0650 -0.2484
  785POPS   GL211910   4.678   1.015   5.409  0.1651 -0.0599 -0.0912
  785POPS   C1A11911   4.285   1.133   5.750 -0.0526  0.3397 -0.1049
  785POPS   D2A11912   4.016   1.021   6.201  0.0801  0.0681 -0.1613
  785POPS   C3A11913   4.202   0.766   6.482 -0.0036 -0.0554 -0.4096
  785POPS   C4A11914   4.027   0.492   6.738  0.0296  0.3331  0.0427
  785POPS   C1B11915   4.734   0.986   5.799  0.1536 -0.1279  0.1538
  785POPS   C2B11916   4.754   0.849   6.162 -0.0116  0.2283  0.2651
  785POPS   C3B11917   4.700   0.673   6.554  0.3002  0.0328  0.0574
  785POPS   C4B11918   4.555   0.419   6.913  0.1045  0.0757 -0.1213
  786POPS   CNO11919  10.299   7.391   6.072 -0.1278 -0.0344  0.2502
  786POPS   PO411920   9.963   7.402   5.833  0.0555  0.3129  0.0302
  786POPS   GL111921   9.660   7.460   6.242  0.2420  0.0221 -0.1265
  786POPS   GL211922   9.718   7.214   6.395  0.1768 -0.2558 -0.2364
  786POPS   C1A11923   9.360   7.587   6.532  0.0080 -0.0221 -0.0584
  786POPS   D2A11924   9.202   7.595   6.976 -0.1864  0.4286 -0.0050
  786POPS   C3A11925   9.561   7.738   7.310  0.3286  0.1567 -0.3647
  786POPS   C4A11926   9.909   7.553   7.602  0.0417 -0.0499  0.1324
  786POPS   C1B11927   9.647   7.298   6.848  0.1314  0.0122  0.0111
  786POPS   C2B11928   9.920   7.404   7.137 -0.1573  0.0712  0.3803
  786POPS   C3B11929  10.288   7.560   7.095 -0.1025 -0.0767  0.1681
  786POPS   C4B11930  10.571   7.392   6.778  0.0632 -0.0565 -0.1648
  787POPS   CNO11931   8.013  16.735   4.806 -0.0526 -0.0375 -0.2171
  787POPS   PO411932   7.939  16.406   5.105 -0.0146 -0.0199  0.0486
  787POPS   GL111933   8.020  16.485   5.483 -0.1208 -0.1922  0.0322
  787POPS   GL211934   7.624  16.526   5.653  0.0955  0.0802  0.5095
  787POPS   C1A11935   8.046  16.340   5.832  0.0758  0.1540  0.1397
  787POPS   D2A11936   8.246  16.423   6.150  0.1142 -0.0997 -0.1358
  787POPS   C3A11937   8.315  16.803   5.955 -0.3225  0.0094 -0.2585
  787POPS   C4A11938   8.354  16.887   5.520 -0.0183  0.2614 -0.2026
  787POPS   C1B11939   7.650  16.443   6.087 -0.0123 -0.0219 -0.4347
  787POPS   C2B11940   7.864  16.489   6.562  0.4724 -0.2264  0.0112
  787POPS   C3B11941   7.928  16.392   6.929 -0.2578  0.1638 -0.2648
  787POPS   C4B11942   8.389  16.203   7.160 -0.3079  0.2675 -0.1858
  788POPS   CNO11943   0.768   1.087   5.082  0.4890  0.1261  0.0650
  788POPS   PO411944   0.384   1.196   4.828  0.0001  0.0719  0.0428
  788POPS   GL111945   0.385   1.304   5.335 -0.2107 -0.0487 -0.0294
  788POPS   GL211946   0.718   1.428   5.488 -0.2002 -0.2827 -0.4792
  788POPS   C1A11947   0.500   1.120   5.918 -0.2544 -0.0901  0.0475
  788POPS   D2A11948   0.510   1.189   6.373 -0.1947 -0.0859  0.0392
  788POPS   C3A11949   0.036   1.064   6.485 -0.2002 -0.0444 -0.1072
  788POPS   C4A11950  -0.122   0.668   6.599  0.2595  0.0397 -0.0778
  788POPS   C1B11951   1.181   1.634   5.669  0.0933 -0.0163 -0.0676
  788POPS   C2B11952   1.172   1.852   6.122  0.1051 -0.1282 -0.0196
  788POPS   C3B11953   0.831   2.014   6.360  0.1294  0.0061 -0.4890
  788POPS   C4B11954   0.522   1.939   6.596  0.3122 -0.2162  0.0964
  789POPS   CNO11955  13.492   4.782   5.437  0.3968 -0.0749 -0.1718
  789POPS   PO411956  13.136   4.499   5.486  0.0888 -0.0944  0.2796
  789POPS   GL111957  13.234   4.481   5.897  0.0504 -0.2867 -0.0294
  789POPS   GL211958  13.467   4.347   6.203 -0.2682  0.1185  0.1311
  789POPS   C1A11959  12.932   4.305   6.208 -0.2122 -0.4793  0.1065
  789POPS   D2A11960  12.707   4.109   6.474  0.1108 -0.2511  0.2401
  789POPS   C3A11961  12.338   4.245   6.772  0.0156 -0.1406 -0.1521
  789POPS   C4A11962  12.315   4.294   7.142 -0.2154  0.1753  0.4779
  789POPS   C1B11963  13.672   4.071   6.365 -0.3681 -0.2819 -0.0261
  789POPS   C2B11964  13.706   3.982   6.784  0.0176  0.0172 -0.3265
  789POPS   C3B11965  13.503   4.019   7.117 -0.0149 -0.1631  0.0639
  789POPS   C4B11966  13.183   3.805   7.301 -0.3999  0.1575  0.0166
  790POPS   CNO11967  18.055  16.239   5.446 -0.1869 -0.2961 -0.0645
  790POPS   PO411968  17.664  16.215   5.548 -0.3864 -0.2118 -0.0612
  790POPS   GL111969  17.440  15.924   5.881 -0.1301 -0.1704  0.0475
  790POPS   GL211970  17.238  15.749   5.943 -0.0840  0.1389 -0.0721
  790POPS   C1A11971  17.651  15.967   6.285  0.1777  0.1555  0.0855
  790POPS   D2A11972  17.885  15.856   6.569 -0.3706  0.2499 -0.0062
  790POPS   C3A11973  17.605  15.826   6.935  0.3936  0.2960 -0.2357
  790POPS   C4A11974  17.571  15.806   7.384 -0.0199 -0.0170  0.0919
  790POPS   C1B11975  17.235  15.747   6.440 -0.0228  0.1175  0.2511
  790POPS   C2B11976  17.093  15.772   6.773  0.1396 -0.1752  0.0431
  790POPS   C3B11977  17.163  15.586   7.238  0.1614 -0.5941  0.1278
  790POPS   C4B11978  16.701  15.498   7.518 -0.0349 -0.1460 -0.3513
  791POPS   CNO11979  12.910  13.276   4.861 -0.1440  0.0968 -0.2049
  791POPS   PO411980  12.642  13.482   5.136 -0.0575 -0.0037 -0.3008
  791POPS   GL111981  12.645  13.318   5.539  0.0504 -0.0972 -0.0744
  791POPS   GL211982  12.389  13.407   5.805 -0.0587  0.0470 -0.0911
  791POPS   C1A11983  12.867  13.277   5.925 -0.1940  0.2938  0.2639
  791POPS   D2A11984  12.888  12.898   6.246  0.0633 -0.0151  0.4575
  791POPS   C3A11985  12.906  13.007   6.552 -0.2530  0.2105  0.3439
  791POPS   C4A11986  12.932  13.184   7.038  0.0962  0.1407 -0.0499
  791POPS   C1B11987  12.202  13.610   6.180  0.2320 -0.0190 -0.0932
  791POPS   C2B11988  12.161  13.589   6.577  0.1544  0.1230  0.1848
  791POPS   C3B11989  12.182  13.521   7.016 -0.4514 -0.0556  0.1976
  791POPS   C4B11990  12.228  13.943   7.232  0.1172  0.2001  0.1501
  792POPS   CNO11991  19.457  17.881   4.954 -0.0901  0.1612 -0.3112
  792POPS   PO411992  19.646  17.625   5.137 -0.0694  0.1066  0.3327
  792POPS   GL111993  19.558  17.885   5.454  0.0708  0.1343 -0.0749
  792POPS   GL211994  19.742  18.180   5.349 -0.0637 -0.2487  0.0371
  792POPS   C1A11995  19.111  18.061   5.784 -0.4361 -0.1494  0.0980
  792POPS   D2A11996  19.130  18.317   6.165 -0.0324 -0.1224  0.3137
  792POPS   C3A11997  19.006  18.739   6.080  0.0904  0.4211 -0.0405
  792POPS   C4A11998  18.674  19.064   6.113 -0.0487  0.0898  0.0916
  792POPS   C1B11999  19.588  18.201   5.830  0.2758 -0.1354  0.5911
  792POPS   C2B12000  19.752  18.325   6.204  0.0885  0.3446 -0.0167
  792POPS   C3B12001  20.116  18.503   6.475 -0.2534  0.0300 -0.0236
  792POPS   C4B12002  20.430  18.345   6.670  0.2055 -0.0372  0.4535
  793POPS   CNO12003   1.110  15.029   4.279  0.1853  0.0882  0.0741
  793POPS   PO412004   1.043  15.456   4.519  0.0604  0.0387  0.1367
  793POPS   GL112005   1.088  15.476   4.959  0.3993 -0.2650 -0.2990
  793POPS   GL212006   0.922  15.240   5.226 -0.2234 -0.0995  0.0092
  793POPS   C1A12007   1.167  15.637   5.389  0.2806 -0.0067 -0.1368
  793POPS   D2A12008   1.372  15.377   5.771  0.1199 -0.3009 -0.0224
  793POPS   C3A12009   1.653  15.610   6.072 -0.0558 -0.1337  0.1459
  793POPS   C4A12010   1.870  15.762   6.342  0.1317  0.3564 -0.3347
  793POPS   C1B12011   0.927  15.196   5.734 -0.0532 -0.0166  0.2745
  793POPS   C2B12012   1.031  15.000   6.133 -0.1287 -0.0375 -0.1298
  793POPS   C3B12013   1.111  15.085   6.529  0.1187  0.2540 -0.0205
  793POPS   C4B12014   0.907  15.142   6.913 -0.1927 -0.0741 -0.1192
  794POPS   CNO12015  19.004   5.889   4.970  0.0208  0.1918  0.4379
  794POPS   PO412016  19.250   5.535   5.104  0.2002  0.1368  0.1039
  794POPS   GL112017  19.235   5.626   5.557 -0.3399  0.4252  0.1778
  794POPS   GL212018  19.241   5.966   5.677  0.2969 -0.0506  0.1841
  794POPS   C1A12019  19.310   5.446   5.904  0.1774 -0.2373  0.3177
  794POPS   D2A12020  19.138   5.256   6.314  0.3171 -0.3020 -0.0663
  794POPS   C3A12021  19.289   5.248   6.692  0.0169  0.0844  0.2416
  794POPS   C4A12022  19.342   5.296   7.145  0.1351 -0.1302  0.1377
  794POPS   C1B12023  19.373   6.023   6.108  0.0148 -0.0591 -0.3271
  794POPS   C2B12024  19.480   5.621   6.436  0.1186  0.0333  0.2573
  794POPS   C3B12025  19.737   5.243   6.683 -0.1379 -0.0880 -0.0337
  794POPS   C4B12026  19.790   5.179   7.113 -0.0648  0.0843  0.1045
  795POPS   CNO12027  12.997  18.840   5.231 -0.2577 -0.1137 -0.0733
  795POPS   PO412028  13.481  18.718   5.298 -0.3371 -0.1090 -0.1741
  795POPS   GL112029  13.274  18.738   5.717  0.2010  0.2668 -0.1677
  795POPS   GL212030  13.355  19.058   5.782 -0.2084  0.3891  0.0462
  795POPS   C1A12031  13.185  18.563   6.160 -0.1186 -0.6944  0.1958
  795POPS   D2A12032  12.994  18.314   6.421  0.2544  0.0976  0.1747
  795POPS   C3A12033  13.170  18.085   6.644 -0.0607 -0.0873  0.0911
  795POPS   C4A12034  13.145  17.711   6.964  0.0398 -0.2730  0.0998
  795POPS   C1B12035  12.891  18.887   5.925  0.2049  0.1101  0.1664
  795POPS   C2B12036  12.668  18.673   6.217  0.0096 -0.2057  0.0608
  795POPS   C3B12037  12.690  18.604   6.673  0.2478  0.0699 -0.2546
  795POPS   C4B12038  12.903  18.353   6.983  0.0154  0.1905  0.2111
  796POPS   CNO12039   6.565  17.629   4.797  0.0611  0.1579 -0.0064
  796POPS   PO412040   6.752  17.284   4.910  0.2597  0.2638  0.2883
  796POPS   GL112041   6.673  17.524   5.294  0.0031  0.5072  0.2395
  796POPS   GL212042   6.468  17.314   5.355 -0.3104 -0.0548  0.0402
  796POPS   C1A12043   6.680  17.709   5.679 -0.0475 -0.0182  0.2480
  796POPS   D2A12044   6.771  17.843   5.885  0.0753 -0.0115  0.0560
  796POPS   C3A12045   6.703  17.708   6.285  0.1099 -0.0839  0.1478
  796POPS   C4A12046   6.542  17.596   6.645 -0.3076 -0.3096  0.0881
  796POPS   C1B12047   6.189  17.116   5.633  0.1079 -0.0624 -0.3736
  796POPS   C2B12048   5.937  16.830   5.921 -0.0729 -0.0589  0.0211
  796POPS   C3B12049   5.819  16.528   6.174  0.1748 -0.0898 -0.0938
  796POPS   C4B12050   5.672  16.102   6.167  0.3273  0.1277  0.0125
  797POPS   CNO12051  18.019  18.838   4.593  0.2096 -0.0834 -0.0389
  797POPS   PO412052  18.059  18.573   4.925 -0.0641  0.1156  0.1556
  797POPS   GL112053  18.025  18.663   5.404 -0.1773  0.1365  0.1655
  797POPS   GL212054  17.802  18.624   5.691  0.2356 -0.0436 -0.4442
  797POPS   C1A12055  18.359  18.793   5.829  0.2559  0.3274 -0.1139
  797POPS   D2A12056  18.514  18.533   6.111 -0.1440 -0.0302  0.3180
  797POPS   C3A12057  18.685  18.633   6.529 -0.1307 -0.1408  0.1077
  797POPS   C4A12058  18.655  19.162   6.665 -0.2430 -0.3725  0.0982
  797POPS   C1B12059  18.002  18.565   6.049  0.1975 -0.0411 -0.1302
  797POPS   C2B12060  18.220  18.347   6.457  0.2872  0.3198 -0.0118
  797POPS   C3B12061  18.375  17.913   6.595  0.1519 -0.5028 -0.1397
  797POPS   C4B12062  18.545  17.789   6.916 -0.4893  0.0716 -0.0418
  798POPS   CNO12063   5.398  15.248   4.377 -0.1121  0.2234  0.1183
  798POPS   PO412064   5.501  14.848   4.699  0.3309  0.1056 -0.1400
  798POPS   GL112065   5.358  14.988   5.187  0.0809 -0.3218  0.3164
  798POPS   GL212066   5.129  15.328   5.182 -0.2327 -0.1263 -0.0665
  798POPS   C1A12067   5.467  15.253   5.655  0.0580 -0.1749  0.0059
  798POPS   D2A12068   5.615  15.252   6.045  0.0462 -0.2046 -0.2409
  798POPS   C3A12069   5.338  15.092   6.373  0.3495 -0.1916  0.1059
  798POPS   C4A12070   5.140  15.161   6.725 -0.0052  0.1598  0.0966
  798POPS   C1B12071   4.984  15.424   5.532  0.0621  0.2290  0.0740
  798POPS   C2B12072   4.773  15.607   5.971 -0.0554 -0.0082 -0.3573
  798POPS   C3B12073   4.462  15.711   6.290  0.1203 -0.2922  0.2141
  798POPS   C4B12074   4.243  15.928   6.541 -0.1054  0.4321 -0.2516
  799POPS   CNO12075   0.282   3.908   5.212 -0.0235  0.3910  0.2624
  799POPS   PO412076   0.069   3.535   5.103  0.3023  0.1191  0.3078
  799POPS   GL112077  -0.090   3.352   5.466  0.0136 -0.1561 -0.3703
  799POPS   GL212078  -0.292   3.729   5.605 -0.2605 -0.0865 -0.1585
  799POPS   C1A12079   0.091   3.202   5.761 -0.2219  0.1957  0.1269
  799POPS   D2A12080   0.093   2.951   6.076  0.3645 -0.0990  0.2086
  799POPS   C3A12081   0.376   2.636   6.331  0.1931  0.0433  0.1010
  799POPS   C4A12082   0.405   2.378   6.773  0.1143 -0.2152  0.1364
  799POPS   C1B12083  -0.268   3.847   6.027 -0.0941 -0.0947  0.4943
  799POPS   C2B12084  -0.033   3.895   6.334  0.0225  0.0313 -0.1697
  799POPS   C3B12085  -0.004   3.930   6.781 -0.4283  0.1770 -0.1094
  799POPS   C4B12086  -0.008   3.648   7.166  0.0914  0.0035  0.0684
  800POPS   CNO12087   7.395  17.493   4.728  0.1634 -0.0329 -0.2037
  800POPS   PO412088   7.481  17.095   4.991 -0.1418 -0.0005 -0.1685
  800POPS   GL112089   7.292  16.982   5.446  0.1985 -0.0939  0.0877
  800POPS   GL212090   6.927  17.101   5.431 -0.1449  0.0348  0.0229
  800POPS   C1A12091   7.217  16.977   5.866 -0.0129  0.0173 -0.0494
  800POPS   D2A12092   7.127  17.057   6.302  0.1054 -0.1237  0.0633
  800POPS   C3A12093   6.685  17.004   6.440 -0.2229  0.0256 -0.0483
  800POPS   C4A12094   6.349  16.797   6.208  0.0439 -0.3729  0.0643
  800POPS   C1B12095   6.796  17.308   5.843  0.0481  0.0868  0.2823
  800POPS   C2B12096   6.426  17.262   6.057 -0.1064  0.0927  0.2119
  800POPS   C3B12097   6.238  17.246   6.417  0.1202 -0.2757 -0.0393
  800POPS   C4B12098   6.119  17.435   6.905  0.1137 -0.0244 -0.3090
  801POPS   CNO12099   4.137  18.766   5.053  0.3511  0.4128  0.0800
  801POPS   PO412100   3.919  18.395   4.871  0.0957  0.0229  0.0740
  801POPS   GL112101   3.837  18.114   5.234 -0.2975 -0.0235 -0.1028
  801POPS   GL212102   4.084  18.388   5.427 -0.4875 -0.1865 -0.1912
  801POPS   C1A12103   3.571  17.923   5.572  0.1571 -0.0232  0.1380
  801POPS   D2A12104   3.352  17.750   5.851 -0.0752  0.0691  0.2294
  801POPS   C3A12105   3.593  17.745   6.214 -0.0662 -0.2367 -0.1791
  801POPS   C4A12106   3.519  18.165   6.498 -0.2087  0.1163 -0.2317
  801POPS   C1B12107   3.772  18.643   5.651  0.2122 -0.0930 -0.3548
  801POPS   C2B12108   3.848  18.929   5.933 -0.2330  0.1248  0.1802
  801POPS   C3B12109   3.500  19.138   6.294  0.0442  0.3308  0.3095
  801POPS   C4B12110   3.307  19.088   6.723 -0.0902  0.2827 -0.4924
  802POPS   CNO12111  11.658  11.760   5.695 -0.3840  0.1455  0.1361
  802POPS   PO412112  11.822  11.954   5.423  0.3890  0.1240  0.0464
  802POPS   GL112113  11.965  12.124   5.906  0.1361  0.2858  0.1662
  802POPS   GL212114  12.027  12.497   5.918  0.5383 -0.1923 -0.0909
  802POPS   C1A12115  11.844  12.044   6.362 -0.0492 -0.0798 -0.1491
  802POPS   D2A12116  11.852  11.894   6.774  0.0327 -0.0312 -0.0360
  802POPS   C3A12117  11.709  11.891   7.205  0.3001 -0.3159 -0.0983
  802POPS   C4A12118  11.734  11.810   7.738  0.0741  0.0844  0.3587
  802POPS   C1B12119  11.936  12.523   6.309 -0.2179 -0.3858  0.3013
  802POPS   C2B12120  12.075  12.464   6.714  0.0639  0.2746 -0.4576
  802POPS   C3B12121  11.929  12.336   7.140 -0.0621 -0.0648  0.0176
  802POPS   C4B12122  11.918  12.256   7.611  0.4395 -0.2427  0.2751
  803POPS   CNO12123   6.144   0.675   4.592  0.3272  0.3335 -0.0380
  803POPS   PO412124   6.008   0.998   4.755 -0.3519 -0.0931 -0.2768
  803POPS   GL112125   6.058   1.074   5.218  0.2021  0.1605  0.0828
  803POPS   GL212126   5.974   1.267   5.421 -0.0278  0.0281 -0.0270
  803POPS   C1A12127   6.150   0.789   5.506 -0.0664 -0.1466 -0.3091
  803POPS   D2A12128   6.269   0.453   5.622  0.0720  0.2950 -0.1850
  803POPS   C3A12129   6.120   0.424   6.028 -0.0621  0.1109  0.3480
  803POPS   C4A12130   6.002   0.052   6.230 -0.0324  0.1827  0.3003
  803POPS   C1B12131   5.863   1.294   5.813  0.4450  0.0710 -0.2182
  803POPS   C2B12132   5.577   1.308   6.204  0.2643 -0.0841 -0.3113
  803POPS   C3B12133   5.533   0.985   6.573 -0.1682  0.3224 -0.2054
  803POPS   C4B12134   5.561   1.065   7.066 -0.1113 -0.0403 -0.1639
  804POPS   CNO12135   3.931  10.943   4.803 -0.4084  0.1598 -0.0728
  804POPS   PO412136   3.673  10.680   4.873  0.3141  0.1190  0.0021
  804POPS   GL112137   3.423  10.685   5.232  0.1352 -0.0495  0.0300
  804POPS   GL212138   3.443  11.093   5.336 -0.1272 -0.1090  0.3506
  804POPS   C1A12139   3.307  10.424   5.585  0.0766  0.2887  0.0366
  804POPS   D2A12140   3.483  10.217   5.845 -0.1885 -0.0061  0.0067
  804POPS   C3A12141   3.741  10.263   6.180 -0.0688  0.0135 -0.2014
  804POPS   C4A12142   4.065  10.318   6.590 -0.0498 -0.0230 -0.0325
  804POPS   C1B12143   3.536  11.305   5.790  0.0506  0.0857 -0.1416
  804POPS   C2B12144   3.554  11.286   6.270 -0.2219 -0.0657  0.0108
  804POPS   C3B12145   3.650  11.508   6.613 -0.2956  0.0070 -0.1951
  804POPS   C4B12146   3.338  11.656   6.896  0.0289 -0.0344 -0.2075
  805POPS   CNO12147   5.156   5.391   5.238 -0.1362  0.0597  0.1895
  805POPS   PO412148   4.796   5.442   5.421  0.1274 -0.2625  0.1628
  805POPS   GL112149   4.642   5.372   5.845  0.4643  0.1787  0.0295
  805POPS   GL212150   4.408   5.452   5.771 -0.1426  0.0839  0.0319
  805POPS   C1A12151   4.879   5.192   6.210  0.1579 -0.1065 -0.1373
  805POPS   D2A12152   5.130   5.130   6.669  0.1655 -0.0815  0.3344
  805POPS   C3A12153   5.356   5.293   6.997  0.0455 -0.1039  0.0514
  805POPS   C4A12154   5.239   5.260   7.353 -0.2005  0.1133 -0.0713
  805POPS   C1B12155   4.603   5.654   6.251  0.1615  0.0975 -0.0762
  805POPS   C2B12156   4.569   6.017   6.533 -0.2623 -0.0101  0.0042
  805POPS   C3B12157   4.770   6.072   6.920 -0.1296  0.1205 -0.1061
  805POPS   C4B12158   4.799   6.382   7.194 -0.3583 -0.1850 -0.0467
  806POPS   CNO12159  14.822  15.761   4.954  0.3212  0.1030  0.0070
  806POPS   PO412160  14.706  15.614   5.283  0.0853 -0.0309 -0.2763
  806POPS   GL112161  14.792  15.933   5.461  0.2202  0.2219  0.0244
  806POPS   GL212162  14.660  16.170   5.432  0.0501 -0.1755 -0.1069
  806POPS   C1A12163  14.778  15.923   5.892 -0.1947  0.0575  0.2178
  806POPS   D2A12164  14.843  15.944   6.336  0.1226  0.1805 -0.0240
  806POPS   C3A12165  15.227  15.872   6.492  0.2404 -0.2598  0.0290
  806POPS   C4A12166  15.394  15.683   6.837 -0.2470  0.2328 -0.1413
  806POPS   C1B12167  14.716  16.437   5.787  0.2664  0.0041 -0.1384
  806POPS   C2B12168  14.804  16.354   6.129 -0.1133 -0.0067 -0.1251
  806POPS   C3B12169  15.156  16.346   6.540  0.2093  0.2096  0.2397
  806POPS   C4B12170  15.474  16.479   6.770  0.3341  0.2093 -0.1694
  807POPS   CNO12171   6.678   6.158   5.569  0.1250  0.2757 -0.2679
  807POPS   PO412172   7.098   6.130   5.486  0.3515 -0.1018 -0.1880
  807POPS   GL112173   7.304   6.333   5.749 -0.1734 -0.1304  0.0155
  807POPS   GL212174   7.413   6.605   5.818  0.1238  0.0851  0.0610
  807POPS   C1A12175   7.302   6.240   6.186  0.0944 -0.0072  0.1467
  807POPS   D2A12176   7.215   6.195   6.606  0.1659 -0.1896 -0.0846
  807POPS   C3A12177   6.984   6.110   6.907  0.1051  0.2736 -0.0647
  807POPS   C4A12178   6.808   6.457   7.139 -0.1819 -0.1290  0.0159
  807POPS   C1B12179   7.672   6.666   6.161  0.0571  0.0187  0.1158
  807POPS   C2B12180   7.627   6.599   6.532  0.1416 -0.1172  0.0060
  807POPS   C3B12181   7.500   6.610   6.923  0.3186 -0.0676 -0.0463
  807POPS   C4B12182   7.403   6.408   7.296 -0.3947  0.0955 -0.0067
  808POPS   CNO12183  11.981   7.944   6.073 -0.0783  0.1367 -0.1805
  808POPS   PO412184  11.850   7.583   5.800 -0.1414  0.0115  0.3849
  808POPS   GL112185  11.619   7.591   6.171  0.1967  0.1433 -0.2018
  808POPS   GL212186  11.592   7.180   6.289 -0.3691 -0.2511 -0.3360
  808POPS   C1A12187  11.429   7.605   6.492 -0.2964 -0.0403  0.1025
  808POPS   D2A12188  10.993   7.778   6.529 -0.0439  0.1032  0.2618
  808POPS   C3A12189  10.958   7.597   6.981  0.0261 -0.0051  0.1615
  808POPS   C4A12190  10.940   7.836   7.370 -0.2324  0.0778 -0.3042
  808POPS   C1B12191  11.947   6.936   6.441  0.2343  0.1142  0.0127
  808POPS   C2B12192  12.179   6.683   6.732 -0.1908  0.1090  0.1193
  808POPS   C3B12193  12.519   6.800   7.017  0.0895 -0.0538  0.1019
  808POPS   C4B12194  12.680   7.031   7.327 -0.0659  0.0510 -0.1874
  809POPS   CNO12195  10.737   0.425   4.935 -0.2657  0.1862 -0.1511
  809POPS   PO412196  10.880   0.701   5.176  0.2108  0.0093 -0.2306
  809POPS   GL112197  10.890   0.451   5.468  0.2430 -0.0404  0.2512
  809POPS   GL212198  11.101   0.299   5.500 -0.0646  0.0827  0.3047
  809POPS   C1A12199  10.748   0.541   5.892 -0.0042 -0.2567  0.0830
  809POPS   D2A12200  10.574   0.504   6.214 -0.2336  0.2191  0.3050
  809POPS   C3A12201  10.870   0.690   6.421  0.2528 -0.0651  0.0886
  809POPS   C4A12202  11.185   0.971   6.467 -0.0019 -0.0022 -0.0370
  809POPS   C1B12203  11.120   0.169   5.995 -0.1552  0.3247 -0.1740
  809POPS   C2B12204  11.017   0.135   6.447 -0.0143  0.0507 -0.0918
  809POPS   C3B12205  10.822   0.219   6.925 -0.2592 -0.1474  0.0356
  809POPS   C4B12206  10.487   0.127   7.056  0.0631 -0.3606 -0.0073
  810POPS   CNO12207   4.647  17.405   4.133 -0.0030 -0.0235  0.2352
  810POPS   PO412208   4.849  17.676   4.313  0.0658 -0.2181 -0.3635
  810POPS   GL112209   4.952  17.738   4.775  0.0439  0.0850  0.0959
  810POPS   GL212210   4.983  17.999   4.852 -0.1385  0.1246 -0.1346
  810POPS   C1A12211   5.063  17.481   5.197  0.5867 -0.1116  0.1086
  810POPS   D2A12212   5.184  17.325   5.599 -0.3219  0.1305  0.0302
  810POPS   C3A12213   5.176  16.926   5.843 -0.2661 -0.1381 -0.0276
  810POPS   C4A12214   5.415  16.533   5.828 -0.1692 -0.1620 -0.1783
  810POPS   C1B12215   4.856  17.950   5.276 -0.2079 -0.1984  0.3086
  810POPS   C2B12216   4.982  17.970   5.767 -0.2098  0.3039 -0.1070
  810POPS   C3B12217   5.066  17.878   6.233  0.2540  0.3349  0.0092
  810POPS   C4B12218   5.072  17.867   6.736  0.2017 -0.1948  0.0579
  811YOPS   CNO12219   7.697   0.980   4.346 -0.1328  0.1916  0.2237
  811YOPS   PO412220   7.926   0.534   4.615  0.2113  0.3107  0.0856
  811YOPS   GL112221   7.971   0.528   5.080 -0.1676  0.4152 -0.4318
  811YOPS   GL212222   8.067   0.260   5.310 -0.3320 -0.0812  0.0628
  811YOPS   C1A12223   7.733   0.684   5.386  0.1606  0.1106 -0.1894
  811YOPS   D2A12224   7.803   0.934   5.640 -0.0258 -0.3449 -0.1790
  811YOPS   C3A12225   7.566   1.375   5.832  0.0252 -0.1515 -0.0824
  811YOPS   C4A12226   7.251   1.303   5.993 -0.2874 -0.1449 -0.2530
  811YOPS   C1B12227   8.097   0.425   5.691  0.0400 -0.1219  0.0757
  811YOPS   C2B12228   8.117   0.701   5.943  0.2085  0.1806 -0.1039
  811YOPS   D3B12229   8.026   0.950   6.271  0.3208 -0.1636  0.1726
  811YOPS   C4B12230   7.747   0.917   6.656 -0.1460 -0.0996  0.0430
  812YOPS   CNO12231  18.954  11.011   5.204 -0.0098 -0.0039 -0.0507
  812YOPS   PO412232  19.070  11.260   5.550 -0.0172  0.0896  0.1027
  812YOPS   GL112233  19.266  11.205   5.967  0.1053  0.0429  0.3059
  812YOPS   GL212234  19.279  10.780   5.915  0.1414  0.0807  0.0962
  812YOPS   C1A12235  19.694  11.159   6.315 -0.1149 -0.4554 -0.1501
  812YOPS   D2A12236  20.031  11.321   6.480 -0.1068 -0.1174  0.1087
  812YOPS   C3A12237  20.448  11.359   6.787 -0.0216 -0.0057 -0.1964
  812YOPS   C4A12238  20.437  11.851   6.963 -0.0418 -0.1758  0.0884
  812YOPS   C1B12239  19.577  10.689   6.220 -0.0628  0.1670 -0.3198
  812YOPS   C2B12240  19.676  10.504   6.565 -0.1363 -0.2908  0.1265
  812YOPS   D3B12241  19.850  10.837   6.830 -0.0112 -0.1558 -0.0600
  812YOPS   C4B12242  19.731  11.239   6.867  0.0950  0.0616 -0.0442
  813YOPS   CNO12243   3.072   4.161   5.061 -0.0946  0.3254  0.2458
  813YOPS   PO412244   3.192   4.372   5.445 -0.0448  0.0136 -0.0083
  813YOPS   GL112245   3.065   4.118   5.796 -0.0166 -0.0751  0.1774
  813YOPS   GL212246   3.378   3.923   5.944 -0.3230  0.2119  0.1550
  813YOPS   C1A12247   2.971   3.844   6.232 -0.0167 -0.0813  0.3927
  813YOPS   D2A12248   2.848   3.942   6.634  0.1716 -0.1504 -0.1094
  813YOPS   C3A12249   2.946   4.182   6.972 -0.1144 -0.0359  0.3353
  813YOPS   C4A12250   2.742   4.232   7.246  0.1668  0.1028  0.0118
  813YOPS   C1B12251   3.442   3.633   6.247 -0.0499 -0.1812 -0.0898
  813YOPS   C2B12252   3.597   3.305   6.532  0.2824  0.1294 -0.0894
  813YOPS   D3B12253   3.915   3.181   6.666  0.3592 -0.0247  0.1986
  813YOPS   C4B12254   4.090   2.976   6.974  0.0745  0.3148  0.0169
  814YOPS   CNO12255  10.699   5.260   5.374 -0.0920  0.2299 -0.1113
  814YOPS   PO412256  10.652   5.554   5.558 -0.0416 -0.0957  0.0312
  814YOPS   GL112257  10.534   5.326   5.973 -0.2317  0.0404 -0.2383
  814YOPS   GL212258  10.758   5.668   6.063 -0.1641 -0.2195  0.0847
  814YOPS   C1A12259  10.560   5.008   6.250 -0.0073 -0.2229 -0.0801
  814YOPS   D2A12260  10.653   4.896   6.628  0.7071  0.0484  0.3167
  814YOPS   C3A12261  10.659   4.649   6.966  0.1686  0.0918 -0.0051
  814YOPS   C4A12262  11.125   4.646   7.221 -0.2436 -0.1531 -0.3765
  814YOPS   C1B12263  10.769   5.896   6.359  0.2785  0.0235  0.2121
  814YOPS   C2B12264  10.886   5.983   6.760  0.1109  0.0071 -0.2389
  814YOPS   D3B12265  11.206   6.156   7.041  0.1207  0.1910 -0.1528
  814YOPS   C4B12266  10.932   6.103   7.326  0.0458 -0.3053  0.0129
  815YOPS   CNO12267   8.204   7.532   5.443  0.2630  0.0778  0.1462
  815YOPS   PO412268   7.811   7.786   5.329  0.1662 -0.0264 -0.1987
  815YOPS   GL112269   7.670   7.957   5.744  0.1923 -0.1789 -0.2116
  815YOPS   GL212270   7.440   8.147   5.685  0.0076 -0.0194 -0.4503
  815YOPS   C1A12271   7.977   8.179   6.032  0.7417 -0.1666  0.1242
  815YOPS   D2A12272   8.152   8.276   6.482 -0.0542  0.0174 -0.1433
  815YOPS   C3A12273   8.500   8.312   6.837  0.0757  0.3475  0.1703
  815YOPS   C4A12274   8.895   8.484   6.767 -0.2659 -0.0221  0.0317
  815YOPS   C1B12275   7.329   8.116   6.112  0.0362 -0.2426 -0.2273
  815YOPS   C2B12276   7.337   7.734   6.308  0.0524  0.1805 -0.0119
  815YOPS   D3B12277   7.498   7.287   6.260 -0.0338  0.2482 -0.0521
  815YOPS   C4B12278   7.457   7.101   5.844 -0.2268 -0.1689 -0.2026
  816YOPS   CNO12279  16.912  13.282   4.642 -0.4167 -0.2324 -0.3332
  816YOPS   PO412280  16.977  13.025   5.026  0.1976 -0.0280 -0.1336
  816YOPS   GL112281  16.798  13.127   5.377 -0.1594 -0.0732  0.2212
  816YOPS   GL212282  16.987  13.049   5.614  0.1729  0.0904  0.0366
  816YOPS   C1A12283  16.683  13.551   5.733 -0.1746  0.0974  0.0239
  816YOPS   D2A12284  16.777  13.849   5.977 -0.2081 -0.1657 -0.0362
  816YOPS   C3A12285  16.917  13.996   6.326 -0.1731 -0.0547  0.0047
  816YOPS   C4A12286  16.776  13.951   6.656 -0.4923  0.2389 -0.0006
  816YOPS   C1B12287  16.936  12.916   6.003 -0.0004  0.0051 -0.0898
  816YOPS   C2B12288  17.000  12.913   6.445  0.1220  0.0665  0.1202
  816YOPS   D3B12289  17.102  13.169   6.726  0.3177 -0.0247 -0.0183
  816YOPS   C4B12290  16.771  13.423   6.925 -0.0614 -0.1271 -0.1171
  817YOPS   CNO12291   1.423   0.473   4.712 -0.4093 -0.2096 -0.0538
  817YOPS   PO412292   1.687   0.221   4.862  0.1270 -0.0716 -0.0215
  817YOPS   GL112293   2.002   0.189   5.196 -0.3052 -0.1931  0.2004
  817YOPS   GL212294   2.247   0.385   5.381 -0.2605  0.2285 -0.0435
  817YOPS   C1A12295   1.965  -0.035   5.611 -0.0992  0.0573 -0.1888
  817YOPS   D2A12296   1.943  -0.468   5.738  0.0043 -0.0016  0.0615
  817YOPS   C3A12297   1.964  -0.601   6.149  0.1244  0.0640  0.0395
  817YOPS   C4A12298   1.621  -0.403   6.454 -0.2354  0.0445 -0.0898
  817YOPS   C1B12299   2.329   0.351   5.801 -0.0850  0.0133 -0.3662
  817YOPS   C2B12300   2.683   0.117   5.999 -0.3811  0.1071  0.2696
  817YOPS   D3B12301   2.657   0.144   6.410 -0.0484  0.3461  0.0441
  817YOPS   C4B12302   2.301   0.111   6.473 -0.1546 -0.7126 -0.1328
  818YOPS   CNO12303  13.465   8.609   5.947  0.3584 -0.0772 -0.1443
  818YOPS   PO412304  13.333   8.980   5.772 -0.1832 -0.0909 -0.1720
  818YOPS   GL112305  13.636   9.178   5.973  0.0169 -0.2150  0.3447
  818YOPS   GL212306  13.918   9.145   6.278  0.0600 -0.0669 -0.0911
  818YOPS   C1A12307  13.640   9.579   6.155  0.1869  0.4575 -0.3285
  818YOPS   D2A12308  13.761   9.866   6.549  0.0956 -0.0513  0.1105
  818YOPS   C3A12309  13.729  10.056   6.978 -0.0231  0.0336  0.2143
  818YOPS   C4A12310  13.547  10.376   7.315 -0.2123 -0.1105 -0.0212
  818YOPS   C1B12311  13.894   9.397   6.699 -0.1257  0.0021 -0.1580
  818YOPS   C2B12312  13.784   9.593   7.159 -0.3543 -0.0702  0.0622
  818YOPS   D3B12313  14.099   9.688   7.451  0.4833  0.4090  0.0941
  818YOPS   C4B12314  14.047   9.644   7.894 -0.2589 -0.0612  0.2410
  819YOPS   CNO12315  14.639  17.625   4.847  0.0917 -0.2013 -0.2749
  819YOPS   PO412316  14.677  17.955   5.174  0.0886  0.1277  0.2133
  819YOPS   GL112317  14.605  18.344   5.475  0.1619  0.2023 -0.0866
  819YOPS   GL212318  14.736  18.554   5.391  0.3282 -0.3883  0.0703
  819YOPS   C1A12319  14.580  18.263   5.936 -0.3347 -0.2674  0.0278
  819YOPS   D2A12320  14.581  18.323   6.424 -0.1678  0.0590 -0.1075
  819YOPS   C3A12321  14.594  18.418   6.905  0.2240  0.0700 -0.1103
  819YOPS   C4A12322  14.568  18.396   7.362 -0.0184  0.0487  0.0924
  819YOPS   C1B12323  14.565  18.820   5.772 -0.3791  0.1574  0.1139
  819YOPS   C2B12324  14.656  18.771   6.224  0.0802  0.4076  0.1342
  819YOPS   D3B12325  14.864  18.775   6.536  0.0973  0.3508  0.0641
  819YOPS   C4B12326  14.869  18.924   6.943 -0.3583 -0.2888  0.0659
  820YOPS   CNO12327  12.148   3.603   4.730 -0.1130 -0.0827  0.2443
  820YOPS   PO412328  12.234   3.639   5.281  0.1003 -0.0196  0.1978
  820YOPS   GL112329  12.402   3.575   5.727  0.1162 -0.1435  0.2740
  820YOPS   GL212330  12.645   3.772   5.917  0.2520 -0.0535  0.1802
  820YOPS   C1A12331  12.412   3.354   6.033  0.2016  0.2333  0.0371
  820YOPS   D2A12332  12.146   2.961   6.284 -0.0913  0.1566  0.1920
  820YOPS   C3A12333  12.194   2.767   6.689  0.5237 -0.1596  0.3843
  820YOPS   C4A12334  12.439   2.518   6.938  0.1064  0.2893  0.0140
  820YOPS   C1B12335  12.735   3.635   6.319 -0.0727  0.0028 -0.1549
  820YOPS   C2B12336  13.066   3.345   6.358 -0.1081 -0.0829 -0.0625
  820YOPS   D3B12337  13.153   3.085   5.990  0.1797  0.3638  0.0030
  820YOPS   C4B12338  13.501   3.014   5.766 -0.2003  0.3326 -0.2076
  821YOPS   CNO12339  16.862   1.453   4.988 -0.0086 -0.0233  0.0791
  821YOPS   PO412340  16.369   1.623   5.019  0.2103  0.1605 -0.0335
  821YOPS   GL112341  16.396   1.366   5.366  0.0206 -0.2274 -0.0857
  821YOPS   GL212342  16.282   1.162   5.551  0.3504 -0.0211 -0.3737
  821YOPS   C1A12343  16.176   1.583   5.736  0.0228 -0.2685 -0.0493
  821YOPS   D2A12344  15.878   1.763   5.849 -0.2514 -0.1363  0.4080
  821YOPS   C3A12345  15.626   1.971   6.138  0.0678  0.0533 -0.0097
  821YOPS   C4A12346  15.255   1.768   6.294 -0.1062  0.1171 -0.0717
  821YOPS   C1B12347  15.854   1.053   5.866  0.1235 -0.3108 -0.1431
  821YOPS   C2B12348  15.665   1.103   6.313  0.0691 -0.1501 -0.0070
  821YOPS   D3B12349  15.525   0.816   6.583  0.3297  0.0752 -0.2313
  821YOPS   C4B12350  15.391   0.966   7.043  0.0904  0.1595  0.2899
  822YOPS   CNO12351   7.835   7.119   5.304 -0.1978 -0.4044  0.0729
  822YOPS   PO412352   7.635   6.656   5.382 -0.0247 -0.0487  0.1395
  822YOPS   GL112353   7.908   6.708   5.716 -0.1860  0.0310 -0.0860
  822YOPS   GL212354   7.928   6.967   5.768 -0.1506 -0.2271  0.0485
  822YOPS   C1A12355   8.149   6.560   5.933 -0.3099 -0.1744 -0.1123
  822YOPS   D2A12356   8.102   6.598   6.355 -0.3090  0.0380 -0.1060
  822YOPS   C3A12357   7.932   6.832   6.826 -0.1067  0.4225  0.2734
  822YOPS   C4A12358   7.648   7.090   6.908 -0.2005 -0.1817  0.2480
  822YOPS   C1B12359   7.935   7.408   5.846 -0.2814  0.0012  0.0398
  822YOPS   C2B12360   7.857   7.651   6.268 -0.0113  0.1336  0.0479
  822YOPS   D3B12361   7.763   7.988   6.523 -0.3051  0.0537  0.0170
  822YOPS   C4B12362   7.977   8.094   6.874 -0.2634 -0.2221 -0.0495
  823YOPS   CNO12363  13.196   9.558   5.825 -0.0535  0.0557 -0.0006
  823YOPS   PO412364  12.844   9.790   5.969 -0.1133  0.0879 -0.1897
  823YOPS   GL112365  12.736   9.809   6.309 -0.0473 -0.1876  0.1366
  823YOPS   GL212366  12.415   9.791   6.210 -0.0400 -0.5352  0.0933
  823YOPS   C1A12367  12.826   9.972   6.699 -0.2191 -0.2132 -0.3657
  823YOPS   D2A12368  12.772  10.192   7.203 -0.3969 -0.1558 -0.1436
  823YOPS   C3A12369  13.085  10.345   7.583  0.1306  0.0456  0.0478
  823YOPS   C4A12370  13.408  10.741   7.784 -0.0080  0.2261  0.1084
  823YOPS   C1B12371  12.410   9.631   6.693 -0.1477  0.0849 -0.0137
  823YOPS   C2B12372  12.452   9.737   7.092 -0.0382 -0.1074  0.0159
  823YOPS   D3B12373  12.303   9.525   7.505 -0.1037 -0.0329  0.2006
  823YOPS   C4B12374  12.331   9.047   7.436 -0.1402 -0.0276 -0.5400
  824YOPS   CNO12375   2.643  13.334   4.743 -0.0329 -0.2949 -0.0279
  824YOPS   PO412376   2.550  13.821   4.780  0.2268  0.3738  0.1611
  824YOPS   GL112377   2.297  13.747   5.106  0.0862  0.0497 -0.3479
  824YOPS   GL212378   2.380  13.403   5.174  0.0593 -0.0640  0.0068
  824YOPS   C1A12379   2.073  13.981   5.419  0.1695  0.1512  0.1931
  824YOPS   D2A12380   1.905  14.388   5.535  0.2325  0.1222  0.0727
  824YOPS   C3A12381   1.801  14.791   5.302 -0.0413  0.4724  0.0357
  824YOPS   C4A12382   1.461  15.099   5.327 -0.0365 -0.1263 -0.2500
  824YOPS   C1B12383   2.649  13.766   5.507  0.1254 -0.1737 -0.2071
  824YOPS   C2B12384   2.441  14.101   5.773 -0.0881 -0.1337 -0.0628
  824YOPS   D3B12385   2.110  14.118   6.020 -0.0199  0.0011 -0.0247
  824YOPS   C4B12386   2.271  14.280   6.386 -0.0549 -0.1535 -0.1591
  825YOPS   CNO12387  11.307   2.016   4.758  0.0185  0.1001 -0.4057
  825YOPS   PO412388  11.471   1.955   5.170 -0.1621  0.0285  0.0603
  825YOPS   GL112389  11.607   2.027   5.607 -0.0539  0.2162  0.3357
  825YOPS   GL212390  11.843   2.090   5.809 -0.0421 -0.0551  0.0248
  825YOPS   C1A12391  11.446   1.748   5.977  0.0140  0.2238  0.3189
  825YOPS   D2A12392  11.436   1.778   6.424  0.0737 -0.4206  0.0707
  825YOPS   C3A12393  11.399   1.461   6.774  0.2639 -0.2053  0.1385
  825YOPS   C4A12394  11.048   1.547   7.007  0.0618  0.1579  0.3600
  825YOPS   C1B12395  11.635   2.206   6.257 -0.0115 -0.1178 -0.4055
  825YOPS   C2B12396  11.454   2.382   6.635  0.0658 -0.2995  0.0619
  825YOPS   D3B12397  11.328   2.443   7.116 -0.2137  0.0224  0.2414
  825YOPS   C4B12398  11.511   2.554   7.496 -0.0167 -0.0347  0.0776
  826YOPS   CNO12399  14.398  14.304   4.885  0.2242 -0.1964 -0.3559
  826YOPS   PO412400  14.826  14.405   5.017  0.1200  0.2370  0.0120
  826YOPS   GL112401  15.066  14.179   5.302 -0.2548 -0.0400 -0.1451
  826YOPS   GL212402  15.221  13.840   5.348 -0.1415  0.1824  0.2380
  826YOPS   C1A12403  15.483  14.202   5.583  0.0842 -0.0895 -0.4393
  826YOPS   D2A12404  15.498  14.176   6.045  0.2169 -0.0092  0.2671
  826YOPS   C3A12405  15.492  14.224   6.496 -0.0429 -0.1232  0.3898
  826YOPS   C4A12406  15.122  14.073   6.759  0.1334  0.0334 -0.0945
  826YOPS   C1B12407  15.239  13.807   5.794 -0.3216 -0.1504 -0.0271
  826YOPS   C2B12408  15.341  13.697   6.280  0.0483 -0.1320 -0.1315
  826YOPS   D3B12409  15.574  13.707   6.586  0.3745  0.0709 -0.1019
  826YOPS   C4B12410  15.570  13.873   7.038  0.1155 -0.2435 -0.0355
  827YOPS   CNO12411   3.882   2.295   5.183  0.0143 -0.1138 -0.1788
  827YOPS   PO412412   4.078   2.726   5.245 -0.1172 -0.1873  0.3661
  827YOPS   GL112413   3.946   2.660   5.670  0.0757 -0.3534  0.2628
  827YOPS   GL212414   3.883   2.409   5.755 -0.3356  0.0730 -0.2198
  827YOPS   C1A12415   4.001   2.683   6.165  0.1225 -0.1481 -0.1758
  827YOPS   D2A12416   4.290   2.679   6.402  0.0457 -0.0490  0.0390
  827YOPS   C3A12417   4.481   2.274   6.379  0.1238  0.1588 -0.0374
  827YOPS   C4A12418   4.940   2.415   6.175 -0.1130 -0.3254 -0.1465
  827YOPS   C1B12419   4.008   2.204   6.192 -0.0999 -0.4746 -0.1256
  827YOPS   C2B12420   4.101   1.896   6.246  0.2798  0.0868 -0.0665
  827YOPS   D3B12421   3.987   1.491   6.445 -0.2541  0.0619  0.1608
  827YOPS   C4B12422   4.108   1.320   6.800  0.4041 -0.3376  0.2773
  828YOPS   CNO12423  17.451   2.917   4.695  0.2136 -0.2463  0.0100
  828YOPS   PO412424  17.389   3.384   4.742  0.2277  0.0483 -0.2100
  828YOPS   GL112425  17.518   3.463   5.010  0.1627  0.0057  0.2871
  828YOPS   GL212426  17.810   3.559   5.271 -0.1991 -0.1581 -0.1242
  828YOPS   C1A12427  17.404   3.381   5.511 -0.0759 -0.0081  0.2138
  828YOPS   D2A12428  17.431   3.309   5.935  0.0477  0.0811  0.1235
  828YOPS   C3A12429  17.481   3.169   6.254 -0.0883 -0.0422 -0.3082
  828YOPS   C4A12430  17.576   3.541   6.632  0.1424  0.1901  0.0045
  828YOPS   C1B12431  17.879   3.415   5.723  0.1574  0.0262 -0.1227
  828YOPS   C2B12432  17.954   3.391   6.150  0.1025  0.1441  0.2538
  828YOPS   D3B12433  17.923   3.156   6.586  0.2323 -0.3854  0.0310
  828YOPS   C4B12434  17.780   3.105   7.023  0.0127  0.1144  0.2162
  829YOPS   CNO12435   5.849   1.422   4.951  0.0818  0.2628 -0.3104
  829YOPS   PO412436   5.509   1.532   4.859  0.1095  0.0350  0.0937
  829YOPS   GL112437   5.499   1.453   5.284 -0.0932 -0.2829 -0.1101
  829YOPS   GL212438   5.592   1.687   5.510 -0.0074 -0.0779  0.1531
  829YOPS   C1A12439   5.352   1.258   5.706  0.3306  0.2746 -0.2421
  829YOPS   D2A12440   5.164   1.020   6.041 -0.0777  0.3045 -0.3848
  829YOPS   C3A12441   5.059   1.077   6.509 -0.0864  0.0416  0.2817
  829YOPS   C4A12442   5.145   0.838   6.810  0.2202 -0.1190  0.0529
  829YOPS   C1B12443   5.641   1.716   5.893 -0.2207 -0.1761 -0.1717
  829YOPS   C2B12444   5.791   1.918   6.315 -0.0510  0.0234  0.3246
  829YOPS   D3B12445   5.580   2.203   6.571  0.1203 -0.1991 -0.0593
  829YOPS   C4B12446   5.174   2.113   6.676 -0.3979  0.0371  0.2042
  830YOPS   CNO12447  11.711   8.630   5.475  0.0963  0.2783  0.2152
  830YOPS   PO412448  11.629   8.476   5.782  0.2284 -0.1268 -0.1373
  830YOPS   GL112449  11.568   8.612   6.195 -0.1334 -0.3928  0.3770
  830YOPS   GL212450  11.730   8.324   6.251 -0.0061  0.0040  0.2380
  830YOPS   C1A12451  11.620   8.857   6.640 -0.2590  0.1865 -0.2074
  830YOPS   D2A12452  11.576   9.155   7.015 -0.1258  0.0107  0.0008
  830YOPS   C3A12453  11.763   9.221   7.401 -0.0532  0.3004  0.1197
  830YOPS   C4A12454  11.960   9.470   7.801  0.1108 -0.2347  0.1037
  830YOPS   C1B12455  11.237   8.384   6.513  0.0243 -0.4182 -0.0055
  830YOPS   C2B12456  11.129   8.674   6.821 -0.0735 -0.1322  0.0776
  830YOPS   D3B12457  11.240   8.820   7.019 -0.3439 -0.2295 -0.1315
  830YOPS   C4B12458  10.926   8.891   7.306  0.1976  0.1063  0.1309
  831YOPS   CNO12459  17.837  12.904   4.842 -0.2710  0.0246 -0.0516
  831YOPS   PO412460  17.647  12.571   5.047  0.2856  0.0475  0.3190
  831YOPS   GL112461  17.638  12.720   5.506  0.3730 -0.0428 -0.3945
  831YOPS   GL212462  17.430  12.728   5.732 -0.0915  0.1429 -0.0202
  831YOPS   C1A12463  17.971  12.925   5.770 -0.2326 -0.1103 -0.2186
  831YOPS   D2A12464  18.345  12.975   6.045 -0.1523 -0.1685 -0.1255
  831YOPS   C3A12465  18.615  13.336   6.083 -0.3588  0.2581  0.2385
  831YOPS   C4A12466  18.473  13.589   6.471 -0.4100 -0.0771  0.1196
  831YOPS   C1B12467  17.747  12.620   6.107 -0.1738  0.8361 -0.0290
  831YOPS   C2B12468  18.040  12.691   6.277  0.0779  0.0082  0.1577
  831YOPS   D3B12469  18.184  13.024   6.486 -0.2237 -0.2647 -0.0041
  831YOPS   C4B12470  18.283  12.840   6.828 -0.1942 -0.0392 -0.0122
  832YOPS   CNO12471  10.783  14.951   4.780 -0.1374  0.0236  0.1775
  832YOPS   PO412472  10.761  14.833   5.206 -0.1500 -0.0953 -0.2203
  832YOPS   GL112473  10.909  14.836   5.571  0.0469  0.0594 -0.1359
  832YOPS   GL212474  10.660  15.048   5.710  0.3500 -0.0278 -0.0340
  832YOPS   C1A12475  11.174  14.582   5.931  0.1570  0.0389 -0.1562
  832YOPS   D2A12476  11.421  14.655   6.306  0.2963 -0.1127  0.2136
  832YOPS   C3A12477  11.617  14.858   6.686 -0.0546 -0.0747  0.1351
  832YOPS   C4A12478  11.546  14.779   7.025  0.1075 -0.0978 -0.2288
  832YOPS   C1B12479  10.776  15.012   6.055  0.0332  0.4593 -0.0337
  832YOPS   C2B12480  10.907  14.732   6.337  0.0832  0.1492  0.1386
  832YOPS   D3B12481  11.104  14.828   6.691  0.0293 -0.0148  0.1560
  832YOPS   C4B12482  11.021  14.827   7.149  0.1463 -0.4254  0.0111
  833YOPS   CNO12483  11.515   6.609   5.691  0.0527  0.0222 -0.0805
  833YOPS   PO412484  11.320   6.339   5.515 -0.0435 -0.1215 -0.3040
  833YOPS   GL112485  11.044   6.494   5.749  0.1819  0.0512 -0.0028
  833YOPS   GL212486  10.846   6.287   5.891  0.0046 -0.1110  0.2364
  833YOPS   C1A12487  11.018   6.735   6.072 -0.0404  0.4562 -0.1034
  833YOPS   D2A12488  11.176   6.898   6.423 -0.0749 -0.2877  0.5057
  833YOPS   C3A12489  11.059   7.190   6.712 -0.2610  0.4979 -0.2486
  833YOPS   C4A12490  11.041   7.119   7.130  0.2653 -0.0985  0.0881
  833YOPS   C1B12491  11.138   6.182   6.150 -0.0290 -0.0998 -0.1994
  833YOPS   C2B12492  11.339   6.025   6.532 -0.0337  0.0957 -0.1210
  833YOPS   D3B12493  11.602   5.863   6.861  0.0761  0.0939  0.1962
  833YOPS   C4B12494  11.673   6.072   7.357 -0.0028 -0.2870 -0.1162
  834YOPS   CNO12495   6.804  15.100   4.941 -0.2214 -0.0272  0.1448
  834YOPS   PO412496   7.002  15.415   4.649  0.1526 -0.1122 -0.3224
  834YOPS   GL112497   6.859  15.627   5.047  0.1755 -0.0776  0.1474
  834YOPS   GL212498   6.856  15.901   4.931 -0.0598  0.0453 -0.0825
  834YOPS   C1A12499   6.691  15.532   5.508 -0.0652 -0.1623  0.1308
  834YOPS   D2A12500   6.769  15.486   5.865  0.1322 -0.1018 -0.0934
  834YOPS   C3A12501   6.737  15.539   6.252  0.3721  0.0516  0.2599
  834YOPS   C4A12502   6.761  15.268   6.698  0.2388 -0.2654 -0.0457
  834YOPS   C1B12503   6.759  16.077   5.361 -0.1319  0.2771 -0.0305
  834YOPS   C2B12504   6.568  16.288   5.666 -0.1560  0.1177 -0.0930
  834YOPS   D3B12505   6.290  16.432   5.928  0.0108 -0.0652  0.0253
  834YOPS   C4B12506   5.869  16.219   5.661 -0.0632  0.3318 -0.1294
  835YOPS   CNO12507  14.800  10.397   5.520  0.0533 -0.4187 -0.1241
  835YOPS   PO412508  15.178  10.165   5.330 -0.0689 -0.0591 -0.3452
  835YOPS   GL112509  15.455  10.195   5.727  0.2713  0.0168  0.2136
  835YOPS   GL212510  15.791  10.353   5.744  0.2448 -0.0219 -0.2348
  835YOPS   C1A12511  15.377  10.040   6.128 -0.3160  0.2470  0.0418
  835YOPS   D2A12512  15.303  10.006   6.512  0.2580 -0.0405 -0.1382
  835YOPS   C3A12513  15.221  10.034   6.994 -0.0361  0.5006 -0.0031
  835YOPS   C4A12514  14.891   9.724   7.206 -0.2246  0.2942 -0.0615
  835YOPS   C1B12515  15.541  10.557   6.151  0.0087  0.6901 -0.0568
  835YOPS   C2B12516  15.409  10.575   6.495  0.1553 -0.4513  0.1637
  835YOPS   D3B12517  15.054  10.493   6.787  0.1023  0.2992 -0.0024
  835YOPS   C4B12518  15.040  10.507   7.233 -0.1115  0.2605  0.2986
  836YOPS   CNO12519   8.996   8.922   5.298  0.4154 -0.1087 -0.1873
  836YOPS   PO412520   9.361   9.101   5.427 -0.1482 -0.0395 -0.3912
  836YOPS   GL112521   9.448   9.202   5.862 -0.0745  0.4040  0.0782
  836YOPS   GL212522   9.764   9.383   5.997 -0.1065  0.4279 -0.0571
  836YOPS   C1A12523   9.145   9.073   6.333  0.1315  0.1537 -0.2536
  836YOPS   D2A12524   8.979   9.063   6.757 -0.0454  0.3410  0.0846
  836YOPS   C3A12525   8.698   8.843   7.188 -0.0595 -0.2554 -0.1541
  836YOPS   C4A12526   8.418   9.000   7.475  0.1944 -0.1128  0.3636
  836YOPS   C1B12527   9.756   9.644   6.478 -0.3015  0.0620  0.0536
  836YOPS   C2B12528   9.803   9.775   6.808 -0.0493  0.0823 -0.1438
  836YOPS   D3B12529  10.036   9.757   7.145 -0.0806  0.1126 -0.0714
  836YOPS   C4B12530  10.273   9.529   7.489  0.0419  0.0359 -0.0466
  837YOPS   CNO12531  17.674  17.257   4.567 -0.1674 -0.2884  0.0436
  837YOPS   PO412532  17.824  17.340   5.186  0.1770 -0.0321 -0.3023
  837YOPS   GL112533  17.756  17.387   5.566  0.0563  0.2269  0.0568
  837YOPS   GL212534  17.536  17.129   5.678 -0.0159  0.2854 -0.0441
  837YOPS   C1A12535  17.577  17.567   5.897  0.2060 -0.2250 -0.1110
  837YOPS   D2A12536  17.317  17.824   6.233  0.0333  0.1188  0.0792
  837YOPS   C3A12537  17.218  18.067   6.575 -0.2789 -0.2297 -0.1234
  837YOPS   C4A12538  17.423  17.741   6.788 -0.1467  0.1647  0.0315
  837YOPS   C1B12539  17.727  16.784   5.932  0.0831 -0.0367  0.5019
  837YOPS   C2B12540  17.825  16.394   6.121  0.1509  0.0214  0.3435
  837YOPS   D3B12541  18.130  16.279   6.411 -0.0075  0.3090  0.1065
  837YOPS   C4B12542  18.192  16.528   6.846 -0.0614 -0.0198 -0.2153
  838YOPS   CNO12543  19.383  14.221   5.101 -0.3897 -0.0875  0.2282
  838YOPS   PO412544  19.191  13.970   5.409 -0.1155 -0.2209  0.6655
  838YOPS   GL112545  19.011  13.978   5.776  0.2120 -0.4108  0.0328
  838YOPS   GL212546  18.717  13.933   5.632 -0.0323 -0.1356 -0.1317
  838YOPS   C1A12547  19.154  14.130   6.214 -0.0829  0.1102  0.0055
  838YOPS   D2A12548  19.197  14.043   6.581  0.1112  0.1668  0.3105
  838YOPS   C3A12549  19.392  13.818   6.830  0.0319 -0.3901 -0.0288
  838YOPS   C4A12550  19.527  13.452   6.637 -0.2293 -0.0169 -0.1248
  838YOPS   C1B12551  18.721  13.536   5.638  0.0615 -0.3211  0.1287
  838YOPS   C2B12552  18.539  13.105   5.582 -0.1812 -0.0714  0.1747
  838YOPS   D3B12553  18.389  12.643   5.738 -0.0172  0.4432 -0.1022
  838YOPS   C4B12554  18.014  12.470   5.649  0.3039  0.0064 -0.1476
  839YOPS   CNO12555   9.907   6.470   5.377 -0.1870 -0.0866 -0.1085
  839YOPS   PO412556   9.734   6.535   5.778  0.0142  0.0907 -0.1067
  839YOPS   GL112557   9.930   6.449   6.231  0.1788 -0.1918  0.0193
  839YOPS   GL212558   9.980   6.127   6.407 -0.0754 -0.3715 -0.3846
  839YOPS   C1A12559  10.158   6.596   6.553  0.0886  0.2754 -0.0491
  839YOPS   D2A12560  10.144   7.139   6.701 -0.0765  0.3307  0.0609
  839YOPS   C3A12561  10.095   7.567   6.620 -0.2692  0.0558  0.2158
  839YOPS   C4A12562   9.748   7.876   6.742 -0.0230  0.1244 -0.2019
  839YOPS   C1B12563   9.962   5.788   6.637  0.2241  0.0416 -0.0657
  839YOPS   C2B12564   9.961   5.532   6.859  0.1052 -0.2198  0.3230
  839YOPS   D3B12565  10.186   5.485   7.279  0.2626  0.0565  0.2632
  839YOPS   C4B12566  10.019   5.860   7.515  0.0674 -0.1265  0.1000
  840YOPS   CNO12567  11.467  12.276   5.186  0.0372 -0.4011  0.0628
  840YOPS   PO412568  11.494  12.273   5.704 -0.2477 -0.3281  0.0289
  840YOPS   GL112569  11.525  12.365   6.044  0.1706  0.2320  0.0153
  840YOPS   GL212570  11.544  12.653   6.049  0.0730  0.2024  0.0120
  840YOPS   C1A12571  11.452  12.365   6.467  0.0883  0.4907 -0.2449
  840YOPS   D2A12572  11.493  12.263   6.907 -0.1691  0.0913  0.1381
  840YOPS   C3A12573  11.405  12.321   7.321 -0.0683 -0.1190 -0.2719
  840YOPS   C4A12574  11.111  12.561   7.533  0.1929  0.2049 -0.0412
  840YOPS   C1B12575  11.535  12.928   6.272 -0.0132 -0.0119 -0.1050
  840YOPS   C2B12576  11.445  12.867   6.689 -0.2068 -0.0965 -0.2397
  840YOPS   D3B12577  11.236  12.742   7.064 -0.0774  0.1588 -0.2383
  840YOPS   C4B12578  10.949  13.078   7.201 -0.0479  0.0665  0.0481
  841POPE   NH312579  12.806  16.300   5.115 -0.0665  0.1934  0.0322
  841POPE   PO412580  12.421  16.031   5.068 -0.0132  0.0601  0.0336
  841POPE   GL112581  12.528  15.779   5.448  0.3057  0.1655 -0.2786
  841POPE   GL212582  12.884  15.558   5.534  0.3266  0.0843 -0.1030
  841POPE   C1A12583  12.565  15.665   5.907 -0.2220  0.0442  0.0895
  841POPE   D2A12584  12.818  15.635   6.252 -0.0117 -0.1725 -0.0049
  841POPE   C3A12585  12.821  15.396   6.509 -0.0751 -0.2904  0.3182
  841POPE   C4A12586  12.842  15.125   6.881  0.1192  0.0380 -0.0615
  841POPE   C1B12587  13.129  15.667   5.817  0.0203  0.0138  0.2896
  841POPE   C2B12588  13.332  15.530   6.316 -0.0437 -0.0846 -0.0959
  841POPE   C3B12589  13.707  15.386   6.590  0.3450 -0.1755 -0.0465
  841POPE   C4B12590  14.201  15.386   6.613  0.1575 -0.0764 -0.2058
  842POPE   NH312591   5.789  15.656   4.268  0.5602 -0.2485 -0.1123
  842POPE   PO412592   5.565  16.016   4.245  0.0407 -0.2382  0.0717
  842POPE   GL112593   5.579  16.192   4.743  0.1075 -0.2040 -0.2254
  842POPE   GL212594   5.511  16.040   5.030 -0.0576  0.0092 -0.1863
  842POPE   C1A12595   5.920  16.279   5.119 -0.1464  0.2815 -0.1835
  842POPE   D2A12596   6.126  15.917   5.344  0.2249 -0.1411  0.2008
  842POPE   C3A12597   6.372  15.848   5.758 -0.0927  0.3001  0.1005
  842POPE   C4A12598   6.209  15.913   6.169 -0.4129  0.0833 -0.1119
  842POPE   C1B12599   5.499  15.788   5.437  0.2404  0.2051 -0.0124
  842POPE   C2B12600   5.704  15.706   5.871  0.1795 -0.1512  0.4872
  842POPE   C3B12601   5.794  15.597   6.280 -0.1244 -0.1328  0.1824
  842POPE   C4B12602   5.962  15.772   6.561 -0.0044  0.1459 -0.1973
  843POPE   NH312603   9.210  15.651   5.192 -0.0582 -0.1747  0.1708
  843POPE   PO412604   9.067  15.439   4.849  0.2707  0.1594 -0.0151
  843POPE   GL112605   8.948  15.261   5.316 -0.2046 -0.3766 -0.2565
  843POPE   GL212606   9.231  15.385   5.632  0.0135  0.1546 -0.0266
  843POPE   C1A12607   8.852  15.075   5.657 -0.1171  0.0967 -0.2249
  843POPE   D2A12608   8.961  14.762   5.909 -0.2370  0.0153 -0.0583
  843POPE   C3A12609   9.297  14.576   6.186  0.3439 -0.1415  0.2789
  843POPE   C4A12610   9.589  14.391   6.413  0.0648  0.0663  0.0825
  843POPE   C1B12611   9.319  15.684   5.982 -0.0186  0.0822  0.0596
  843POPE   C2B12612   9.514  15.600   6.382 -0.0999  0.1848 -0.3299
  843POPE   C3B12613   9.596  15.670   6.692 -0.0027  0.2611 -0.0164
  843POPE   C4B12614   9.521  15.629   7.053 -0.2765  0.4749 -0.0424
  844POPE   NH312615   1.960  17.110   4.964  0.0010 -0.4035  0.2939
  844POPE   PO412616   1.843  17.525   4.870 -0.2260 -0.0158 -0.0737
  844POPE   GL112617   1.821  17.492   5.236  0.0503 -0.1192 -0.2406
  844POPE   GL212618   2.082  17.237   5.397  0.0494  0.0900 -0.1342
  844POPE   C1A12619   1.750  17.492   5.674 -0.1911 -0.1440 -0.0239
  844POPE   D2A12620   1.925  17.358   6.077 -0.1354 -0.0614  0.2953
  844POPE   C3A12621   1.705  17.554   6.487  0.3007  0.0250 -0.0477
  844POPE   C4A12622   1.471  17.773   6.611  0.1239  0.2011 -0.0809
  844POPE   C1B12623   2.279  17.214   5.789 -0.0406  0.1962  0.3600
  844POPE   C2B12624   2.391  17.108   6.182  0.4216  0.2287 -0.1119
  844POPE   C3B12625   2.446  17.023   6.673  0.3188 -0.1107 -0.0277
  844POPE   C4B12626   2.455  17.323   7.062 -0.1156 -0.3367  0.2326
  845POPE   NH312627   7.481  16.578   5.187 -0.0806  0.1155 -0.0370
  845POPE   PO412628   7.131  16.343   4.927  0.2740  0.3636  0.2645
  845POPE   GL112629   7.232  16.173   5.390  0.1596 -0.1637 -0.1500
  845POPE   GL212630   7.183  15.785   5.411 -0.0999 -0.2927  0.3045
  845POPE   C1A12631   7.210  16.475   5.857 -0.2281  0.1204  0.0557
  845POPE   D2A12632   6.812  16.705   5.957 -0.0508  0.1386  0.1411
  845POPE   C3A12633   6.581  16.864   5.696  0.0965  0.2420 -0.1017
  845POPE   C4A12634   6.232  16.633   5.472 -0.1040 -0.5846  0.1146
  845POPE   C1B12635   6.960  15.945   5.792  0.0186 -0.2450  0.0072
  845POPE   C2B12636   6.829  16.249   6.102  0.0667  0.1900 -0.1185
  845POPE   C3B12637   6.685  16.459   6.408  0.1046  0.0681 -0.0926
  845POPE   C4B12638   6.280  16.278   6.506 -0.2137 -0.1786  0.0896
  846POPE   NH312639   5.937   8.215   5.050 -0.1423  0.3461 -0.0723
  846POPE   PO412640   6.318   8.009   5.305 -0.2402  0.1257 -0.2828
  846POPE   GL112641   6.430   8.179   5.701 -0.2426 -0.0029 -0.3635
  846POPE   GL212642   6.767   8.289   5.773 -0.0365  0.0440 -0.4325
  846POPE   C1A12643   6.432   8.011   6.101 -0.1588  0.0835 -0.0587
  846POPE   D2A12644   6.258   7.707   6.499 -0.0310  0.2020  0.3224
  846POPE   C3A12645   6.015   7.258   6.428  0.2349 -0.0237  0.1848
  846POPE   C4A12646   5.757   6.941   6.181  0.2850 -0.1050  0.0131
  846POPE   C1B12647   6.835   8.266   6.242  0.0418  0.0518  0.2309
  846POPE   C2B12648   6.620   8.272   6.692  0.0289 -0.0783 -0.1035
  846POPE   C3B12649   6.815   8.419   7.098 -0.1223  0.0252  0.0594
  846POPE   C4B12650   6.476   8.576   7.358 -0.0017  0.0455  0.2196
  847POPE   NH312651  13.625   4.244   5.425  0.0199 -0.2243 -0.1238
  847POPE   PO412652  13.961   4.520   5.538 -0.1714  0.0685  0.2665
  847POPE   GL112653  13.749   4.606   5.867  0.2061  0.2151 -0.0200
  847POPE   GL212654  14.071   4.505   6.056  0.0320 -0.1598 -0.0585
  847POPE   C1A12655  13.681   4.940   6.198  0.4129 -0.1127 -0.1156
  847POPE   D2A12656  14.014   5.221   6.490 -0.1378  0.3145  0.3064
  847POPE   C3A12657  14.438   5.140   6.728 -0.1670  0.1057 -0.0464
  847POPE   C4A12658  14.798   4.872   6.957  0.3415  0.3002 -0.0895
  847POPE   C1B12659  13.842   4.537   6.438 -0.1262  0.1928  0.2488
  847POPE   C2B12660  13.606   4.471   6.800 -0.1308 -0.0791 -0.0733
  847POPE   C3B12661  13.357   4.533   7.074  0.2032  0.1846 -0.1064
  847POPE   C4B12662  12.866   4.365   7.248 -0.0882  0.1858 -0.2430
  848POPE   NH312663   2.107  11.158   5.201  0.1608 -0.2169 -0.0968
  848POPE   PO412664   2.500  11.148   5.079  0.0852 -0.2464 -0.2508
  848POPE   GL112665   2.475  10.954   5.451  0.0797  0.2500  0.1081
  848POPE   GL212666   2.265  10.679   5.369 -0.2001  0.1876  0.0730
  848POPE   C1A12667   2.573  11.033   5.868  0.2316 -0.0340 -0.1518
  848POPE   D2A12668   2.597  11.285   6.206  0.1120  0.0946  0.0915
  848POPE   C3A12669   2.575  11.495   6.530  0.0121  0.0692  0.1247
  848POPE   C4A12670   2.775  11.760   6.776 -0.2256  0.1381  0.2593
  848POPE   C1B12671   2.407  10.456   5.776 -0.3416 -0.1398 -0.2466
  848POPE   C2B12672   2.204  10.150   6.034 -0.0067 -0.0324 -0.1377
  848POPE   C3B12673   2.312   9.864   6.529 -0.2003  0.3333  0.3148
  848POPE   C4B12674   2.106   9.570   6.656 -0.1788  0.0462  0.1593
  849POPE   NH312675   0.652  11.046   4.879 -0.2488  0.0319  0.0045
  849POPE   PO412676   0.744  11.553   4.889 -0.2661 -0.1266 -0.2220
  849POPE   GL112677   1.001  11.465   5.342  0.0289  0.0193  0.0627
  849POPE   GL212678   0.915  11.163   5.486 -0.1628 -0.1066 -0.0782
  849POPE   C1A12679   1.138  11.518   5.786 -0.0519 -0.0526 -0.1456
  849POPE   D2A12680   1.261  11.431   6.226  0.0953  0.0511 -0.0350
  849POPE   C3A12681   1.301  11.611   6.650 -0.1901 -0.3544  0.2455
  849POPE   C4A12682   1.220  11.445   7.137 -0.2116  0.2629  0.0856
  849POPE   C1B12683   1.002  11.051   5.854  0.0100  0.2307 -0.0700
  849POPE   C2B12684   0.945  11.048   6.369  0.0605 -0.1000  0.0761
  849POPE   C3B12685   0.705  10.899   6.719  0.2369 -0.2232  0.1665
  849POPE   C4B12686   0.597  11.227   7.109  0.0573 -0.0359 -0.1331
  850POPE   NH312687   1.812   9.720   5.194 -0.2761 -0.1191 -0.2899
  850POPE   PO412688   2.103   9.399   5.075  0.1776  0.2441  0.3933
  850POPE   GL112689   2.048   9.282   5.453  0.2586 -0.0333  0.2317
  850POPE   GL212690   1.713   9.267   5.426 -0.1598  0.1244 -0.1536
  850POPE   C1A12691   2.106   8.921   5.908 -0.0718  0.1943 -0.1423
  850POPE   D2A12692   2.088   8.700   6.308  0.4001 -0.0671  0.0706
  850POPE   C3A12693   1.761   8.653   6.372  0.0596  0.0597 -0.1153
  850POPE   C4A12694   1.358   8.683   6.220  0.0914 -0.1419  0.1100
  850POPE   C1B12695   1.568   9.124   5.929  0.0043  0.1002 -0.2379
  850POPE   C2B12696   1.169   9.096   6.002 -0.1353 -0.1361 -0.3221
  850POPE   C3B12697   1.084   9.084   6.378 -0.2833 -0.0844  0.0556
  850POPE   C4B12698   1.075   9.407   6.721 -0.1202 -0.2761  0.1081
  851POPE   NH312699  16.909   4.399   5.458  0.1092  0.1500  0.1047
  851POPE   PO412700  16.549   4.411   5.271  0.1253 -0.0848 -0.1324
  851POPE   GL112701  16.611   4.042   5.602 -0.2059 -0.1216 -0.2770
  851POPE   GL212702  16.728   4.116   5.877 -0.1745  0.3997 -0.1486
  851POPE   C1A12703  16.616   3.624   5.675 -0.2083  0.2756  0.1298
  851POPE   D2A12704  16.835   3.318   5.879  0.1465 -0.1311  0.2232
  851POPE   C3A12705  16.925   3.151   6.233  0.0361  0.2986  0.2752
  851POPE   C4A12706  16.983   2.860   6.622 -0.1968 -0.3175 -0.0917
  851POPE   C1B12707  16.731   3.787   6.189  0.0196 -0.0957  0.1900
  851POPE   C2B12708  16.570   3.645   6.464 -0.3164  0.3229  0.2372
  851POPE   C3B12709  16.588   3.596   6.836  0.1531 -0.0585  0.0391
  851POPE   C4B12710  16.319   3.392   7.164 -0.1657 -0.0538 -0.1372
  852POPE   NH312711  11.644   4.175   5.037  0.1775 -0.2868 -0.0418
  852POPE   PO412712  11.510   4.429   5.370 -0.1022 -0.2342  0.0142
  852POPE   GL112713  11.415   4.087   5.776 -0.0618 -0.0158 -0.1629
  852POPE   GL212714  11.518   3.792   5.665  0.1987  0.3249  0.0817
  852POPE   C1A12715  11.235   4.165   6.164  0.1448 -0.1866  0.2067
  852POPE   D2A12716  11.323   3.950   6.532  0.1975  0.1231 -0.2241
  852POPE   C3A12717  11.339   3.936   6.999 -0.1888  0.1972 -0.0138
  852POPE   C4A12718  11.394   4.035   7.397  0.2700 -0.3506 -0.0269
  852POPE   C1B12719  11.271   3.663   6.040 -0.1839 -0.2427  0.0703
  852POPE   C2B12720  11.256   3.502   6.402 -0.0400  0.2480 -0.1102
  852POPE   C3B12721  11.538   3.296   6.782  0.0242 -0.3490 -0.1304
  852POPE   C4B12722  11.651   2.824   6.638  0.1336 -0.3627 -0.3371
  853POPE   NH312723  10.551  19.063   5.418 -0.3771 -0.1173 -0.3810
  853POPE   PO412724  10.549  18.637   5.644  0.1308  0.2510 -0.2803
  853POPE   GL112725  10.776  18.760   6.076  0.1189 -0.1356  0.2389
  853POPE   GL212726  10.566  18.876   6.324 -0.2299 -0.2521 -0.1005
  853POPE   C1A12727  11.040  18.768   6.492  0.0984  0.0193  0.0688
  853POPE   D2A12728  11.212  18.620   6.869  0.2245  0.2259 -0.2393
  853POPE   C3A12729  10.919  18.362   7.105 -0.2114  0.1464  0.0624
  853POPE   C4A12730  11.059  18.076   7.364  0.1227  0.2059  0.0101
  853POPE   C1B12731  10.614  18.704   6.736  0.0354 -0.1315  0.2147
  853POPE   C2B12732  10.616  18.815   7.114  0.2813 -0.2891 -0.0241
  853POPE   C3B12733  10.864  18.930   7.398 -0.0733 -0.1468  0.2196
  853POPE   C4B12734  10.857  19.148   7.818 -0.2229  0.0040  0.1327
  854POPE   NH312735   2.572  11.988   5.071 -0.0176  0.0480  0.1930
  854POPE   PO412736   3.060  11.951   4.996  0.1232  0.0945 -0.1568
  854POPE   GL112737   3.314  11.835   5.436 -0.3355 -0.1894  0.0376
  854POPE   GL212738   3.665  11.917   5.399 -0.3519  0.0936  0.3235
  854POPE   C1A12739   3.341  11.789   5.934 -0.0707  0.0666  0.0602
  854POPE   D2A12740   3.474  12.032   6.249  0.2132  0.1239 -0.0542
  854POPE   C3A12741   3.073  12.151   6.524 -0.2355 -0.0991 -0.0390
  854POPE   C4A12742   2.945  12.435   6.780  0.1040  0.1657  0.0371
  854POPE   C1B12743   3.559  12.226   5.776 -0.1720  0.2615 -0.0910
  854POPE   C2B12744   3.544  12.534   6.122  0.2793  0.0138  0.0006
  854POPE   C3B12745   3.619  12.468   6.541 -0.1035 -0.0085  0.1229
  854POPE   C4B12746   3.610  12.085   6.857  0.1540  0.1477 -0.0568
  855POPE   NH312747  15.982  13.944   4.874 -0.1933  0.0415  0.1433
  855POPE   PO412748  16.377  13.971   5.167 -0.1824 -0.3562 -0.1484
  855POPE   GL112749  16.525  14.028   5.581  0.3067 -0.1781 -0.2507
  855POPE   GL212750  16.815  14.081   5.419 -0.1639  0.0383 -0.1175
  855POPE   C1A12751  16.403  14.192   6.023 -0.2365 -0.1118  0.3951
  855POPE   D2A12752  16.356  14.174   6.384  0.3564  0.4143  0.3200
  855POPE   C3A12753  16.280  14.351   6.724  0.0392  0.1675  0.2270
  855POPE   C4A12754  16.451  14.573   7.080  0.1849  0.0692  0.1733
  855POPE   C1B12755  16.841  14.334   5.902 -0.0994  0.0559  0.0029
  855POPE   C2B12756  16.773  14.441   6.343  0.1276 -0.3446 -0.3699
  855POPE   C3B12757  16.772  14.475   6.753  0.0170  0.0001  0.2371
  855POPE   C4B12758  16.813  14.161   7.119  0.4348 -0.3373 -0.0305
  856POPE   NH312759   9.438  17.176   5.699  0.0719 -0.0203 -0.0048
  856POPE   PO412760   9.365  17.648   5.438  0.1706 -0.1792  0.1317
  856POPE   GL112761   9.449  17.597   5.952 -0.2688  0.0533  0.1145
  856POPE   GL212762   9.812  17.516   6.030 -0.0791 -0.2013  0.4092
  856POPE   C1A12763   9.368  17.490   6.410  0.2465  0.3060 -0.4513
  856POPE   D2A12764   9.443  17.244   6.885  0.1177  0.0839 -0.1206
  856POPE   C3A12765   9.749  17.366   7.131  0.1410  0.0423  0.0933
  856POPE   C4A12766   9.798  17.658   7.376 -0.0299  0.0036  0.1091
  856POPE   C1B12767   9.868  17.251   6.394  0.0405  0.1315 -0.0464
  856POPE   C2B12768   9.888  17.030   6.756 -0.0568  0.1362 -0.2317
  856POPE   C3B12769   9.584  16.771   6.852  0.0393  0.3818  0.1762
  856POPE   C4B12770   9.486  16.313   6.987 -0.0724  0.1088 -0.2820
  857POPE   NH312771  11.394   0.650   5.367 -0.1373  0.0315  0.3169
  857POPE   PO412772  11.149   0.975   5.502 -0.2740 -0.1012 -0.3303
  857POPE   GL112773  11.469   0.823   5.851  0.3295  0.3705 -0.3090
  857POPE   GL212774  11.554   0.406   5.905  0.0985 -0.1311 -0.0755
  857POPE   C1A12775  11.836   0.659   6.112  0.0266  0.0475  0.0340
  857POPE   D2A12776  11.726   0.749   6.514  0.0068  0.0658 -0.0486
  857POPE   C3A12777  11.641   0.981   6.778 -0.0336  0.2669  0.2402
  857POPE   C4A12778  11.403   0.983   7.149 -0.3759 -0.0479  0.0225
  857POPE   C1B12779  11.464   0.390   6.355 -0.6115  0.0942 -0.1125
  857POPE   C2B12780  11.297   0.568   6.722 -0.1447  0.1607  0.1483
  857POPE   C3B12781  11.226   0.501   7.199 -0.0454  0.0211 -0.0339
  857POPE   C4B12782  11.000   0.401   7.480  0.0942  0.1344  0.2856
  858POPE   NH312783  17.775  10.817   5.604  0.3105  0.2115  0.0635
  858POPE   PO412784  18.200  10.960   5.782  0.2476  0.0834  0.0810
  858POPE   GL112785  18.227  11.288   6.044  0.0850 -0.2380 -0.0049
  858POPE   GL212786  18.334  11.613   5.897  0.1460 -0.0241 -0.1628
  858POPE   C1A12787  18.124  11.560   6.406  0.2520 -0.1715  0.1467
  858POPE   D2A12788  17.952  11.826   6.846  0.0258  0.1815  0.2953
  858POPE   C3A12789  17.586  12.171   6.767 -0.1519  0.2308  0.6103
  858POPE   C4A12790  17.699  12.492   6.721 -0.2437 -0.2958 -0.4411
  858POPE   C1B12791  18.554  11.765   6.344  0.2011  0.1443  0.0284
  858POPE   C2B12792  18.661  12.047   6.651 -0.2902  0.2337  0.0986
  858POPE   C3B12793  18.676  12.190   7.149 -0.0526 -0.1033  0.1228
  858POPE   C4B12794  18.981  11.985   7.496  0.1010  0.3847 -0.0523
  859POPE   NH312795   1.129   4.381   5.276  0.1164  0.3596 -0.3086
  859POPE   PO412796   1.461   4.215   5.540 -0.0991 -0.2098  0.1176
  859POPE   GL112797   1.300   4.627   5.716  0.1791 -0.2233 -0.2943
  859POPE   GL212798   0.978   4.860   5.711  0.0476  0.4897  0.2374
  859POPE   C1A12799   1.343   4.782   6.192 -0.1236  0.1741  0.0507
  859POPE   D2A12800   1.456   5.116   6.339  0.0616  0.1316  0.1176
  859POPE   C3A12801   1.552   5.356   6.662  0.1231  0.1180 -0.5348
  859POPE   C4A12802   1.958   5.493   6.852  0.0244  0.3687  0.2034
  859POPE   C1B12803   0.904   4.576   6.106 -0.1163  0.3967 -0.1490
  859POPE   C2B12804   1.102   4.433   6.448  0.2057 -0.1018 -0.1503
  859POPE   C3B12805   1.017   4.451   6.917  0.1249  0.1974  0.1244
  859POPE   C4B12806   0.925   4.576   7.336  0.0773 -0.1643  0.0377
  860POPE   NH312807  14.523  14.819   5.010 -0.0768  0.3813  0.0056
  860POPE   PO412808  14.362  15.105   5.330 -0.0045 -0.2724  0.3700
  860POPE   GL112809  14.381  15.453   5.637  0.0039  0.3572  0.2751
  860POPE   GL212810  14.313  15.797   5.546 -0.3315 -0.1582  0.0876
  860POPE   C1A12811  14.414  15.589   5.988  0.1651  0.0749 -0.4342
  860POPE   D2A12812  14.393  15.738   6.300  0.0736  0.3593 -0.3135
  860POPE   C3A12813  14.504  15.771   6.665  0.0854 -0.2289 -0.0691
  860POPE   C4A12814  14.363  15.724   7.084 -0.0099 -0.0803  0.1675
  860POPE   C1B12815  14.300  16.118   5.944 -0.0987 -0.0752  0.0302
  860POPE   C2B12816  14.351  16.211   6.392  0.0467  0.1584 -0.2325
  860POPE   C3B12817  14.635  16.512   6.602 -0.0583  0.0412 -0.0367
  860POPE   C4B12818  14.979  16.565   6.972 -0.1342  0.1674  0.1438
  861POPE   NH312819  10.210  12.872   5.396 -0.0999 -0.1322  0.1466
  861POPE   PO412820  10.036  13.231   5.177  0.1096 -0.0426  0.0745
  861POPE   GL112821   9.891  13.238   5.605  0.0905 -0.2200 -0.2054
  861POPE   GL212822   9.525  13.492   5.639  0.0009  0.0016 -0.1245
  861POPE   C1A12823   9.781  13.075   6.071 -0.0633  0.0633  0.0922
  861POPE   D2A12824   9.429  12.932   6.429  0.3122 -0.0484  0.0016
  861POPE   C3A12825   9.491  13.148   6.855  0.2465 -0.2901  0.2844
  861POPE   C4A12826   9.703  13.551   7.022 -0.0716 -0.1170  0.1097
  861POPE   C1B12827   9.232  13.828   5.784 -0.2397  0.0662  0.1301
  861POPE   C2B12828   9.093  14.197   6.044 -0.0618 -0.1580  0.1109
  861POPE   C3B12829   8.716  14.312   6.346 -0.1079  0.0555  0.1470
  861POPE   C4B12830   8.568  14.401   6.821  0.0623 -0.0494  0.2914
  862POPE   NH312831  16.953  18.534   5.379  0.5191 -0.1441  0.1143
  862POPE   PO412832  17.177  18.887   5.373  0.1536 -0.0368  0.2301
  862POPE   GL112833  17.177  19.002   5.771  0.4371  0.0459  0.1000
  862POPE   GL212834  17.150  18.689   5.862  0.3033 -0.0049  0.0660
  862POPE   C1A12835  16.898  19.086   6.151  0.0020  0.1083  0.0623
  862POPE   D2A12836  16.668  19.485   6.321  0.2352 -0.0019 -0.1474
  862POPE   C3A12837  16.877  19.813   6.563  0.1169  0.3303  0.1979
  862POPE   C4A12838  17.108  19.757   7.014  0.2598  0.1027 -0.2674
  862POPE   C1B12839  16.686  18.671   5.969  0.2564 -0.0028 -0.1203
  862POPE   C2B12840  16.376  18.623   6.340  0.0115 -0.0848  0.0822
  862POPE   C3B12841  16.515  18.712   6.739  0.0067  0.1358 -0.1020
  862POPE   C4B12842  16.829  18.947   6.971 -0.1172 -0.2747  0.1723
  863POPE   NH312843   7.885  12.529   4.918 -0.0702 -0.0288  0.1637
  863POPE   PO412844   7.713  12.191   5.033 -0.1475 -0.0846 -0.2014
  863POPE   GL112845   7.844  12.120   5.491  0.3492 -0.2790 -0.2874
  863POPE   GL212846   8.173  12.355   5.618 -0.2730  0.1981 -0.1381
  863POPE   C1A12847   7.668  11.787   5.822  0.1392 -0.1132  0.0618
  863POPE   D2A12848   7.408  11.375   5.711  0.1724 -0.0735  0.2909
  863POPE   C3A12849   7.448  11.088   5.807 -0.1102  0.2146  0.0313
  863POPE   C4A12850   7.309  10.938   6.083  0.0101  0.2350 -0.3008
  863POPE   C1B12851   8.119  12.486   6.054 -0.1929 -0.1505 -0.0630
  863POPE   C2B12852   7.874  12.745   6.473  0.3207 -0.1251  0.1943
  863POPE   C3B12853   7.740  12.669   6.883  0.0177  0.2451 -0.1864
  863POPE   C4B12854   8.074  12.824   7.237 -0.0766 -0.0159 -0.2070
  864POPE   NH312855  17.064  12.624   5.252  0.0915 -0.1379 -0.1738
  864POPE   PO412856  16.798  12.301   5.299 -0.3533 -0.2106 -0.1181
  864POPE   GL112857  17.076  12.167   5.617  0.1246 -0.1150 -0.2258
  864POPE   GL212858  17.041  12.339   5.755 -0.2381 -0.3646 -0.2303
  864POPE   C1A12859  17.470  12.189   5.888 -0.3770  0.2350  0.1606
  864POPE   D2A12860  17.527  12.127   6.214  0.3271 -0.0309 -0.0539
  864POPE   C3A12861  17.618  11.827   6.451  0.3856  0.1647  0.3332
  864POPE   C4A12862  17.614  11.492   6.217  0.0433 -0.0727 -0.0593
  864POPE   C1B12863  17.250  12.554   6.164  0.1029 -0.0207  0.2309
  864POPE   C2B12864  17.271  12.533   6.516  0.0997  0.0448  0.2597
  864POPE   C3B12865  17.195  12.535   6.913  0.1220  0.2752  0.0476
  864POPE   C4B12866  17.006  12.486   7.262 -0.3374 -0.1897 -0.0684
  865POPE   NH312867   8.502   6.124   5.178 -0.2301  0.0294 -0.0488
  865POPE   PO412868   8.136   5.874   5.260  0.0261 -0.0702 -0.0026
  865POPE   GL112869   8.079   5.683   5.636  0.5220 -0.0822  0.0225
  865POPE   GL212870   8.263   5.416   5.651  0.1740 -0.0473  0.0502
  865POPE   C1A12871   7.768   5.563   5.944 -0.3052 -0.1958 -0.1283
  865POPE   D2A12872   7.958   5.518   6.321  0.0188  0.1793 -0.0626
  865POPE   C3A12873   8.029   5.213   6.605 -0.3364  0.1366  0.0368
  865POPE   C4A12874   8.005   5.124   7.047 -0.0225  0.1845  0.2340
  865POPE   C1B12875   8.128   5.108   5.989  0.3206  0.0660 -0.2325
  865POPE   C2B12876   7.957   4.759   6.298 -0.1475 -0.1998  0.0215
  865POPE   C3B12877   8.088   4.708   6.690  0.0957  0.2174 -0.2152
  865POPE   C4B12878   8.415   4.369   6.727  0.2845  0.0033  0.0846
  866POPE   NH312879  12.286   9.793   5.054 -0.2592 -0.4438  0.0512
  866POPE   PO412880  12.291   9.836   5.461  0.0584 -0.2579 -0.2415
  866POPE   GL112881  12.071   9.824   5.795  0.1239 -0.2546 -0.2506
  866POPE   GL212882  11.838  10.041   5.876 -0.4281 -0.1885 -0.0183
  866POPE   C1A12883  11.928   9.657   6.177  0.1666  0.0366  0.1601
  866POPE   D2A12884  11.897   9.646   6.558 -0.0354  0.0036 -0.0808
  866POPE   C3A12885  11.496   9.656   6.774  0.1391  0.1778 -0.1422
  866POPE   C4A12886  11.362   9.731   7.082 -0.0166  0.0164 -0.0497
  866POPE   C1B12887  11.735  10.120   6.317 -0.0361  0.3958 -0.0074
  866POPE   C2B12888  11.514  10.140   6.649 -0.2449 -0.0317  0.4677
  866POPE   C3B12889  11.592  10.144   7.097  0.1789 -0.0638 -0.3385
  866POPE   C4B12890  11.627  10.222   7.427 -0.1204 -0.3211 -0.0858
  867POPE   NH312891   9.086  10.098   5.602  0.1395  0.2157 -0.1469
  867POPE   PO412892   9.445  10.225   5.469 -0.0707  0.2788 -0.2183
  867POPE   GL112893   9.547  10.235   5.837 -0.0844  0.0709  0.0135
  867POPE   GL212894   9.796  10.285   6.061  0.0953 -0.2759  0.0471
  867POPE   C1A12895   9.387   9.999   6.290 -0.2812  0.3730  0.0867
  867POPE   D2A12896   8.884   9.982   6.170  0.1446  0.0952 -0.0840
  867POPE   C3A12897   8.673   9.530   6.268  0.1771 -0.1945 -0.1056
  867POPE   C4A12898   8.524   9.217   6.441 -0.0245 -0.1885 -0.1859
  867POPE   C1B12899   9.834  10.177   6.449 -0.1309  0.1696  0.0551
  867POPE   C2B12900  10.171   9.968   6.623 -0.1065  0.2553  0.2506
  867POPE   C3B12901  10.171   9.458   6.764 -0.1589  0.2894  0.0298
  867POPE   C4B12902  10.225   9.034   6.875 -0.0857  0.0195  0.1465
  868POPE   NH312903  18.548  11.293   5.586  0.5387  0.3139 -0.1404
  868POPE   PO412904  18.697  10.850   5.590  0.1255 -0.1939  0.0483
  868POPE   GL112905  18.752  10.869   6.010  0.2343 -0.1797  0.2206
  868POPE   GL212906  18.526  10.805   6.192 -0.0707  0.2967 -0.1042
  868POPE   C1A12907  19.006  10.664   6.357 -0.2611  0.2480  0.0469
  868POPE   D2A12908  19.157  10.361   6.544  0.2317 -0.1804 -0.0133
  868POPE   C3A12909  19.358  10.361   6.931  0.2730 -0.0067  0.1044
  868POPE   C4A12910  19.651  10.479   7.290  0.3907 -0.2615  0.1469
  868POPE   C1B12911  18.530  10.659   6.629 -0.1212 -0.0560  0.0617
  868POPE   C2B12912  18.526  10.809   7.051  0.0159 -0.0670 -0.3330
  868POPE   C3B12913  18.562  10.794   7.475  0.1504 -0.1264 -0.1942
  868POPE   C4B12914  18.353  10.539   7.833  0.1954 -0.1970  0.3488
  869POPE   NH312915  12.120   8.473   5.965 -0.0598  0.2337  0.0143
  869POPE   PO412916  12.532   8.319   5.691  0.1318  0.0564  0.2074
  869POPE   GL112917  12.574   8.386   6.146 -0.0497 -0.1231  0.2814
  869POPE   GL212918  12.490   8.039   6.281  0.1200 -0.2368  0.1228
  869POPE   C1A12919  12.943   8.650   6.351 -0.0572  0.1655 -0.0792
  869POPE   D2A12920  13.000   8.955   6.640  0.0816  0.0425 -0.1775
  869POPE   C3A12921  13.139   8.974   6.997  0.1026  0.2498 -0.1547
  869POPE   C4A12922  13.558   9.182   7.089 -0.0885  0.0187 -0.1993
  869POPE   C1B12923  12.156   8.107   6.563 -0.0092 -0.2326 -0.2011
  869POPE   C2B12924  11.816   8.216   6.772  0.0812 -0.0645  0.2232
  869POPE   C3B12925  11.893   8.144   7.178  0.0585 -0.0237 -0.0535
  869POPE   C4B12926  12.018   7.951   7.544  0.2205 -0.0178 -0.3162
  870POPE   NH312927  14.868  17.394   5.193  0.2582 -0.4376  0.0318
  870POPE   PO412928  14.987  16.924   5.149  0.1189 -0.0778 -0.1144
  870POPE   GL112929  14.731  16.953   5.428 -0.4505  0.1656  0.1825
  870POPE   GL212930  14.578  17.121   5.545 -0.2736 -0.0908 -0.1821
  870POPE   C1A12931  14.890  16.865   5.851  0.0350 -0.0993  0.0939
  870POPE   D2A12932  14.869  16.995   6.365 -0.1536 -0.0952 -0.5087
  870POPE   C3A12933  14.588  16.927   6.810  0.3841  0.3460  0.0741
  870POPE   C4A12934  14.656  16.947   7.304 -0.2122  0.1294  0.2343
  870POPE   C1B12935  14.493  17.176   6.021 -0.1242  0.0545  0.1090
  870POPE   C2B12936  14.377  17.326   6.469 -0.0674  0.2762  0.0333
  870POPE   C3B12937  14.185  17.607   6.770 -0.1755  0.3509  0.0958
  870POPE   C4B12938  13.988  17.671   7.178 -0.1871 -0.1394  0.0285
  871YOPE   NH312939  17.897   3.149   4.902 -0.1741  0.0655  0.2631
  871YOPE   PO412940  17.918   2.716   4.974  0.0919 -0.2620  0.5200
  871YOPE   GL112941  18.132   2.836   5.369 -0.0809 -0.0657  0.1855
  871YOPE   GL212942  18.006   3.080   5.397 -0.3130 -0.2046 -0.2652
  871YOPE   C1A12943  18.434   2.849   5.667 -0.1353  0.3025 -0.3581
  871YOPE   D2A12944  18.287   3.135   5.903 -0.1780  0.0476  0.1634
  871YOPE   C3A12945  17.894   2.878   6.009  0.0847 -0.3678  0.1226
  871YOPE   C4A12946  17.739   2.487   6.231 -0.0606 -0.0163  0.2060
  871YOPE   C1B12947  17.652   2.944   5.553 -0.1615  0.1292  0.0734
  871YOPE   C2B12948  17.557   2.588   5.711  0.0610  0.0296 -0.1952
  871YOPE   D3B12949  17.474   2.216   5.946 -0.1232  0.2146  0.0047
  871YOPE   C4B12950  17.478   1.990   6.420 -0.0143 -0.1065 -0.2345
  872YOPE   NH312951  13.162   7.192   5.754  0.1907 -0.0953 -0.1237
  872YOPE   PO412952  13.020   6.773   5.885  0.1570  0.3413  0.0630
  872YOPE   GL112953  13.207   6.963   6.288  0.0893 -0.0088  0.3297
  872YOPE   GL212954  13.373   7.076   6.185  0.1810  0.4769  0.0634
  872YOPE   C1A12955  13.594   6.929   6.682 -0.0494  0.0687 -0.1047
  872YOPE   D2A12956  13.989   7.101   6.905  0.3164 -0.0869  0.1095
  872YOPE   C3A12957  14.156   6.794   7.112  0.2183  0.0583  0.0489
  872YOPE   C4A12958  14.507   6.837   7.433 -0.0750 -0.4000 -0.1849
  872YOPE   C1B12959  13.546   7.386   6.630  0.3025 -0.1131  0.0931
  872YOPE   C2B12960  13.529   7.393   7.016  0.0512 -0.0899  0.0028
  872YOPE   D3B12961  13.706   7.212   7.378  0.0807  0.2129  0.0328
  872YOPE   C4B12962  14.171   7.197   7.464 -0.0904 -0.0967  0.1777
  873YOPE   NH312963   7.209  18.677   4.819  0.0547  0.1572 -0.0754
  873YOPE   PO412964   7.431  18.306   4.808  0.3793  0.1529  0.2711
  873YOPE   GL112965   7.216  18.294   5.163  0.2767  0.4137  0.0432
  873YOPE   GL212966   7.435  18.012   5.316  0.1057  0.1903  0.1874
  873YOPE   C1A12967   6.962  18.516   5.429  0.1383  0.2527 -0.1450
  873YOPE   D2A12968   6.502  18.539   5.307  0.0215 -0.0369  0.3672
  873YOPE   C3A12969   6.223  18.546   5.728 -0.0673 -0.2992  0.0277
  873YOPE   C4A12970   6.293  18.615   6.089  0.0646  0.0115 -0.1785
  873YOPE   C1B12971   7.734  18.003   5.476 -0.3175  0.2740  0.3462
  873YOPE   C2B12972   7.627  18.078   5.901  0.2065 -0.1652 -0.0957
  873YOPE   D3B12973   7.503  18.041   6.248 -0.0237 -0.2428 -0.3391
  873YOPE   C4B12974   7.567  18.139   6.657  0.0577 -0.3274 -0.1106
  874YOPE   NH312975  14.323   5.027   5.462  0.1632  0.0500 -0.1812
  874YOPE   PO412976  14.655   5.248   5.441  0.0159  0.1535 -0.2454
  874YOPE   GL112977  14.693   5.301   5.913  0.0603 -0.1248  0.4390
  874YOPE   GL212978  14.737   5.641   6.068 -0.1728  0.2459  0.0956
  874YOPE   C1A12979  14.820   5.265   6.347 -0.2402  0.0616  0.2027
  874YOPE   D2A12980  15.004   4.975   6.504 -0.1444  0.0144  0.1171
  874YOPE   C3A12981  15.016   4.507   6.318 -0.2177 -0.1484  0.5339
  874YOPE   C4A12982  14.791   4.216   6.268  0.1259 -0.0312  0.0661
  874YOPE   C1B12983  14.760   5.737   6.553 -0.0861  0.0987  0.2742
  874YOPE   C2B12984  14.726   5.959   6.907 -0.1212 -0.0351 -0.1783
  874YOPE   D3B12985  14.764   5.862   7.240  0.0839 -0.1586 -0.1236
  874YOPE   C4B12986  15.067   5.884   7.544 -0.1262  0.3965 -0.0620
  875YOPE   NH312987   0.354   9.364   5.298 -0.2387 -0.1081  0.1045
  875YOPE   PO412988   0.552   9.737   5.274 -0.2033 -0.2322  0.2228
  875YOPE   GL112989   0.910   9.646   5.526  0.2621  0.0427  0.1103
  875YOPE   GL212990   0.892   9.417   5.835 -0.2952  0.1267 -0.1902
  875YOPE   C1A12991   1.060   9.960   5.839  0.1798  0.1981  0.1977
  875YOPE   D2A12992   1.122  10.362   5.945 -0.3045 -0.0057  0.0428
  875YOPE   C3A12993   0.909  10.616   6.087  0.2939  0.3071 -0.1095
  875YOPE   C4A12994   0.554  10.780   6.174 -0.4773  0.4124  0.0321
  875YOPE   C1B12995   0.931   9.554   6.229  0.1682 -0.1276  0.2438
  875YOPE   C2B12996   1.246   9.889   6.500 -0.3294 -0.2012 -0.1201
  875YOPE   D3B12997   1.092  10.243   6.653 -0.5624 -0.2057 -0.4275
  875YOPE   C4B12998   0.645  10.394   6.605 -0.0587 -0.2252  0.3082
  876YOPE   NH312999   9.731   0.298   5.378  0.1988 -0.3187  0.0830
  876YOPE   PO413000   9.996   0.639   5.518  0.1833 -0.0943  0.0824
  876YOPE   GL113001  10.317   0.426   5.740 -0.0614  0.1626 -0.2876
  876YOPE   GL213002  10.007   0.221   5.769 -0.0328 -0.1690 -0.1447
  876YOPE   C1A13003  10.571   0.099   5.926 -0.1407 -0.0124 -0.1366
  876YOPE   D2A13004  10.760  -0.273   6.134 -0.2022 -0.1099  0.1525
  876YOPE   C3A13005  10.849  -0.355   6.509 -0.3618 -0.3117 -0.0379
  876YOPE   C4A13006  10.761  -0.308   6.929  0.1745  0.2660 -0.2027
  876YOPE   C1B13007  10.078   0.016   6.100 -0.0101 -0.0101  0.0661
  876YOPE   C2B13008  10.259  -0.325   6.351  0.0782  0.0130 -0.0292
  876YOPE   D3B13009  10.161  -0.750   6.575  0.1487 -0.0953  0.0270
  876YOPE   C4B13010  10.097  -0.901   6.962  0.0933 -0.0543 -0.0671
  877YOPE   NH313011  12.523  17.194   5.035 -0.3701  0.0530 -0.3694
  877YOPE   PO413012  12.534  16.730   5.159  0.0162 -0.1388  0.7915
  877YOPE   GL113013  12.527  16.628   5.551 -0.4854 -0.2499 -0.0017
  877YOPE   GL213014  12.489  16.351   5.519 -0.3909 -0.0140  0.2837
  877YOPE   C1A13015  12.407  16.677   5.990  0.0876 -0.1033 -0.2115
  877YOPE   D2A13016  12.002  16.690   6.205 -0.0512  0.0852  0.1508
  877YOPE   C3A13017  12.001  16.982   6.466 -0.1650 -0.0530  0.0428
  877YOPE   C4A13018  12.037  17.325   6.686  0.0883  0.3661 -0.0670
  877YOPE   C1B13019  12.193  16.277   5.962  0.0282  0.1190 -0.1329
  877YOPE   C2B13020  11.946  16.232   6.365  0.1834  0.1586  0.1099
  877YOPE   D3B13021  11.713  15.962   6.683  0.1534 -0.0222 -0.1724
  877YOPE   C4B13022  11.440  15.708   6.930 -0.1100  0.0069 -0.2296
  878YOPE   NH313023  14.699   6.626   5.657 -0.4919  0.4711  0.1702
  878YOPE   PO413024  14.774   7.137   5.688 -0.0937 -0.1512 -0.0670
  878YOPE   GL113025  14.911   6.932   5.988 -0.1889  0.1635  0.0727
  878YOPE   GL213026  14.662   6.834   6.105 -0.1621  0.2125 -0.2482
  878YOPE   C1A13027  14.905   7.138   6.450  0.3453  0.0182  0.1267
  878YOPE   D2A13028  14.974   7.109   6.794  0.1775 -0.0208  0.2346
  878YOPE   C3A13029  15.104   7.339   7.162  0.1662 -0.0127  0.3625
  878YOPE   C4A13030  15.112   7.533   7.642 -0.0760 -0.4460  0.2695
  878YOPE   C1B13031  14.592   6.756   6.515 -0.1236  0.0401  0.0318
  878YOPE   C2B13032  14.541   6.957   6.877  0.1630 -0.1147 -0.0463
  878YOPE   D3B13033  14.619   7.277   7.123  0.1390 -0.0460 -0.2122
  878YOPE   C4B13034  14.623   7.339   7.567 -0.1565 -0.1071 -0.1932
  879YOPE   NH313035   7.027   0.196   4.643 -0.1693 -0.0013 -0.1671
  879YOPE   PO413036   7.009   0.326   4.995  0.1541  0.3628 -0.0145
  879YOPE   GL113037   7.014   0.419   5.386 -0.0456  0.0169 -0.4270
  879YOPE   GL213038   7.266   0.655   5.503  0.0023  0.0399  0.1652
  879YOPE   C1A13039   6.859   0.197   5.721 -0.0318  0.0597  0.1248
  879YOPE   D2A13040   6.667   0.455   6.093  0.2238  0.2138  0.1741
  879YOPE   C3A13041   6.785   0.295   6.521 -0.1837  0.3792  0.3305
  879YOPE   C4A13042   7.058   0.090   6.853 -0.0166  0.0121  0.0604
  879YOPE   C1B13043   7.406   0.818   5.829  0.1489  0.1741  0.3550
  879YOPE   C2B13044   7.607   0.743   6.120 -0.1570 -0.2331 -0.0334
  879YOPE   D3B13045   7.882   0.475   6.274  0.2725  0.1979  0.0283
  879YOPE   C4B13046   8.149   0.277   6.563 -0.0203  0.1432 -0.1113
  880YOPE   NH313047   1.116  18.538   4.399  0.4686 -0.1070  0.1370
  880YOPE   PO413048   1.190  18.455   4.815 -0.0481  0.1442 -0.0439
  880YOPE   GL113049   1.304  18.247   5.251  0.0132  0.0069  0.4248
  880YOPE   GL213050   1.159  18.205   5.452  0.0097 -0.1630 -0.1619
  880YOPE   C1A13051   1.377  18.577   5.702  0.2524  0.2924 -0.0826
  880YOPE   D2A13052   1.741  18.623   5.901  0.3547 -0.1378 -0.0956
  880YOPE   C3A13053   2.023  18.409   6.096  0.1433 -0.1389  0.0179
  880YOPE   C4A13054   2.293  18.360   6.324 -0.0994  0.0551 -0.0324
  880YOPE   C1B13055   0.998  17.908   5.773  0.1067 -0.1715  0.1642
  880YOPE   C2B13056   0.773  17.621   5.959  0.2284  0.0837 -0.0656
  880YOPE   D3B13057   0.589  17.511   6.449 -0.3592 -0.0482 -0.1729
  880YOPE   C4B13058   0.287  17.242   6.664 -0.0712 -0.0026  0.2058
  881YOPE   NH313059  15.555   7.386   5.530 -0.2951  0.0647  0.4239
  881YOPE   PO413060  15.360   6.951   5.697 -0.0093  0.0041  0.1380
  881YOPE   GL113061  15.483   6.639   5.943 -0.0693  0.1909  0.0279
  881YOPE   GL213062  15.173   6.487   5.947  0.1575 -0.2502 -0.2135
  881YOPE   C1A13063  15.530   6.322   6.324  0.2668 -0.0006 -0.4311
  881YOPE   D2A13064  15.544   6.218   6.779  0.0710 -0.0453 -0.0803
  881YOPE   C3A13065  15.541   6.405   7.211  0.2809 -0.0620 -0.0230
  881YOPE   C4A13066  15.657   6.246   7.582 -0.0509 -0.1381  0.4602
  881YOPE   C1B13067  15.242   6.746   6.320  0.2007 -0.1903 -0.0775
  881YOPE   C2B13068  15.439   6.818   6.695 -0.1626  0.1793 -0.1289
  881YOPE   D3B13069  15.472   6.824   7.015  0.6797 -0.3166  0.2006
  881YOPE   C4B13070  15.500   6.900   7.424 -0.2442 -0.0177  0.3463
  882YOPE   NH313071   3.592   9.755   5.377  0.1842 -0.2421 -0.2206
  882YOPE   PO413072   3.792   9.424   5.497  0.1085 -0.1383  0.1520
  882YOPE   GL113073   3.907   9.538   5.853 -0.0352  0.1711  0.2941
  882YOPE   GL213074   3.723   9.743   5.860 -0.1771  0.2384 -0.0710
  882YOPE   C1A13075   4.133   9.372   6.155  0.0922 -0.1731 -0.2523
  882YOPE   D2A13076   4.300   9.497   6.554 -0.2054 -0.0744  0.0634
  882YOPE   C3A13077   4.418   9.933   6.653  0.5597 -0.1541 -0.1273
  882YOPE   C4A13078   4.587  10.376   6.709 -0.1311  0.0029  0.1168
  882YOPE   C1B13079   3.525   9.787   6.209 -0.2347  0.0225  0.1110
  882YOPE   C2B13080   3.298   9.653   6.653  0.1281  0.2723 -0.0840
  882YOPE   D3B13081   3.362   9.346   7.084  0.1009  0.0278 -0.1923
  882YOPE   C4B13082   3.026   9.060   7.041 -0.1972 -0.1090 -0.2211
  883YOPE   NH313083   2.811   4.570   5.139  0.5579  0.0602 -0.0526
  883YOPE   PO413084   2.687   4.858   5.510  0.0913  0.0614  0.1748
  883YOPE   GL113085   2.792   4.521   5.823  0.1429  0.1592  0.0547
  883YOPE   GL213086   3.012   4.767   6.126 -0.1120 -0.3063 -0.0287
  883YOPE   C1A13087   2.868   4.316   6.203 -0.2245 -0.0089  0.1346
  883YOPE   D2A13088   2.968   4.521   6.599 -0.1657 -0.0585 -0.1289
  883YOPE   C3A13089   2.630   4.725   6.987  0.0102  0.0824 -0.0360
  883YOPE   C4A13090   2.237   4.752   7.066 -0.2058 -0.0912 -0.1895
  883YOPE   C1B13091   2.746   5.062   6.455 -0.0234 -0.1394  0.1057
  883YOPE   C2B13092   2.770   5.439   6.651  0.1091  0.3145 -0.0077
  883YOPE   D3B13093   2.714   5.735   6.959  0.0533 -0.1252  0.3460
  883YOPE   C4B13094   2.333   5.639   7.096 -0.2730  0.0662  0.0077
  884YOPE   NH313095  11.791  14.687   5.010  0.1938 -0.3597  0.0065
  884YOPE   PO413096  11.680  15.021   5.022  0.0563 -0.1487 -0.0793
  884YOPE   GL113097  11.502  14.924   5.436 -0.2927  0.0161  0.1849
  884YOPE   GL213098  11.319  14.587   5.437  0.0442 -0.1877  0.1821
  884YOPE   C1A13099  11.710  14.895   5.827  0.6152 -0.2377 -0.0173
  884YOPE   D2A13100  11.750  15.113   6.302  0.0298 -0.0237 -0.1689
  884YOPE   C3A13101  12.142  15.177   6.497 -0.0131  0.2313 -0.0812
  884YOPE   C4A13102  12.353  15.336   6.660 -0.1035  0.3240 -0.0132
  884YOPE   C1B13103  11.610  14.354   5.718  0.1929 -0.0268  0.0252
  884YOPE   C2B13104  11.711  14.235   6.034 -0.0459  0.0165  0.3542
  884YOPE   D3B13105  11.721  14.302   6.390  0.3195  0.2276  0.3050
  884YOPE   C4B13106  11.645  14.312   6.930 -0.2438  0.0728  0.0863
  885YOPE   NH313107   2.666   2.777   5.172 -0.3542  0.1860  0.3006
  885YOPE   PO413108   3.093   2.757   5.271 -0.3849  0.2563 -0.1807
  885YOPE   GL113109   3.435   2.788   5.524 -0.1960  0.0328  0.1140
  885YOPE   GL213110   3.499   3.104   5.750  0.0255  0.1579  0.2722
  885YOPE   C1A13111   3.450   2.615   5.899  0.0309  0.2071  0.1571
  885YOPE   D2A13112   3.176   2.693   6.172 -0.0121  0.1681  0.2837
  885YOPE   C3A13113   2.738   2.735   6.143  0.2264 -0.2095 -0.4428
  885YOPE   C4A13114   2.287   2.770   6.182  0.4422  0.0503  0.0354
  885YOPE   C1B13115   3.659   3.087   6.111 -0.1361  0.2611 -0.0399
  885YOPE   C2B13116   3.610   2.805   6.446  0.0170  0.0932 -0.2555
  885YOPE   D3B13117   3.829   2.625   6.682 -0.2241  0.2736  0.3939
  885YOPE   C4B13118   3.960   2.201   6.711  0.0230 -0.0901 -0.1561
  886YOPE   NH313119  14.443  13.342   4.917 -0.6046  0.0146 -0.1062
  886YOPE   PO413120  14.823  12.999   4.927 -0.1757 -0.1508  0.0601
  886YOPE   GL113121  15.059  12.896   5.305  0.0223 -0.0326 -0.1923
  886YOPE   GL213122  14.972  12.574   5.463 -0.0082 -0.0409  0.1444
  886YOPE   C1A13123  15.220  12.957   5.821 -0.4216 -0.4080 -0.1281
  886YOPE   D2A13124  15.261  13.152   6.306  0.1949  0.1851 -0.1483
  886YOPE   C3A13125  15.066  13.356   6.505 -0.0220  0.2840 -0.1303
  886YOPE   C4A13126  15.164  13.552   6.855 -0.0156  0.0038 -0.1711
  886YOPE   C1B13127  14.508  12.496   5.747 -0.0380  0.1343  0.1813
  886YOPE   C2B13128  14.520  12.528   6.130 -0.1059 -0.1124 -0.0244
  886YOPE   D3B13129  14.558  12.413   6.432  0.0276 -0.1200 -0.3964
  886YOPE   C4B13130  14.566  12.366   6.840  0.0666  0.2344 -0.1643
  887YOPE   NH313131  12.533   4.643   5.347 -0.3110  0.0277  0.2226
  887YOPE   PO413132  12.141   4.375   5.269  0.0922  0.0278 -0.2157
  887YOPE   GL113133  12.357   4.358   5.740  0.0926 -0.2010 -0.1300
  887YOPE   GL213134  12.230   4.044   5.911  0.0027 -0.0628  0.0072
  887YOPE   C1A13135  12.445   4.606   6.098  0.1139  0.0058  0.0929
  887YOPE   D2A13136  12.838   4.808   6.295 -0.0232 -0.3039  0.1294
  887YOPE   C3A13137  13.242   4.741   6.489  0.1415  0.1165  0.4588
  887YOPE   C4A13138  13.578   4.968   6.726  0.0258  0.1192 -0.0454
  887YOPE   C1B13139  12.239   3.953   6.287 -0.1220  0.0350 -0.0739
  887YOPE   C2B13140  12.337   3.788   6.641 -0.0544 -0.0229 -0.1674
  887YOPE   D3B13141  12.367   3.535   7.016  0.0956 -0.0648 -0.1781
  887YOPE   C4B13142  12.212   3.404   7.436  0.1180 -0.2806 -0.0903
  888YOPE   NH313143  17.274   5.220   5.132  0.3054 -0.1132 -0.1145
  888YOPE   PO413144  17.476   5.623   5.087 -0.1733 -0.0155 -0.2063
  888YOPE   GL113145  17.510   5.510   5.511  0.1975  0.1098 -0.1413
  888YOPE   GL213146  17.679   5.728   5.694 -0.2653  0.2221  0.1790
  888YOPE   C1A13147  17.269   5.308   5.773  0.0456  0.2127  0.0052
  888YOPE   D2A13148  16.997   5.277   5.970  0.0206 -0.1588  0.0628
  888YOPE   C3A13149  17.066   5.125   6.467 -0.0093  0.3377 -0.2827
  888YOPE   C4A13150  16.983   5.019   6.936 -0.0097  0.2029 -0.1647
  888YOPE   C1B13151  17.881   5.709   6.105 -0.6332  0.0871 -0.0472
  888YOPE   C2B13152  17.949   5.570   6.522 -0.1362 -0.2334  0.1682
  888YOPE   D3B13153  17.726   5.811   6.823 -0.0132 -0.1310 -0.1631
  888YOPE   C4B13154  17.687   5.966   7.269  0.0586  0.1126  0.1374
  889YOPE   NH313155  11.135   4.149   5.357  0.1287  0.1809  0.0893
  889YOPE   PO413156  11.256   3.764   5.269 -0.1049 -0.0004 -0.2370
  889YOPE   GL113157  11.210   3.433   5.465  0.0219  0.0563 -0.2066
  889YOPE   GL213158  10.968   3.571   5.653 -0.0676 -0.0355  0.2434
  889YOPE   C1A13159  11.305   3.134   5.781 -0.3019  0.4004  0.5168
  889YOPE   D2A13160  11.391   3.088   6.174  0.0183 -0.1440 -0.3035
  889YOPE   C3A13161  11.824   3.324   6.309 -0.1048 -0.0811 -0.1083
  889YOPE   C4A13162  12.057   3.360   6.712 -0.1717  0.0931 -0.1885
  889YOPE   C1B13163  10.868   3.268   5.934 -0.0207  0.0311 -0.6616
  889YOPE   C2B13164  10.873   3.158   6.311 -0.4241  0.0194 -0.1762
  889YOPE   D3B13165  10.686   3.166   6.765  0.1290 -0.1273 -0.0683
  889YOPE   C4B13166  10.404   3.210   7.093  0.1607 -0.3135 -0.2792
  890YOPE   NH313167  14.760   4.380   5.599  0.1674 -0.1627  0.1074
  890YOPE   PO413168  14.469   4.542   5.651  0.1056 -0.1089 -0.3173
  890YOPE   GL113169  14.426   4.218   5.937  0.0598  0.3440  0.0131
  890YOPE   GL213170  14.354   3.903   5.913 -0.1607  0.0964  0.3012
  890YOPE   C1A13171  14.264   4.172   6.336  0.2353 -0.0302 -0.0168
  890YOPE   D2A13172  14.151   4.171   6.692  0.0378  0.0085 -0.2781
  890YOPE   C3A13173  14.074   4.305   7.059 -0.0144  0.3429  0.1840
  890YOPE   C4A13174  13.776   4.408   7.300  0.0637  0.1235 -0.2985
  890YOPE   C1B13175  14.599   3.781   6.193  0.0900 -0.1527 -0.0481
  890YOPE   C2B13176  14.666   3.464   6.438  0.2145  0.1414 -0.3424
  890YOPE   D3B13177  14.553   3.099   6.812 -0.3401  0.1491  0.0997
  890YOPE   C4B13178  14.472   3.018   7.171 -0.1876 -0.1444  0.1707
  891YOPE   NH313179   4.098   0.860   5.089 -0.0187 -0.3894  0.2197
  891YOPE   PO413180   4.265   0.461   4.953 -0.1425 -0.2284  0.0484
  891YOPE   GL113181   3.970   0.309   5.182 -0.2822  0.1626  0.0929
  891YOPE   GL213182   3.877   0.554   5.474  0.0472 -0.3269 -0.0118
  891YOPE   C1A13183   3.797   0.044   5.473 -0.0458  0.0219 -0.0467
  891YOPE   D2A13184   3.867  -0.358   5.565 -0.0130  0.1562  0.1538
  891YOPE   C3A13185   4.266  -0.499   5.708 -0.3548  0.0913 -0.1162
  891YOPE   C4A13186   4.679  -0.706   5.744  0.0197  0.0270 -0.1123
  891YOPE   C1B13187   3.742   0.890   5.776  0.0046  0.1153  0.1177
  891YOPE   C2B13188   3.412   0.916   6.133  0.1380  0.1830 -0.1923
  891YOPE   D3B13189   3.247   0.887   6.531  0.0527  0.0457 -0.2368
  891YOPE   C4B13190   3.136   0.784   7.042  0.0337 -0.1607  0.2305
  892YOPE   NH313191   7.965  13.580   4.712  0.2506  0.0714  0.1019
  892YOPE   PO413192   8.345  13.788   4.954  0.0017  0.0248 -0.1411
  892YOPE   GL113193   8.533  13.594   5.313 -0.3872  0.1225 -0.1216
  892YOPE   GL213194   8.364  13.780   5.594  0.0517 -0.0257  0.0919
  892YOPE   C1A13195   8.808  13.497   5.732 -0.1462 -0.1201 -0.6440
  892YOPE   D2A13196   8.807  13.399   6.138  0.0935 -0.2567 -0.1107
  892YOPE   C3A13197   8.920  12.942   6.173  0.0014  0.0364 -0.0250
  892YOPE   C4A13198   9.251  12.641   6.106  0.2162  0.1894  0.0667
  892YOPE   C1B13199   8.337  13.597   6.024 -0.1313 -0.0539  0.0646
  892YOPE   C2B13200   8.457  13.563   6.487  0.1045 -0.0079  0.2108
  892YOPE   D3B13201   8.677  13.903   6.838  0.0899  0.2702 -0.0818
  892YOPE   C4B13202   8.600  14.143   7.207  0.1623  0.0881  0.0087
  893YOPE   NH313203  16.227  12.381   5.455  0.0160 -0.4383  0.1355
  893YOPE   PO413204  16.008  12.004   5.431  0.0454  0.1756 -0.1575
  893YOPE   GL113205  15.784  12.210   5.771  0.2080 -0.2433 -0.0059
  893YOPE   GL213206  16.117  12.331   5.960  0.1037 -0.1148 -0.3124
  893YOPE   C1A13207  15.652  12.185   6.154 -0.0466  0.2522 -0.1933
  893YOPE   D2A13208  15.450  12.294   6.490 -0.0114 -0.0047  0.2063
  893YOPE   C3A13209  15.397  12.307   6.874  0.1437  0.3077 -0.1353
  893YOPE   C4A13210  15.055  12.268   7.110  0.2412  0.0436  0.3590
  893YOPE   C1B13211  16.090  12.420   6.413  0.2734  0.2510 -0.2065
  893YOPE   C2B13212  15.845  12.439   6.712 -0.0520  0.0751 -0.0068
  893YOPE   D3B13213  15.744  12.560   7.089  0.0306 -0.2136  0.1366
  893YOPE   C4B13214  15.676  12.860   7.384  0.1283  0.1319  0.1949
  894YOPE   NH313215   8.327  11.168   5.290 -0.0779 -0.1262  0.3235
  894YOPE   PO413216   8.734  11.505   5.273  0.1315 -0.1732 -0.3130
  894YOPE   GL113217   8.365  11.660   5.478  0.0707 -0.1000  0.1816
  894YOPE   GL213218   8.144  11.547   5.581 -0.0743 -0.0103  0.3557
  894YOPE   C1A13219   8.142  11.936   5.929 -0.2786  0.1251  0.0585
  894YOPE   D2A13220   8.158  11.778   6.301 -0.1993  0.1387  0.2998
  894YOPE   C3A13221   8.168  11.909   6.590 -0.1762 -0.0846  0.1403
  894YOPE   C4A13222   8.382  11.855   7.053  0.0860  0.1703  0.4449
  894YOPE   C1B13223   8.380  11.409   5.928 -0.1561 -0.2133  0.2610
  894YOPE   C2B13224   8.253  11.211   6.337  0.1136  0.0272  0.0802
  894YOPE   D3B13225   8.072  10.892   6.758 -0.4222 -0.0605  0.0359
  894YOPE   C4B13226   7.759  10.887   7.008  0.0761 -0.0196 -0.1675
  895YOPE   NH313227   4.601  18.794   4.843  0.0291 -0.0291 -0.1949
  895YOPE   PO413228   4.841  18.528   4.739  0.0782  0.0816  0.0043
  895YOPE   GL113229   4.622  18.377   5.173 -0.0390  0.0200 -0.1978
  895YOPE   GL213230   4.603  18.695   5.311 -0.2853 -0.0109  0.0598
  895YOPE   C1A13231   4.570  18.177   5.631  0.0669 -0.3158  0.0533
  895YOPE   D2A13232   4.693  18.343   6.085  0.0629 -0.1404  0.0210
  895YOPE   C3A13233   4.624  18.608   6.473 -0.3059 -0.0128 -0.2151
  895YOPE   C4A13234   4.704  19.096   6.642 -0.0351  0.0574  0.1738
  895YOPE   C1B13235   4.929  18.457   5.573  0.2827 -0.1278 -0.0218
  895YOPE   C2B13236   5.213  18.362   5.979  0.1247  0.0899  0.0096
  895YOPE   D3B13237   5.068  18.322   6.431  0.1428  0.2167 -0.0753
  895YOPE   C4B13238   4.979  18.603   6.832 -0.0023 -0.0216 -0.2777
  896YOPE   NH313239  17.412   4.469   4.650 -0.0619  0.3081 -0.1308
  896YOPE   PO413240  17.292   4.788   4.901 -0.5778 -0.1976 -0.1516
  896YOPE   GL113241  17.578   4.833   5.263 -0.1081 -0.1379  0.1954
  896YOPE   GL213242  17.397   4.864   5.533 -0.0753 -0.4076  0.0760
  896YOPE   C1A13243  17.921   4.793   5.575 -0.1930 -0.2011 -0.1189
  896YOPE   D2A13244  18.333   4.795   5.681  0.2247  0.1567 -0.0341
  896YOPE   C3A13245  18.343   4.412   5.861  0.3631  0.0578 -0.2398
  896YOPE   C4A13246  18.557   4.093   5.968 -0.0636  0.0373 -0.2287
  896YOPE   C1B13247  17.254   4.836   5.961 -0.2112 -0.1686  0.1828
  896YOPE   C2B13248  17.348   4.585   6.430  0.1221 -0.3630 -0.0103
  896YOPE   D3B13249  17.226   4.443   6.892  0.1180 -0.1616 -0.0241
  896YOPE   C4B13250  17.284   4.703   7.246 -0.2429 -0.0130 -0.0642
  897YOPE   NH313251   2.689   0.572   4.683  0.1899 -0.4583 -0.0211
  897YOPE   PO413252   2.467   0.722   5.023 -0.1118 -0.2077 -0.0391
  897YOPE   GL113253   2.412   0.813   5.546  0.1767  0.0196  0.0547
  897YOPE   GL213254   2.098   0.869   5.445  0.1028  0.1939  0.1253
  897YOPE   C1A13255   2.374   0.909   6.027  0.1835 -0.1405  0.1207
  897YOPE   D2A13256   2.605   1.091   6.369  0.1428 -0.0745 -0.2313
  897YOPE   C3A13257   2.751   0.771   6.680  0.1591 -0.1370  0.0403
  897YOPE   C4A13258   2.461   0.410   6.926 -0.0494 -0.1932  0.0334
  897YOPE   C1B13259   1.686   0.941   5.595  0.3593 -0.1008 -0.4960
  897YOPE   C2B13260   1.528   1.169   5.957 -0.3574 -0.0145  0.1066
  897YOPE   D3B13261   1.551   1.512   6.219  0.1928  0.1415 -0.1171
  897YOPE   C4B13262   1.382   1.711   6.613  0.0365 -0.1276  0.1046
  898YOPE   NH313263   6.389   2.720   5.202 -0.0734  0.0995 -0.1240
  898YOPE   PO413264   6.826   2.542   5.231  0.1572  0.1196 -0.1815
  898YOPE   GL113265   6.677   2.911   5.566 -0.1282 -0.0266  0.1612
  898YOPE   GL213266   6.952   2.662   5.734  0.0120 -0.1264 -0.1168
  898YOPE   C1A13267   6.671   2.873   6.015  0.2801 -0.0665 -0.2621
  898YOPE   D2A13268   6.679   2.943   6.503  0.2035 -0.1312  0.0649
  898YOPE   C3A13269   6.828   2.758   6.918  0.0680  0.1843  0.1537
  898YOPE   C4A13270   6.901   3.110   7.236  0.0974 -0.1716 -0.0247
  898YOPE   C1B13271   7.112   2.730   6.132  0.2729  0.0650  0.4448
  898YOPE   C2B13272   7.189   2.704   6.527 -0.0870 -0.1428 -0.3735
  898YOPE   D3B13273   7.591   2.830   6.789  0.4987 -0.0523 -0.0543
  898YOPE   C4B13274   7.849   2.539   7.061 -0.1752  0.0282  0.0209
  899YOPE   NH313275   3.668   5.005   5.086 -0.1698  0.2089 -0.0762
  899YOPE   PO413276   3.857   5.394   5.143  0.3506 -0.1189  0.2044
  899YOPE   GL113277   4.080   5.735   5.425  0.0654 -0.0430 -0.1365
  899YOPE   GL213278   4.011   5.858   5.546  0.0864  0.3689 -0.0033
  899YOPE   C1A13279   4.429   5.979   5.772  0.1741  0.0520 -0.3576
  899YOPE   D2A13280   4.802   6.001   5.935  0.0030  0.1072 -0.2025
  899YOPE   C3A13281   4.874   6.230   6.192  0.1129  0.0022 -0.0236
  899YOPE   C4A13282   5.147   6.466   6.480  0.0837 -0.1866  0.1482
  899YOPE   C1B13283   3.845   6.180   5.860  0.0962  0.1825 -0.0849
  899YOPE   C2B13284   3.747   6.223   6.304 -0.2459  0.1423 -0.1862
  899YOPE   D3B13285   4.103   6.158   6.675  0.0533 -0.2771  0.5180
  899YOPE   C4B13286   4.354   6.406   6.917 -0.2824 -0.0671  0.0032
  900YOPE   NH313287  11.531   4.973   5.471 -0.2410 -0.1532 -0.1267
  900YOPE   PO413288  11.628   5.384   5.311  0.1605  0.1705  0.0010
  900YOPE   GL113289  11.652   5.333   5.754  0.2006 -0.2346 -0.0294
  900YOPE   GL213290  11.414   5.516   5.817 -0.4077  0.1384 -0.0171
  900YOPE   C1A13291  11.588   5.082   6.240  0.2305  0.0087 -0.4460
  900YOPE   D2A13292  11.605   4.803   6.560  0.1108 -0.4434 -0.0081
  900YOPE   C3A13293  11.367   4.966   6.831  0.0133  0.0925 -0.0586
  900YOPE   C4A13294  10.977   5.040   6.935  0.0380 -0.0945  0.1518
  900YOPE   C1B13295  11.557   5.634   6.183  0.2386 -0.2926  0.0896
  900YOPE   C2B13296  11.561   5.476   6.583 -0.0776  0.1483  0.0876
  900YOPE   D3B13297  11.680   5.318   7.057  0.1716 -0.1404 -0.1136
  900YOPE   C4B13298  11.977   5.150   7.287  0.3366 -0.2547 -0.1712
  901YOPE   NH313299   9.748  16.529   5.251 -0.0396 -0.0318  0.2272
  901YOPE   PO413300  10.041  16.310   5.297 -0.4214 -0.1806  0.0129
  901YOPE   GL113301  10.016  16.352   5.709  0.0276 -0.0417  0.0053
  901YOPE   GL213302   9.965  16.527   5.991  0.0896  0.1296  0.3549
  901YOPE   C1A13303  10.298  16.200   6.113  0.0752 -0.1902  0.0059
  901YOPE   D2A13304  10.477  16.349   6.501 -0.3059 -0.1163  0.1427
  901YOPE   C3A13305  10.432  16.145   6.932  0.1728  0.2318  0.0846
  901YOPE   C4A13306  10.541  15.783   7.064  0.0368 -0.1457  0.0913
  901YOPE   C1B13307   9.883  16.647   6.396  0.0801  0.3950  0.0183
  901YOPE   C2B13308  10.079  16.563   6.750  0.1092 -0.3031 -0.1554
  901YOPE   D3B13309   9.990  16.298   7.116  0.2645 -0.0947  0.1156
  901YOPE   C4B13310   9.826  15.957   7.236 -0.1555  0.0476  0.1712
  902YOPE   NH313311  13.788   1.422   5.341  0.0529  0.2518 -0.0891
  902YOPE   PO413312  14.081   1.178   5.122  0.0970 -0.1555  0.1691
  902YOPE   GL113313  14.133   1.139   5.649 -0.0546 -0.2534 -0.5026
  902YOPE   GL213314  14.402   1.263   5.874 -0.0801 -0.2845 -0.0488
  902YOPE   C1A13315  14.116   0.799   6.032  0.0071  0.1011  0.0555
  902YOPE   D2A13316  13.872   0.577   6.356 -0.3302  0.2048 -0.0647
  902YOPE   C3A13317  13.873   0.791   6.852 -0.0315  0.1954 -0.0707
  902YOPE   C4A13318  13.637   1.037   7.043 -0.0477  0.1824 -0.2747
  902YOPE   C1B13319  14.114   1.527   6.121 -0.0344 -0.0980  0.2037
  902YOPE   C2B13320  13.987   1.448   6.602  0.0266 -0.3112 -0.1803
  902YOPE   D3B13321  13.679   1.481   6.899  0.2029  0.0096 -0.0575
  902YOPE   C4B13322  13.581   1.723   7.145 -0.0780  0.0881 -0.1312
  903YOPE   NH313323   6.641  12.516   4.757 -0.1456  0.2268 -0.3430
  903YOPE   PO413324   6.330  12.604   5.039 -0.1498  0.0404  0.3301
  903YOPE   GL113325   6.167  12.785   5.340  0.0785 -0.1313 -0.0774
  903YOPE   GL213326   5.823  12.842   5.383  0.1078 -0.0412  0.2585
  903YOPE   C1A13327   6.190  12.773   5.798 -0.1320 -0.0988  0.0233
  903YOPE   D2A13328   6.228  12.460   6.139 -0.0311 -0.1766  0.3261
  903YOPE   C3A13329   6.632  12.446   6.342  0.3474  0.0509 -0.0394
  903YOPE   C4A13330   6.814  12.241   6.614 -0.0458  0.2775  0.1192
  903YOPE   C1B13331   5.888  12.367   5.569  0.2380  0.0332 -0.3150
  903YOPE   C2B13332   6.397  12.213   5.705 -0.1895  0.2015  0.3208
  903YOPE   D3B13333   6.851  12.310   5.755 -0.3997 -0.1854  0.1314
  903YOPE   C4B13334   7.227  12.313   5.704  0.2671  0.0438 -0.3863
  904YOPE   NH313335  10.135   5.645   5.610  0.0030  0.2700 -0.0945
  904YOPE   PO413336   9.650   5.938   5.507 -0.4436  0.3489  0.2583
  904YOPE   GL113337   9.597   5.653   5.783 -0.0299  0.1767 -0.1064
  904YOPE   GL213338   9.732   5.627   6.041  0.2211  0.0371  0.1293
  904YOPE   C1A13339   9.263   5.564   6.092 -0.0376  0.0985  0.2295
  904YOPE   D2A13340   9.099   5.441   6.476  0.2626 -0.2562 -0.3104
  904YOPE   C3A13341   9.346   5.452   6.804  0.1195  0.0405  0.0833
  904YOPE   C4A13342   9.633   5.382   7.193 -0.1117 -0.1451 -0.2386
  904YOPE   C1B13343   9.694   5.365   6.413 -0.0916 -0.1676  0.0392
  904YOPE   C2B13344   9.722   5.113   6.768 -0.1790  0.1036  0.1659
  904YOPE   D3B13345   9.458   4.826   7.052 -0.1279  0.1936 -0.2069
  904YOPE   C4B13346   9.396   4.999   7.385 -0.1264  0.2086 -0.0085
  905YOPE   NH313347   5.617  15.341   4.861  0.1857 -0.0234 -0.0089
  905YOPE   PO413348   5.934  15.232   4.515 -0.1241 -0.2886 -0.0861
  905YOPE   GL113349   6.085  15.085   4.961  0.0574  0.1844 -0.0231
  905YOPE   GL213350   5.847  14.877   5.381  0.0415  0.1363  0.0080
  905YOPE   C1A13351   6.332  15.054   5.304 -0.3515  0.1132  0.1121
  905YOPE   D2A13352   6.664  14.947   5.406 -0.1413  0.0195  0.1941
  905YOPE   C3A13353   6.911  15.024   5.766  0.1973 -0.1886 -0.3509
  905YOPE   C4A13354   6.682  15.041   6.199  0.0108 -0.0946 -0.0735
  905YOPE   C1B13355   5.834  14.890   5.788 -0.0187  0.1431 -0.1972
  905YOPE   C2B13356   5.738  14.820   6.213 -0.1073  0.1422  0.0842
  905YOPE   D3B13357   5.757  15.200   6.579 -0.1320  0.1689  0.3004
  905YOPE   C4B13358   5.445  15.531   6.621 -0.1060  0.0809  0.2724
  906YOPE   NH313359  10.202   2.936   5.372 -0.1125 -0.1779  0.0435
  906YOPE   PO413360  10.456   2.604   5.381  0.0350 -0.0238 -0.1746
  906YOPE   GL113361  10.769   2.516   5.634  0.1462 -0.0517  0.1660
  906YOPE   GL213362  10.711   2.341   5.911  0.1270  0.2065 -0.0464
  906YOPE   C1A13363  10.941   2.772   5.971  0.0343  0.1806 -0.2448
  906YOPE   D2A13364  11.218   2.644   6.211 -0.2667 -0.0531 -0.2242
  906YOPE   C3A13365  11.108   2.242   6.358  0.0364 -0.0949  0.1703
  906YOPE   C4A13366  10.861   1.896   6.156  0.1881 -0.2288  0.3466
  906YOPE   C1B13367  10.550   2.207   6.344 -0.0202 -0.0622  0.1517
  906YOPE   C2B13368  10.667   2.072   6.723 -0.3469 -0.0375 -0.0328
  906YOPE   D3B13369  10.852   2.192   7.137 -0.1349 -0.0006  0.1017
  906YOPE   C4B13370  11.018   2.257   7.578 -0.0086 -0.2387  0.0051
  907YOPE   NH313371  17.260   1.494   5.282 -0.0648 -0.0421  0.1357
  907YOPE   PO413372  17.224   1.085   5.160  0.1018 -0.0166 -0.0804
  907YOPE   GL113373  17.377   1.113   5.624 -0.1767  0.1388  0.2127
  907YOPE   GL213374  17.230   1.315   5.860 -0.0073  0.1351  0.1424
  907YOPE   C1A13375  17.609   0.979   5.967 -0.2980  0.0034 -0.0864
  907YOPE   D2A13376  17.761   0.866   6.403  0.3103  0.0045  0.0038
  907YOPE   C3A13377  17.470   0.961   6.793 -0.0878 -0.0336 -0.0544
  907YOPE   C4A13378  17.437   1.428   6.974 -0.1938 -0.1049  0.1056
  907YOPE   C1B13379  17.187   1.149   6.330 -0.1031 -0.1677 -0.0309
  907YOPE   C2B13380  16.950   1.210   6.771 -0.2978 -0.1428 -0.0633
  907YOPE   D3B13381  16.694   1.344   7.200 -0.3218  0.1122  0.1317
  907YOPE   C4B13382  16.798   1.368   7.674  0.1348 -0.4196  0.2076
  908YOPE   NH313383  10.246  16.808   5.460  0.0450  0.0916  0.2109
  908YOPE   PO413384   9.848  16.946   5.518  0.0672  0.2962  0.0670
  908YOPE   GL113385   9.903  17.031   5.923  0.3624  0.1839  0.1064
  908YOPE   GL213386   9.632  16.903   6.058  0.2807 -0.1291 -0.1986
  908YOPE   C1A13387  10.232  16.971   6.188 -0.2152 -0.3405  0.0530
  908YOPE   D2A13388  10.313  17.142   6.536 -0.4020 -0.0809  0.1386
  908YOPE   C3A13389  10.230  17.523   6.688 -0.0542  0.2872 -0.3625
  908YOPE   C4A13390  10.145  17.722   7.040 -0.0650 -0.2731 -0.0232
  908YOPE   C1B13391   9.455  16.945   6.400  0.2250  0.1264  0.3717
  908YOPE   C2B13392   9.101  16.912   6.728 -0.0417 -0.3859  0.1051
  908YOPE   D3B13393   8.653  16.967   6.825  0.1056  0.2279  0.5301
  908YOPE   C4B13394   8.360  17.316   6.989  0.0313  0.2845 -0.0390
  909YOPE   NH313395  13.484   7.864   5.196  0.1988  0.1182 -0.1905
  909YOPE   PO413396  13.222   7.785   5.598  0.0262 -0.0359  0.2702
  909YOPE   GL113397  13.253   8.078   5.989  0.1247 -0.0727 -0.1069
  909YOPE   GL213398  13.034   8.161   6.229 -0.3035 -0.1583 -0.0526
  909YOPE   C1A13399  13.516   7.930   6.412 -0.1023 -0.0035 -0.0764
  909YOPE   D2A13400  13.640   7.981   6.816  0.0337  0.0273  0.0593
  909YOPE   C3A13401  13.748   8.357   6.789 -0.3440 -0.0819  0.0320
  909YOPE   C4A13402  14.172   8.518   6.884 -0.2707  0.0807 -0.2198
  909YOPE   C1B13403  12.738   8.204   6.649 -0.1229 -0.0675 -0.3349
  909YOPE   C2B13404  12.678   8.478   6.846 -0.0320  0.0199  0.0903
  909YOPE   D3B13405  12.630   8.828   7.090 -0.2676 -0.2471  0.2227
  909YOPE   C4B13406  12.446   9.208   7.003  0.1680 -0.0762 -0.2150
  910YOPE   NH313407  15.791   8.115   5.802  0.2844  0.0494  0.1065
  910YOPE   PO413408  15.466   7.830   5.782  0.2194  0.0978 -0.2943
  910YOPE   GL113409  15.265   7.709   6.053 -0.0005  0.0165 -0.0114
  910YOPE   GL213410  15.035   7.559   5.922 -0.1273 -0.1613  0.0192
  910YOPE   C1A13411  15.349   7.740   6.423 -0.1200  0.1173  0.0068
  910YOPE   D2A13412  15.141   7.796   6.906  0.2666 -0.0041  0.0780
  910YOPE   C3A13413  15.237   7.983   7.246 -0.0635 -0.1444 -0.1161
  910YOPE   C4A13414  15.415   8.317   7.509 -0.3376 -0.0893 -0.0066
  910YOPE   C1B13415  14.894   7.659   6.382  0.0205 -0.0884  0.1625
  910YOPE   C2B13416  14.736   7.601   6.782  0.1215 -0.1572  0.0066
  910YOPE   D3B13417  14.698   7.840   7.244  0.2776  0.1160  0.2068
  910YOPE   C4B13418  14.793   7.883   7.670 -0.2319 -0.0174  0.2142
  911YOPE   NH313419   8.786  19.232   5.142  0.0154  0.0876  0.2842
  911YOPE   PO413420   9.234  19.254   4.991 -0.1246  0.1221  0.1490
  911YOPE   GL113421   9.258  19.358   5.458  0.1505  0.1689  0.0493
  911YOPE   GL213422   9.495  19.508   5.586 -0.1160 -0.0815  0.1012
  911YOPE   C1A13423   9.017  19.413   5.733  0.0450 -0.1527 -0.1852
  911YOPE   D2A13424   9.079  19.508   6.061 -0.1443 -0.1459  0.0232
  911YOPE   C3A13425   8.813  19.426   6.322 -0.3130 -0.0077  0.0333
  911YOPE   C4A13426   8.524  19.408   6.620 -0.0062 -0.2297  0.0684
  911YOPE   C1B13427   9.585  19.626   6.067 -0.1864  0.1280 -0.1242
  911YOPE   C2B13428   9.323  19.563   6.488  0.3279 -0.1228 -0.0193
  911YOPE   D3B13429   8.998  19.621   6.739 -0.1222 -0.0124  0.3383
  911YOPE   C4B13430   8.745  19.743   7.156  0.1778 -0.2477  0.1093
  912YOPE   NH313431  11.859   6.307   5.507 -0.2162 -0.3454  0.3511
  912YOPE   PO413432  12.145   6.215   5.347 -0.2919 -0.0079  0.0914
  912YOPE   GL113433  12.229   6.085   5.755 -0.3121 -0.0209  0.0296
  912YOPE   GL213434  11.986   5.790   5.711  0.2020  0.2740  0.1076
  912YOPE   C1A13435  12.340   5.934   6.147 -0.2398 -0.0451  0.0235
  912YOPE   D2A13436  12.488   5.629   6.362 -0.2616 -0.1258  0.3634
  912YOPE   C3A13437  12.530   5.784   6.743 -0.5412  0.0356  0.3121
  912YOPE   C4A13438  12.467   5.951   7.129 -0.1533  0.0221  0.0791
  912YOPE   C1B13439  12.014   5.530   6.031  0.1903  0.3826 -0.2314
  912YOPE   C2B13440  12.065   5.395   6.426 -0.0505  0.0058  0.0277
  912YOPE   D3B13441  12.107   5.155   6.717 -0.3381 -0.3421  0.2138
  912YOPE   C4B13442  11.974   4.797   6.918 -0.4068 -0.0042  0.0282
  913YOPE   NH313443   7.265   5.452   4.958 -0.0718 -0.0486 -0.5103
  913YOPE   PO413444   7.183   5.704   5.267  0.2213 -0.0588  0.0381
  913YOPE   GL113445   7.426   5.803   5.725 -0.1897  0.0519 -0.0106
  913YOPE   GL213446   7.303   5.576   5.811  0.1711 -0.0210  0.5399
  913YOPE   C1A13447   7.412   5.762   6.265 -0.1583 -0.3273  0.1018
  913YOPE   D2A13448   7.264   5.680   6.639 -0.3046  0.3091  0.0110
  913YOPE   C3A13449   7.489   5.390   6.900 -0.0630 -0.0722 -0.0301
  913YOPE   C4A13450   7.692   5.402   7.334  0.1655 -0.3064  0.0012
  913YOPE   C1B13451   7.076   5.371   6.221  0.0293  0.0704  0.0032
  913YOPE   C2B13452   7.074   5.215   6.635 -0.0564 -0.2265  0.1087
  913YOPE   D3B13453   7.248   5.094   7.134  0.0760 -0.2169  0.1432
  913YOPE   C4B13454   7.391   4.993   7.557  0.3095  0.0246  0.0343
  914YOPE   NH313455  17.724   6.058   5.265  0.2232  0.0676  0.1815
  914YOPE   PO413456  17.402   6.392   5.164  0.0264  0.2128 -0.1331
  914YOPE   GL113457  17.471   6.312   5.590  0.0601 -0.0478  0.0996
  914YOPE   GL213458  17.520   6.658   5.646 -0.0045  0.0112 -0.0205
  914YOPE   C1A13459  17.415   6.063   5.956  0.0705  0.0403 -0.0427
  914YOPE   D2A13460  17.401   5.646   6.127  0.1625 -0.0603 -0.1751
  914YOPE   C3A13461  17.366   5.479   6.541 -0.1789  0.1320 -0.2142
  914YOPE   C4A13462  17.328   5.371   6.874 -0.2286 -0.0072 -0.4983
  914YOPE   C1B13463  17.424   7.010   6.001  0.0857 -0.0154 -0.2754
  914YOPE   C2B13464  17.323   7.088   6.438 -0.1357  0.2473 -0.0905
  914YOPE   D3B13465  17.347   7.070   6.725 -0.1270 -0.0541 -0.0136
  914YOPE   C4B13466  17.471   6.936   7.135 -0.1668 -0.1181 -0.3771
  915YOPE   NH313467   4.456  17.037   4.395 -0.3331  0.0188 -0.1224
  915YOPE   PO413468   4.276  17.461   4.595 -0.1740 -0.1078 -0.4838
  915YOPE   GL113469   4.196  17.470   5.058  0.1072 -0.0947  0.2785
  915YOPE   GL213470   4.414  17.397   5.257  0.1337  0.2030  0.0584
  915YOPE   C1A13471   4.200  17.739   5.464 -0.0661 -0.1367  0.1343
  915YOPE   D2A13472   3.976  17.812   5.801  0.1109  0.0838  0.2051
  915YOPE   C3A13473   4.069  18.257   5.912 -0.0436 -0.0764 -0.1174
  915YOPE   C4A13474   4.281  18.631   5.866 -0.2970  0.0523  0.0275
  915YOPE   C1B13475   4.683  17.482   5.503 -0.2405  0.1969 -0.0029
  915YOPE   C2B13476   4.853  17.429   5.939  0.2292  0.0777 -0.1889
  915YOPE   D3B13477   5.224  17.418   6.129  0.0682  0.0571 -0.1216
  915YOPE   C4B13478   5.305  17.349   6.600  0.3627 -0.0087  0.1686
  916YOPE   NH313479   6.465   9.465   5.623 -0.4507 -0.1506 -0.3243
  916YOPE   PO413480   6.073   9.481   5.722 -0.1507 -0.3699 -0.2706
  916YOPE   GL113481   6.299   9.159   6.034  0.1218 -0.0964  0.3440
  916YOPE   GL213482   6.255   8.753   6.048  0.1832 -0.4085 -0.0808
  916YOPE   C1A13483   6.322   9.094   6.414  0.1509  0.1570  0.0929
  916YOPE   D2A13484   6.283   9.190   6.963 -0.1711  0.3006  0.1587
  916YOPE   C3A13485   6.554   9.066   7.179  0.1918 -0.2007  0.1082
  916YOPE   C4A13486   6.775   9.213   7.524  0.0028  0.1620  0.1089
  916YOPE   C1B13487   5.845   8.892   6.336 -0.0085 -0.1326 -0.2597
  916YOPE   C2B13488   5.384   8.844   6.483  0.0534  0.2354  0.1445
  916YOPE   D3B13489   5.021   8.953   6.437 -0.4110 -0.0330  0.1830
  916YOPE   C4B13490   4.694   8.755   6.637 -0.2103 -0.2916  0.1519
  917YOPE   NH313491   2.691  14.707   4.894  0.0999  0.4700 -0.0742
  917YOPE   PO413492   3.104  14.890   5.026 -0.1186 -0.1816 -0.3103
  917YOPE   GL113493   3.172  14.599   5.338 -0.0900  0.2715 -0.4599
  917YOPE   GL213494   3.401  14.563   5.250 -0.1803  0.0703  0.1261
  917YOPE   C1A13495   3.152  14.580   5.797 -0.1055 -0.1249  0.0012
  917YOPE   D2A13496   3.413  14.332   6.171  0.0727  0.0324 -0.2854
  917YOPE   C3A13497   3.322  14.037   6.512 -0.1182  0.1021 -0.0072
  917YOPE   C4A13498   3.181  13.934   6.872 -0.3234 -0.0334  0.0605
  917YOPE   C1B13499   3.683  14.206   5.493  0.2116 -0.2732 -0.1276
  917YOPE   C2B13500   3.706  14.349   5.802 -0.0749  0.1736  0.0336
  917YOPE   D3B13501   3.974  14.340   6.235  0.2338  0.2372  0.0330
  917YOPE   C4B13502   4.388  14.209   6.420  0.1277  0.0325  0.0166
  918YOPE   NH313503  10.462  12.085   5.709 -0.1166 -0.0865  0.2319
  918YOPE   PO413504  10.900  11.988   5.748  0.0453  0.1484  0.1585
  918YOPE   GL113505  11.069  12.053   6.153 -0.2478 -0.2962  0.1234
  918YOPE   GL213506  11.377  11.860   6.088 -0.1175 -0.2424 -0.0703
  918YOPE   C1A13507  10.940  11.953   6.581 -0.3003  0.1554 -0.3634
  918YOPE   D2A13508  11.189  11.858   6.940 -0.3803  0.1700  0.1045
  918YOPE   C3A13509  11.070  11.549   7.354 -0.3046 -0.1219 -0.0287
  918YOPE   C4A13510  11.140  10.983   7.401 -0.0938 -0.3239  0.0386
  918YOPE   C1B13511  11.486  11.749   6.505  0.2966 -0.1812  0.1177
  918YOPE   C2B13512  11.803  11.388   6.610  0.1355  0.0437  0.0688
  918YOPE   D3B13513  11.864  11.151   6.927 -0.3172 -0.1238 -0.3190
  918YOPE   C4B13514  11.924  11.055   7.356 -0.1811 -0.1361 -0.6223
  919YOPE   NH313515   0.419   6.908   5.321  0.1838  0.1336  0.5620
  919YOPE   PO413516   0.060   6.619   5.248 -0.0621  0.0777 -0.0952
  919YOPE   GL113517   0.101   6.677   5.606 -0.1202  0.1065  0.1653
  919YOPE   GL213518  -0.172   6.849   5.845  0.0028 -0.2619 -0.0136
  919YOPE   C1A13519   0.114   6.406   5.966 -0.3194  0.0331 -0.1833
  919YOPE   D2A13520   0.152   6.397   6.466 -0.0467 -0.2789  0.0306
  919YOPE   C3A13521  -0.077   6.098   6.645 -0.0398 -0.3240  0.2717
  919YOPE   C4A13522  -0.136   5.905   7.024  0.1226 -0.2758 -0.0390
  919YOPE   C1B13523  -0.223   6.727   6.327  0.2375  0.2097  0.2150
  919YOPE   C2B13524  -0.035   6.655   6.817 -0.2143 -0.2892 -0.0824
  919YOPE   D3B13525   0.448   6.752   6.776  0.0305  0.0517  0.3286
  919YOPE   C4B13526   0.845   6.955   7.176 -0.0947  0.0333  0.2283
  920YOPE   NH313527  16.746   8.821   5.479 -0.2810  0.3893  0.0729
  920YOPE   PO413528  16.651   8.425   5.544 -0.0024  0.0743  0.1491
  920YOPE   GL113529  16.716   8.165   5.875 -0.1702 -0.2395  0.1574
  920YOPE   GL213530  16.542   8.297   6.116 -0.2062  0.1323  0.2853
  920YOPE   C1A13531  16.979   7.950   6.163 -0.1750 -0.1410  0.0713
  920YOPE   D2A13532  17.429   7.981   6.201  0.1991  0.0941  0.1498
  920YOPE   C3A13533  17.495   8.348   6.259  0.1455  0.3249  0.4519
  920YOPE   C4A13534  17.442   8.787   6.094  0.0936  0.1258 -0.0641
  920YOPE   C1B13535  16.845   8.431   6.355  0.0731  0.1869 -0.1873
  920YOPE   C2B13536  17.038   8.578   6.807  0.2676 -0.2230  0.2112
  920YOPE   D3B13537  17.287   8.454   7.153 -0.1364  0.2075 -0.1196
  920YOPE   C4B13538  17.615   8.222   7.367 -0.1291 -0.2007 -0.0746
  921YOPE   NH313539   7.391  15.557   5.009  0.1324  0.2432  0.2146
  921YOPE   PO413540   7.522  16.033   4.948 -0.2162  0.4085  0.0449
  921YOPE   GL113541   7.691  16.063   5.343  0.0762  0.0561  0.0677
  921YOPE   GL213542   8.064  15.985   5.505  0.3373 -0.1328  0.3105
  921YOPE   C1A13543   7.482  16.083   5.782  0.0088  0.0107 -0.0165
  921YOPE   D2A13544   7.305  15.965   6.211 -0.0340  0.0553 -0.3299
  921YOPE   C3A13545   7.555  16.065   6.609 -0.0698  0.3426 -0.2007
  921YOPE   C4A13546   7.422  16.422   6.788 -0.2088  0.0397 -0.0639
  921YOPE   C1B13547   8.199  15.576   5.671  0.0041  0.2072  0.1081
  921YOPE   C2B13548   8.136  15.252   5.985 -0.2494 -0.2051  0.0136
  921YOPE   D3B13549   8.200  15.075   6.416  0.0169  0.1118 -0.2183
  921YOPE   C4B13550   8.336  15.027   6.769 -0.2839 -0.1052 -0.2871
  922YOPE   NH313551   7.006   5.308   5.486  0.1518 -0.1207 -0.2321
  922YOPE   PO413552   7.295   5.026   5.282 -0.0129 -0.0001 -0.0857
  922YOPE   GL113553   7.356   4.952   5.686  0.2552  0.1015 -0.0465
  922YOPE   GL213554   7.626   4.704   5.781 -0.1097  0.4594 -0.1520
  922YOPE   C1A13555   7.539   5.144   5.900  0.0355  0.2261  0.1221
  922YOPE   D2A13556   7.560   5.230   6.368  0.0088  0.0170 -0.5020
  922YOPE   C3A13557   7.603   4.876   6.721 -0.2234  0.1392 -0.0266
  922YOPE   C4A13558   7.609   4.649   7.179 -0.0244 -0.1728  0.1081
  922YOPE   C1B13559   7.464   4.771   6.259 -0.5176 -0.1594  0.3143
  922YOPE   C2B13560   7.144   4.744   6.532  0.0761  0.1708 -0.3925
  922YOPE   D3B13561   7.087   4.518   6.841 -0.2234 -0.1078 -0.2881
  922YOPE   C4B13562   7.098   4.610   7.367 -0.0632  0.0631 -0.0663
  923YOPE   NH313563   1.922  13.300   5.006  0.1026  0.4320 -0.2422
  923YOPE   PO413564   2.283  12.955   4.939  0.0657  0.3379  0.2593
  923YOPE   GL113565   2.584  12.764   5.344 -0.0895  0.1105 -0.1772
  923YOPE   GL213566   2.507  12.948   5.523  0.3642 -0.2761  0.3588
  923YOPE   C1A13567   2.671  12.498   5.663  0.0415 -0.4601  0.0151
  923YOPE   D2A13568   2.489  12.278   5.982  0.0295  0.0326  0.1056
  923YOPE   C3A13569   2.558  12.451   6.362 -0.1168 -0.2080  0.2417
  923YOPE   C4A13570   2.453  12.702   6.558  0.0002  0.3732 -0.1966
  923YOPE   C1B13571   2.097  12.975   5.737  0.1674  0.0148 -0.2740
  923YOPE   C2B13572   2.075  13.061   6.235 -0.1003  0.0956 -0.1505
  923YOPE   D3B13573   2.039  12.924   6.718  0.2089 -0.3281  0.1541
  923YOPE   C4B13574   2.014  12.464   6.798  0.2279  0.0225 -0.0789
  924YOPE   NH313575   0.556   6.403   5.408 -0.0519 -0.0313  0.2337
  924YOPE   PO413576   0.867   6.776   5.448  0.3272  0.0394  0.1320
  924YOPE   GL113577   1.040   6.943   5.753 -0.1864 -0.0567  0.1894
  924YOPE   GL213578   1.202   7.194   5.795 -0.2378 -0.1483  0.0466
  924YOPE   C1A13579   1.108   6.868   6.227  0.1443 -0.1209 -0.3544
  924YOPE   D2A13580   0.923   6.749   6.575  0.0419  0.0249 -0.2852
  924YOPE   C3A13581   0.786   6.469   6.983 -0.1675  0.2721 -0.2021
  924YOPE   C4A13582   0.755   6.153   7.271  0.2316 -0.1047 -0.0786
  924YOPE   C1B13583   1.154   7.397   6.130  0.0114 -0.2715 -0.1953
  924YOPE   C2B13584   1.104   7.338   6.544  0.1787  0.1926 -0.2297
  924YOPE   D3B13585   1.131   7.231   6.962  0.0125 -0.1976  0.0535
  924YOPE   C4B13586   1.177   7.138   7.501  0.0477 -0.3306  0.1946
  925YOPE   NH313587  12.695  14.194   5.192  0.4218  0.0102  0.0182
  925YOPE   PO413588  13.102  14.215   4.973 -0.4259  0.0687 -0.0109
  925YOPE   GL113589  13.159  14.219   5.416  0.1870  0.0862 -0.0526
  925YOPE   GL213590  13.457  14.165   5.537  0.2170  0.0860  0.0407
  925YOPE   C1A13591  13.085  14.499   5.773 -0.0199 -0.3255  0.0994
  925YOPE   D2A13592  13.195  14.653   6.084 -0.2115 -0.2014  0.1749
  925YOPE   C3A13593  12.990  14.649   6.466 -0.0876 -0.2901  0.1699
  925YOPE   C4A13594  12.664  14.931   6.430  0.0427 -0.0005 -0.3098
  925YOPE   C1B13595  13.296  13.986   5.856  0.3435 -0.3552  0.1597
  925YOPE   C2B13596  13.087  14.169   6.291 -0.1653 -0.2976 -0.0985
  925YOPE   D3B13597  12.988  14.115   6.638  0.1371 -0.1284  0.0330
  925YOPE   C4B13598  12.961  14.111   7.144 -0.1256  0.1402 -0.0931
  926YOPE   NH313599  14.904  15.124   5.310  0.2030 -0.0787 -0.1501
  926YOPE   PO413600  14.639  14.693   5.487  0.0764 -0.0952 -0.1965
  926YOPE   GL113601  14.503  14.490   5.805 -0.0250 -0.1963  0.0864
  926YOPE   GL213602  14.206  14.776   5.844  0.2660  0.0761  0.2471
  926YOPE   C1A13603  14.391  14.454   6.181 -0.2199  0.3288  0.3711
  926YOPE   D2A13604  14.348  14.317   6.670  0.1146 -0.2269 -0.0024
  926YOPE   C3A13605  14.023  14.336   6.904 -0.0702  0.0866 -0.4408
  926YOPE   C4A13606  13.795  14.522   7.328 -0.0959 -0.4821  0.0306
  926YOPE   C1B13607  14.053  14.747   6.372 -0.0882  0.0806 -0.1510
  926YOPE   C2B13608  13.821  14.971   6.819 -0.0975  0.0936 -0.2695
  926YOPE   D3B13609  13.850  15.013   7.267  0.1057 -0.0043 -0.2577
  926YOPE   C4B13610  13.785  15.252   7.654 -0.1736 -0.0276  0.5111
  927YOPE   NH313611  17.138   7.346   5.522 -0.3813  0.1970  0.2413
  927YOPE   PO413612  16.746   7.369   5.539  0.1225 -0.1083  0.2314
  927YOPE   GL113613  16.818   7.450   5.890  0.0252  0.0256  0.0388
  927YOPE   GL213614  16.605   7.672   5.932  0.0177 -0.1495 -0.0421
  927YOPE   C1A13615  17.001   7.437   6.288 -0.1582  0.0597  0.1857
  927YOPE   D2A13616  17.146   7.584   6.604 -0.1403 -0.0537  0.0995
  927YOPE   C3A13617  17.160   7.401   7.006  0.4653  0.2078  0.1385
  927YOPE   C4A13618  17.285   7.315   7.405  0.2905 -0.1042 -0.2453
  927YOPE   C1B13619  16.503   7.306   6.236  0.1003  0.0150 -0.0074
  927YOPE   C2B13620  16.183   7.332   6.663 -0.0094 -0.1764 -0.1558
  927YOPE   D3B13621  16.143   7.505   7.023  0.0416  0.0579  0.0188
  927YOPE   C4B13622  16.281   7.300   7.488 -0.2575 -0.0483  0.5333
  928YOPE   NH313623   1.088  12.818   4.845 -0.2644  0.2730 -0.1999
  928YOPE   PO413624   1.448  13.022   4.718  0.2461 -0.1937 -0.0361
  928YOPE   GL113625   1.505  12.915   5.147 -0.0779 -0.2719 -0.3306
  928YOPE   GL213626   1.205  12.856   5.341 -0.2051 -0.3101 -0.0328
  928YOPE   C1A13627   1.652  13.028   5.524  0.0240  0.0964 -0.2812
  928YOPE   D2A13628   1.639  13.244   5.960 -0.1055 -0.3084  0.2590
  928YOPE   C3A13629   1.407  13.430   6.312 -0.2159  0.1976 -0.2057
  928YOPE   C4A13630   1.229  13.646   6.638  0.0398  0.3529 -0.0942
  928YOPE   C1B13631   0.976  13.074   5.682  0.1137 -0.2373 -0.0036
  928YOPE   C2B13632   1.059  13.192   6.125 -0.1421 -0.2517  0.2154
  928YOPE   D3B13633   1.141  13.148   6.597 -0.1829  0.2315 -0.1910
  928YOPE   C4B13634   0.892  12.893   6.860  0.0230  0.1925 -0.0110
  929YOPE   NH313635  12.060   5.199   5.148 -0.3754  0.2243 -0.3167
  929YOPE   PO413636  12.026   4.892   5.419 -0.0903  0.1438 -0.1076
  929YOPE   GL113637  12.215   4.896   5.742 -0.1250  0.0772 -0.1286
  929YOPE   GL213638  11.890   4.927   5.916 -0.3339  0.0300  0.2152
  929YOPE   C1A13639  12.417   5.137   6.072  0.3296  0.1278 -0.2288
  929YOPE   D2A13640  12.509   5.072   6.526 -0.0857  0.2353  0.1165
  929YOPE   C3A13641  12.521   5.331   6.818  0.2782 -0.2154 -0.0346
  929YOPE   C4A13642  12.531   5.425   7.234 -0.0070 -0.2963 -0.0858
  929YOPE   C1B13643  12.113   4.839   6.336  0.2064 -0.0064  0.1524
  929YOPE   C2B13644  12.280   4.656   6.544 -0.2994  0.0562 -0.4624
  929YOPE   D3B13645  12.788   4.522   6.770  0.1073 -0.1865 -0.3072
  929YOPE   C4B13646  13.177   4.264   6.673  0.3067 -0.2077 -0.1653
  930YOPE   NH313647  16.880  15.752   5.598 -0.0366  0.0647  0.0520
  930YOPE   PO413648  17.164  16.051   5.374 -0.0002  0.2435 -0.0308
  930YOPE   GL113649  17.086  16.210   5.740  0.3368 -0.1108  0.1846
  930YOPE   GL213650  16.779  16.376   5.712  0.0680  0.0638 -0.1249
  930YOPE   C1A13651  17.262  16.277   6.187  0.1159 -0.2780  0.0633
  930YOPE   D2A13652  17.359  16.188   6.632  0.2384 -0.0099  0.2280
  930YOPE   C3A13653  17.794  16.256   6.808  0.2229  0.0025 -0.0995
  930YOPE   C4A13654  17.782  16.412   7.190 -0.3557 -0.2429 -0.0683
  930YOPE   C1B13655  16.860  16.658   6.016 -0.2397  0.0832  0.0913
  930YOPE   C2B13656  17.257  16.883   6.114  0.3758  0.2147 -0.0843
  930YOPE   D3B13657  17.573  17.100   6.279 -0.3158 -0.0420 -0.4466
  930YOPE   C4B13658  17.691  17.390   6.428 -0.0901  0.2418 -0.0158
  931YOPE   NH313659   3.451  13.661   4.837  0.1113 -0.1186 -0.2853
  931YOPE   PO413660   3.135  13.265   4.853 -0.0174  0.1051 -0.1370
  931YOPE   GL113661   3.354  13.418   5.278  0.7032  0.1968  0.2539
  931YOPE   GL213662   3.504  13.736   5.356 -0.1386  0.0721 -0.3482
  931YOPE   C1A13663   3.139  13.609   5.676  0.1455 -0.0967  0.0970
  931YOPE   D2A13664   2.835  13.620   5.992  0.0582  0.0596  0.0707
  931YOPE   C3A13665   2.572  13.227   6.036 -0.3614  0.1983  0.1656
  931YOPE   C4A13666   2.556  12.849   6.046 -0.2399 -0.4076  0.1027
  931YOPE   C1B13667   3.651  13.555   5.761  0.1418  0.3430  0.1340
  931YOPE   C2B13668   3.991  13.498   6.090  0.1895  0.0599 -0.0118
  931YOPE   D3B13669   4.184  13.315   6.491  0.0227  0.2862 -0.2715
  931YOPE   C4B13670   4.547  13.329   6.863  0.1084  0.1576 -0.0730
  932YOPE   NH313671  10.816   1.191   5.216  0.0900 -0.0854  0.0216
  932YOPE   PO413672  10.786   1.632   5.265 -0.0367 -0.2522 -0.0479
  932YOPE   GL113673  10.715   1.507   5.653 -0.0586  0.0607 -0.1019
  932YOPE   GL213674  10.367   1.781   5.738  0.2409  0.0547 -0.2326
  932YOPE   C1A13675  10.658   1.368   6.017 -0.0413 -0.1141 -0.1466
  932YOPE   D2A13676  10.737   1.265   6.461 -0.1801 -0.1110 -0.0803
  932YOPE   C3A13677  10.512   1.063   6.690  0.1168 -0.1297 -0.1926
  932YOPE   C4A13678  10.471   0.617   6.761 -0.1414  0.2165  0.1079
  932YOPE   C1B13679  10.288   1.800   6.149 -0.3223 -0.0722  0.0936
  932YOPE   C2B13680  10.512   1.718   6.475 -0.2166  0.1560  0.1520
  932YOPE   D3B13681  10.563   1.546   6.871  0.0389 -0.2472  0.0742
  932YOPE   C4B13682  10.588   1.390   7.280 -0.1758 -0.6249  0.0871
  933YOPE   NH313683   2.457   7.851   5.392  0.1753  0.0681 -0.0123
  933YOPE   PO413684   2.385   7.383   5.374 -0.0545 -0.3215  0.0833
  933YOPE   GL113685   2.478   7.312   5.784  0.1151 -0.2441  0.0517
  933YOPE   GL213686   2.261   7.073   5.808 -0.0065 -0.2169 -0.0788
  933YOPE   C1A13687   2.577   7.157   6.231 -0.1753 -0.3202  0.1670
  933YOPE   D2A13688   2.758   6.951   6.600  0.2409 -0.1596  0.4014
  933YOPE   C3A13689   2.502   7.149   6.991  0.0212  0.2015  0.2197
  933YOPE   C4A13690   2.246   6.999   7.225 -0.2588  0.0959 -0.0612
  933YOPE   C1B13691   2.014   7.392   6.116 -0.1949  0.0425  0.1350
  933YOPE   C2B13692   1.727   7.482   6.375  0.2611  0.5461 -0.0414
  933YOPE   D3B13693   1.547   7.593   6.773  0.1403 -0.0489  0.0153
  933YOPE   C4B13694   1.579   7.541   7.268 -0.0182  0.0544 -0.3056
  934YOPE   NH313695  17.382   3.962   4.798 -0.1414 -0.0876  0.1893
  934YOPE   PO413696  17.812   4.034   4.727 -0.2090 -0.2085 -0.0408
  934YOPE   GL113697  17.943   4.070   5.220 -0.1668  0.1543  0.0937
  934YOPE   GL213698  17.825   4.329   5.382 -0.1386  0.3149 -0.1472
  934YOPE   C1A13699  18.177   4.000   5.630 -0.0752 -0.1930 -0.0125
  934YOPE   D2A13700  18.041   3.979   6.110 -0.0363  0.0860  0.0492
  934YOPE   C3A13701  18.318   4.266   6.337 -0.1043 -0.1077 -0.2464
  934YOPE   C4A13702  18.177   4.684   6.217  0.1652  0.2333 -0.0061
  934YOPE   C1B13703  17.831   4.298   5.817 -0.0333  0.1413  0.0237
  934YOPE   C2B13704  17.777   4.381   6.269 -0.2443 -0.0525 -0.1725
  934YOPE   D3B13705  17.830   4.479   6.700 -0.2255 -0.0794  0.0493
  934YOPE   C4B13706  18.119   4.270   6.921  0.0710 -0.1267 -0.3165
  935YOPE   NH313707  14.018  14.134   5.207 -0.3004  0.2633  0.1120
  935YOPE   PO413708  13.928  13.704   5.179  0.1326  0.1696  0.2003
  935YOPE   GL113709  13.962  13.788   5.666 -0.2642 -0.3022 -0.1152
  935YOPE   GL213710  14.241  13.920   5.669 -0.1141  0.1026  0.0010
  935YOPE   C1A13711  13.748  13.711   6.060  0.0951  0.0451  0.1326
  935YOPE   D2A13712  13.612  13.815   6.407 -0.0967  0.2311 -0.0922
  935YOPE   C3A13713  13.749  13.674   6.750 -0.0463  0.0410  0.1234
  935YOPE   C4A13714  13.944  13.700   7.284 -0.1176  0.0473  0.0810
  935YOPE   C1B13715  14.328  14.009   6.039 -0.0178 -0.0315 -0.3177
  935YOPE   C2B13716  14.158  13.907   6.489 -0.2048 -0.0172  0.0857
  935YOPE   D3B13717  14.247  13.891   6.922 -0.1680  0.0162  0.1051
  935YOPE   C4B13718  14.247  14.149   7.324  0.2095  0.0225  0.1547
  936YOPE   NH313719  18.398  17.403   5.286  0.1824 -0.2087  0.0598
  936YOPE   PO413720  18.831  17.248   5.444  0.0089  0.1363 -0.0674
  936YOPE   GL113721  18.552  17.296   5.745 -0.0580  0.1775 -0.3546
  936YOPE   GL213722  18.213  17.093   5.686  0.2921  0.0434  0.3126
  936YOPE   C1A13723  18.494  17.402   6.118  0.2184 -0.1218  0.2736
  936YOPE   D2A13724  18.694  17.600   6.498 -0.1062 -0.3000  0.0212
  936YOPE   C3A13725  18.836  17.385   6.922  0.0711  0.2489 -0.0740
  936YOPE   C4A13726  18.648  17.310   7.262 -0.0359 -0.1838 -0.1888
  936YOPE   C1B13727  18.022  17.305   6.047 -0.2165  0.1456 -0.1863
  936YOPE   C2B13728  18.168  17.494   6.509  0.2917 -0.1540  0.0539
  936YOPE   D3B13729  18.167  17.275   6.886 -0.4534  0.1315 -0.2240
  936YOPE   C4B13730  18.075  17.325   7.258  0.2590 -0.0488  0.2491
  937YOPE   NH313731  12.099   5.703   4.656  0.0876 -0.0031 -0.0536
  937YOPE   PO413732  12.405   5.440   4.866  0.0384  0.0117  0.0472
  937YOPE   GL113733  12.536   5.311   5.314  0.2080  0.0804 -0.0324
  937YOPE   GL213734  12.302   5.452   5.518 -0.0403  0.0705  0.0968
  937YOPE   C1A13735  12.680   5.201   5.689 -0.0894  0.1566 -0.4936
  937YOPE   D2A13736  13.043   5.210   5.956 -0.0149  0.0397  0.1971
  937YOPE   C3A13737  13.304   5.297   6.285 -0.1469 -0.1982 -0.1380
  937YOPE   C4A13738  13.217   5.757   6.499 -0.1356  0.2374 -0.1683
  937YOPE   C1B13739  12.544   5.676   5.772  0.2675  0.2760 -0.0826
  937YOPE   C2B13740  12.911   5.640   6.095  0.2813 -0.2989 -0.1953
  937YOPE   D3B13741  12.882   5.394   6.480  0.3323  0.1529  0.2836
  937YOPE   C4B13742  13.055   5.138   6.801 -0.0972  0.0379 -0.0963
  938YOPE   NH313743  19.498   9.081   5.362  0.2940  0.0664 -0.1664
  938YOPE   PO413744  19.094   8.806   5.443 -0.2285 -0.1791  0.0688
  938YOPE   GL113745  19.408   8.885   5.827 -0.0973  0.1419 -0.0088
  938YOPE   GL213746  19.679   8.840   5.753 -0.0387  0.2735 -0.0434
  938YOPE   C1A13747  19.500   8.806   6.247  0.2762  0.1517 -0.2763
  938YOPE   D2A13748  19.420   8.667   6.675  0.3073 -0.0916  0.0570
  938YOPE   C3A13749  19.082   8.363   6.718 -0.2050 -0.1954 -0.0608
  938YOPE   C4A13750  18.980   8.040   6.586 -0.1784 -0.2049  0.0825
  938YOPE   C1B13751  19.918   8.612   6.171 -0.0757 -0.0275 -0.0388
  938YOPE   C2B13752  19.960   8.609   6.595 -0.1439  0.0471  0.1644
  938YOPE   D3B13753  20.217   8.304   6.819 -0.2185 -0.2472 -0.5492
  938YOPE   C4B13754  20.595   8.339   7.039  0.1999 -0.0622  0.0105
  939YOPE   NH313755  13.054   0.698   5.303 -0.0585  0.0758  0.0468
  939YOPE   PO413756  13.318   0.442   5.405  0.1328 -0.0872  0.1531
  939YOPE   GL113757  13.290   0.352   5.809  0.3181 -0.0375 -0.2867
  939YOPE   GL213758  13.149   0.646   5.818 -0.1034 -0.1076 -0.0992
  939YOPE   C1A13759  13.556   0.174   6.200 -0.3273  0.0720  0.0119
  939YOPE   D2A13760  14.084   0.175   6.192  0.1737 -0.3126 -0.0161
  939YOPE   C3A13761  14.308   0.068   6.466 -0.1918  0.0552 -0.0356
  939YOPE   C4A13762  14.278  -0.068   6.770  0.2028 -0.4368 -0.1085
  939YOPE   C1B13763  13.205   0.681   6.219  0.0461 -0.1715  0.2167
  939YOPE   C2B13764  13.460   0.517   6.569 -0.1246  0.1773  0.1079
  939YOPE   D3B13765  13.251   0.439   7.064 -0.3844 -0.0797  0.1157
  939YOPE   C4B13766  13.249   0.301   7.327  0.2060  0.0226  0.3875
  940YOPE   NH313767   0.198  12.834   5.111 -0.2776 -0.1361  0.0123
  940YOPE   PO413768   0.309  13.276   5.103 -0.3424  0.0031 -0.1097
  940YOPE   GL113769  -0.033  13.280   5.350 -0.0339  0.3030  0.1092
  940YOPE   GL213770   0.107  13.170   5.676  0.1934 -0.1268 -0.0018
  940YOPE   C1A13771  -0.485  13.097   5.483  0.0127 -0.0698 -0.3480
  940YOPE   D2A13772  -0.738  12.958   5.980 -0.1812 -0.1228 -0.3033
  940YOPE   C3A13773  -0.575  12.913   6.431 -0.1800  0.2370 -0.0881
  940YOPE   C4A13774  -0.421  13.172   6.853  0.2643 -0.5161  0.1569
  940YOPE   C1B13775   0.120  13.316   6.175 -0.0419  0.0417 -0.0805
  940YOPE   C2B13776   0.324  13.053   6.414 -0.0735 -0.3286  0.1120
  940YOPE   D3B13777   0.478  13.225   6.685 -0.1112 -0.2427  0.0845
  940YOPE   C4B13778   0.789  13.469   6.791 -0.4425 -0.2579 -0.0128
  941POPC   NC313779  18.374   9.980   5.475 -0.2320 -0.1701  0.4028
  941POPC   PO413780  18.770  10.210   5.447  0.1046  0.0658 -0.1089
  941POPC   GL113781  19.011   9.940   5.830 -0.4454 -0.1631  0.2361
  941POPC   GL213782  19.327   9.831   5.810 -0.4422  0.0719  0.0438
  941POPC   C1A13783  18.776   9.710   6.195  0.1198  0.0558  0.0273
  941POPC   D2A13784  18.831   9.752   6.624  0.2087  0.0179  0.2066
  941POPC   C3A13785  19.055  10.022   6.853  0.2769 -0.1654 -0.1958
  941POPC   C4A13786  18.830  10.363   7.114  0.0946  0.2132 -0.2321
  941POPC   C1B13787  19.681   9.875   6.083  0.1484  0.0199 -0.0544
  941POPC   C2B13788  19.882  10.003   6.454 -0.1938 -0.0669 -0.0615
  941POPC   C3B13789  19.813  10.154   6.902 -0.0544  0.2072 -0.1237
  941POPC   C4B13790  20.008  10.199   7.381 -0.2548 -0.2366  0.1218
  942POPC   NC313791   8.261  14.936   5.032  0.2163  0.1231 -0.0387
  942POPC   PO413792   7.823  15.158   5.111 -0.0176 -0.2400 -0.0882
  942POPC   GL113793   7.893  14.998   5.510  0.1039 -0.1457  0.2216
  942POPC   GL213794   7.599  14.889   5.645  0.3187  0.2174 -0.0411
  942POPC   C1A13795   8.004  14.796   5.947  0.0558  0.1990 -0.0607
  942POPC   D2A13796   7.719  14.770   6.257 -0.1331 -0.1250  0.4130
  942POPC   C3A13797   7.842  14.656   6.718 -0.1181  0.0276 -0.0844
  942POPC   C4A13798   7.712  14.155   6.800  0.1581 -0.1129 -0.1302
  942POPC   C1B13799   7.632  15.165   5.947 -0.0668  0.1632 -0.1245
  942POPC   C2B13800   7.670  15.304   6.382 -0.0551  0.0352 -0.1414
  942POPC   C3B13801   7.714  15.585   6.714  0.1651 -0.2702 -0.0682
  942POPC   C4B13802   7.971  15.936   6.948 -0.3802  0.2108 -0.1829
  943POPC   NC313803   8.691   8.717   5.591 -0.0686 -0.0880  0.0029
  943POPC   PO413804   8.294   8.614   5.411  0.3851 -0.1375  0.0841
  943POPC   GL113805   7.844   8.502   5.628  0.0292 -0.2485  0.3389
  943POPC   GL213806   7.567   8.712   5.521  0.1657  0.0083  0.1052
  943POPC   C1A13807   7.729   8.660   6.041 -0.1180 -0.0498  0.3713
  943POPC   D2A13808   7.764   8.573   6.342  0.0202 -0.1151  0.1688
  943POPC   C3A13809   7.499   8.399   6.586  0.2505 -0.2040 -0.0334
  943POPC   C4A13810   7.428   8.247   6.984 -0.3596  0.2286 -0.0034
  943POPC   C1B13811   7.235   8.605   5.813  0.0595 -0.0759  0.0107
  943POPC   C2B13812   7.171   8.615   6.292  0.1297  0.1927 -0.1240
  943POPC   C3B13813   7.003   8.691   6.676 -0.0691  0.0069 -0.1554
  943POPC   C4B13814   6.480   8.725   6.800  0.0939  0.0922  0.0186
  944POPC   NC313815   8.649   5.352   5.338  0.1275 -0.0351 -0.0181
  944POPC   PO413816   8.793   5.745   5.195 -0.2286 -0.0452 -0.2309
  944POPC   GL113817   8.645   5.856   5.630 -0.3154  0.0027  0.1137
  944POPC   GL213818   8.354   6.084   5.682  0.1317  0.0642 -0.1627
  944POPC   C1A13819   8.854   5.803   6.100 -0.0788 -0.2228  0.1809
  944POPC   D2A13820   8.801   5.914   6.537  0.0190 -0.4487  0.0987
  944POPC   C3A13821   8.863   5.775   6.870 -0.0106 -0.3435 -0.1016
  944POPC   C4A13822   9.045   6.005   7.193  0.2461  0.0458  0.0131
  944POPC   C1B13823   8.370   5.800   6.078  0.1021  0.0333 -0.0677
  944POPC   C2B13824   8.299   5.798   6.542  0.0391 -0.2556 -0.2941
  944POPC   C3B13825   8.231   6.053   7.000  0.0438 -0.2127  0.1195
  944POPC   C4B13826   8.315   6.372   7.375 -0.0981  0.1879  0.0138
  945POPC   NC313827   9.138  11.743   5.428 -0.1550 -0.1399 -0.0379
  945POPC   PO413828   9.428  11.666   5.769  0.0075 -0.0467  0.2587
  945POPC   GL113829   9.140  11.620   6.020  0.4099  0.3452 -0.0505
  945POPC   GL213830   9.333  11.608   6.293 -0.3891 -0.3024  0.1057
  945POPC   C1A13831   8.748  11.679   6.254 -0.0222 -0.3129  0.2469
  945POPC   D2A13832   8.544  11.584   6.656 -0.1729 -0.2033 -0.2705
  945POPC   C3A13833   8.169  11.400   6.901 -0.0128 -0.0552  0.0186
  945POPC   C4A13834   7.778  11.720   6.900 -0.0808  0.0805 -0.2163
  945POPC   C1B13835   9.060  11.401   6.533 -0.6143  0.0571 -0.0202
  945POPC   C2B13836   9.159  11.206   6.907 -0.1729  0.2474  0.0497
  945POPC   C3B13837   9.410  10.800   6.802  0.0326 -0.2034 -0.0893
  945POPC   C4B13838   9.489  10.330   6.796 -0.1822  0.0257 -0.3315
  946POPC   NC313839   9.982  17.941   5.127 -0.0980  0.3701 -0.3679
  946POPC   PO413840  10.293  17.892   5.538 -0.0438  0.2162  0.3076
  946POPC   GL113841  10.635  17.748   5.894 -0.1019 -0.0655  0.2187
  946POPC   GL213842  10.412  17.470   6.017 -0.0014 -0.1262  0.1218
  946POPC   C1A13843  11.040  17.688   6.151 -0.2464 -0.0222  0.1843
  946POPC   D2A13844  11.094  17.530   6.514  0.1028 -0.0945 -0.2727
  946POPC   C3A13845  11.589  17.638   6.589  0.0365  0.0867 -0.1019
  946POPC   C4A13846  12.069  17.815   6.938  0.0609  0.1833  0.2290
  946POPC   C1B13847  10.566  17.774   6.407 -0.5100 -0.1724  0.0210
  946POPC   C2B13848  10.731  17.625   6.816 -0.1655  0.5702 -0.1714
  946POPC   C3B13849  10.666  17.772   7.090  0.0606 -0.0010  0.2889
  946POPC   C4B13850  10.370  17.596   7.462  0.1526  0.3794  0.4139
  947POPC   NC313851  15.631  17.923   5.066 -0.1296 -0.2101 -0.0565
  947POPC   PO413852  15.705  18.386   4.983 -0.0954 -0.1609  0.1318
  947POPC   GL113853  15.750  18.406   5.329 -0.1040 -0.0293  0.2739
  947POPC   GL213854  15.530  18.226   5.480 -0.1211  0.2546 -0.1425
  947POPC   C1A13855  15.704  18.730   5.590  0.1312  0.2940  0.0909
  947POPC   D2A13856  15.540  19.167   5.890  0.1197  0.4537  0.0507
  947POPC   C3A13857  15.789  19.397   6.312  0.2790 -0.0967 -0.0705
  947POPC   C4A13858  15.702  19.814   6.594 -0.0854 -0.0908  0.0322
  947POPC   C1B13859  15.142  18.147   5.745 -0.0495  0.0082 -0.0576
  947POPC   C2B13860  15.048  18.335   6.155 -0.2260  0.1063  0.0843
  947POPC   C3B13861  15.100  18.216   6.665  0.0210  0.1168 -0.0887
  947POPC   C4B13862  14.941  18.098   7.019  0.0618 -0.1085 -0.0499
  948POPC   NC313863  16.979   2.556   5.259  0.0001  0.3397 -0.2688
  948POPC   PO413864  16.669   2.840   5.143 -0.0719 -0.0357 -0.1185
  948POPC   GL113865  16.756   2.782   5.617  0.1378 -0.3265  0.1249
  948POPC   GL213866  16.725   2.418   5.696 -0.0579 -0.0736  0.1259
  948POPC   C1A13867  17.163   2.832   5.834  0.1393 -0.2247  0.0270
  948POPC   D2A13868  17.266   2.726   6.232 -0.1337  0.1118  0.0735
  948POPC   C3A13869  16.774   2.624   6.231  0.0097 -0.0446  0.1147
  948POPC   C4A13870  16.472   2.360   6.139  0.0843 -0.1547 -0.1272
  948POPC   C1B13871  16.977   2.257   5.994 -0.0989 -0.1383  0.3241
  948POPC   C2B13872  17.061   2.230   6.436 -0.1983  0.1583  0.0571
  948POPC   C3B13873  17.353   2.492   6.688 -0.1220 -0.0966  0.0339
  948POPC   C4B13874  17.616   2.814   6.628  0.0064 -0.1264  0.0436
  949POPC   NC313875   2.189   1.173   4.964  0.2726  0.0930 -0.1615
  949POPC   PO413876   2.178   1.601   5.015  0.1305 -0.0394 -0.0181
  949POPC   GL113877   2.167   1.393   5.409  0.1738  0.0062  0.2914
  949POPC   GL213878   2.372   1.278   5.565  0.0709  0.0688 -0.0341
  949POPC   C1A13879   1.994   1.246   5.822  0.2072  0.0850  0.3031
  949POPC   D2A13880   1.883   1.054   6.248  0.0624  0.0096 -0.0080
  949POPC   C3A13881   2.039   1.374   6.525 -0.1194 -0.1195 -0.0936
  949POPC   C4A13882   2.501   1.543   6.689  0.0984 -0.0332 -0.0899
  949POPC   C1B13883   2.699   1.315   5.832 -0.4690  0.0623 -0.0282
  949POPC   C2B13884   3.016   1.258   6.209  0.1806 -0.2261 -0.3498
  949POPC   C3B13885   3.424   1.494   6.337 -0.2256  0.2305  0.1605
  949POPC   C4B13886   3.633   1.690   6.687 -0.1099  0.0913  0.0179
  950POPC   NC313887  15.490  11.026   5.127 -0.2402  0.3200 -0.1253
  950POPC   PO413888  15.789  11.278   5.332  0.4072 -0.1960 -0.1217
  950POPC   GL113889  15.892  11.435   5.664  0.0925 -0.2922 -0.0058
  950POPC   GL213890  15.661  11.686   5.732 -0.4288 -0.2336  0.1253
  950POPC   C1A13891  15.722  11.353   6.085  0.3274 -0.0322 -0.0502
  950POPC   D2A13892  15.525  11.340   6.486  0.3077  0.2034  0.1690
  950POPC   C3A13893  15.585  11.441   6.918  0.0999 -0.1921 -0.0633
  950POPC   C4A13894  15.416  11.338   7.313 -0.0789 -0.2638 -0.2440
  950POPC   C1B13895  15.399  11.690   5.941 -0.1036  0.0139  0.0176
  950POPC   C2B13896  15.398  11.835   6.293 -0.1803 -0.2002 -0.0803
  950POPC   C3B13897  15.218  11.661   6.674 -0.0512 -0.0714 -0.2670
  950POPC   C4B13898  15.037  11.468   6.985  0.0867 -0.1339 -0.0010
  951POPC   NC313899  18.264  14.271   4.730  0.1318  0.1529  0.0444
  951POPC   PO413900  18.770  14.314   4.889 -0.1713  0.0214  0.0900
  951POPC   GL113901  18.720  14.367   5.398 -0.0599  0.0470  0.1393
  951POPC   GL213902  19.015  14.486   5.548  0.2249  0.3144 -0.1195
  951POPC   C1A13903  18.743  14.399   5.895 -0.1553 -0.2026  0.4049
  951POPC   D2A13904  18.626  14.287   6.336 -0.1572  0.0859 -0.0118
  951POPC   C3A13905  18.537  14.693   6.480  0.0635  0.0190 -0.1042
  951POPC   C4A13906  18.553  15.086   6.551 -0.1280  0.0730  0.0222
  951POPC   C1B13907  19.302  14.385   5.850  0.0140  0.0103 -0.1054
  951POPC   C2B13908  19.499  14.503   6.312 -0.0293  0.1604 -0.4288
  951POPC   C3B13909  19.623  14.263   6.736  0.0665 -0.0770  0.0386
  951POPC   C4B13910  19.222  14.262   7.000 -0.0893  0.0543  0.0111
  952POPC   NC313911  10.648  13.910   4.800  0.2675  0.1572  0.0271
  952POPC   PO413912  10.650  13.866   5.272 -0.0063  0.0938 -0.2949
  952POPC   GL113913  10.415  13.969   5.586  0.2056 -0.0270  0.0980
  952POPC   GL213914  10.058  13.723   5.623 -0.0386 -0.4786  0.0755
  952POPC   C1A13915  10.163  14.015   6.019  0.1079  0.0749 -0.1783
  952POPC   D2A13916  10.191  13.941   6.395 -0.1460 -0.1114 -0.3222
  952POPC   C3A13917  10.652  13.839   6.536 -0.4913  0.1493 -0.0231
  952POPC   C4A13918  10.884  13.776   6.891  0.2863  0.0643  0.1267
  952POPC   C1B13919   9.754  14.097   5.734  0.0584  0.0750 -0.1518
  952POPC   C2B13920   9.463  14.419   5.725  0.3746  0.1421  0.0346
  952POPC   C3B13921   9.457  14.848   5.791 -0.2911  0.2760  0.1009
  952POPC   C4B13922   9.179  15.184   6.040  0.1612  0.1335 -0.2732
  953POPC   NC313923   4.070   7.069   5.088  0.3227 -0.1291 -0.0714
  953POPC   PO413924   4.098   7.492   5.039  0.0252  0.0470 -0.0617
  953POPC   GL113925   4.259   7.450   5.525  0.1935  0.0384  0.0249
  953POPC   GL213926   4.208   7.137   5.674 -0.1208 -0.2794  0.2581
  953POPC   C1A13927   4.302   7.525   5.993 -0.0417 -0.0961  0.4278
  953POPC   D2A13928   4.421   7.725   6.300 -0.0819  0.2383 -0.1143
  953POPC   C3A13929   4.232   7.530   6.591 -0.2754 -0.0518 -0.1417
  953POPC   C4A13930   4.025   7.334   6.369  0.0994  0.2401 -0.1652
  953POPC   C1B13931   3.883   7.300   5.940 -0.2068  0.1978 -0.1950
  953POPC   C2B13932   3.665   6.939   6.123  0.1023  0.1952 -0.1373
  953POPC   C3B13933   3.416   6.553   5.997 -0.3006 -0.0322 -0.1197
  953POPC   C4B13934   3.205   6.181   6.149  0.0692 -0.2692 -0.0023
  954POPC   NC313935  18.560  19.303   5.187 -0.0311  0.1714  0.0461
  954POPC   PO413936  18.229  19.531   5.183 -0.1431 -0.1501  0.2616
  954POPC   GL113937  18.376  19.661   5.552  0.3146  0.2470 -0.3780
  954POPC   GL213938  18.476  19.419   5.702 -0.1707 -0.1758  0.1345
  954POPC   C1A13939  18.110  19.652   5.985  0.0685  0.1691 -0.4543
  954POPC   D2A13940  18.003  19.395   6.310 -0.2994 -0.0441 -0.0122
  954POPC   C3A13941  18.124  18.946   6.354 -0.0845 -0.0088 -0.3128
  954POPC   C4A13942  18.211  18.745   6.771  0.3091 -0.1597 -0.1273
  954POPC   C1B13943  18.660  19.747   5.999 -0.0708 -0.1998 -0.0445
  954POPC   C2B13944  18.451  20.041   6.068 -0.0312 -0.2802  0.0537
  954POPC   C3B13945  18.469  20.170   6.448  0.1307  0.2379 -0.2282
  954POPC   C4B13946  18.603  20.548   6.673 -0.2555  0.1766 -0.0138
  955POPC   NC313947  12.200  18.052   4.685  0.1783 -0.2001 -0.2185
  955POPC   PO413948  12.312  18.180   5.044  0.0552  0.0300 -0.1826
  955POPC   GL113949  12.358  18.315   5.406 -0.0009 -0.2907  0.1097
  955POPC   GL213950  12.315  17.984   5.586 -0.1544 -0.1814 -0.4159
  955POPC   C1A13951  12.289  18.425   5.814  0.1046  0.0978  0.2455
  955POPC   D2A13952  12.145  18.844   5.991  0.1804  0.1997  0.1908
  955POPC   C3A13953  12.190  18.753   6.482  0.0319  0.2146  0.3290
  955POPC   C4A13954  12.133  18.714   6.871 -0.0572 -0.0940  0.1739
  955POPC   C1B13955  12.073  17.940   5.929 -0.0561 -0.0655  0.1508
  955POPC   C2B13956  11.855  18.033   6.415 -0.1108 -0.2043 -0.2296
  955POPC   C3B13957  11.823  18.345   6.736  0.2803 -0.2497  0.0781
  955POPC   C4B13958  12.017  18.337   7.188 -0.1526  0.1324 -0.4232
  956POPC   NC313959   9.065  18.869   4.774 -0.1036  0.1912  0.3307
  956POPC   PO413960   8.947  18.764   5.224  0.2628  0.1063 -0.0774
  956POPC   GL113961   8.967  18.880   5.569  0.1956 -0.1031 -0.3870
  956POPC   GL213962   9.233  18.611   5.670  0.3147 -0.1577  0.0515
  956POPC   C1A13963   8.947  18.945   5.946 -0.0878 -0.1348 -0.0619
  956POPC   D2A13964   8.820  18.931   6.274 -0.2012 -0.0126  0.3604
  956POPC   C3A13965   8.802  18.994   6.667  0.2334  0.3838 -0.0474
  956POPC   C4A13966   9.205  19.156   6.871 -0.3446 -0.3603 -0.2060
  956POPC   C1B13967   9.443  19.038   5.770 -0.5547  0.0378 -0.0446
  956POPC   C2B13968   9.788  19.200   5.896 -0.0001 -0.2888 -0.0335
  956POPC   C3B13969   9.798  19.306   6.340 -0.0096  0.1199  0.2689
  956POPC   C4B13970   9.817  19.400   6.672 -0.3686 -0.3409 -0.1616
  957POPC   NC313971  12.355   2.643   4.731 -0.0851  0.2109 -0.4719
  957POPC   PO413972  12.304   2.387   5.178 -0.0174  0.0586 -0.1468
  957POPC   GL113973  12.406   2.530   5.562  0.1794  0.0382 -0.0520
  957POPC   GL213974  12.114   2.556   5.761 -0.0882 -0.2915 -0.0770
  957POPC   C1A13975  12.609   2.342   5.924 -0.1868  0.2301  0.2599
  957POPC   D2A13976  12.789   2.108   6.233  0.0390 -0.1823  0.1862
  957POPC   C3A13977  13.087   1.952   6.228  0.2751 -0.2363 -0.1585
  957POPC   C4A13978  13.281   1.639   6.029  0.2532 -0.4682 -0.0612
  957POPC   C1B13979  12.497   2.844   5.926 -0.0974  0.2205 -0.1289
  957POPC   C2B13980  12.731   2.970   6.202  0.0782 -0.1858  0.2607
  957POPC   C3B13981  12.747   2.820   6.638 -0.1345 -0.2761  0.1566
  957POPC   C4B13982  12.821   2.858   7.058 -0.2319  0.1650  0.0453
  958POPC   NC313983  16.437  13.043   4.964  0.2609 -0.0447  0.1487
  958POPC   PO413984  16.515  12.702   5.175 -0.4208  0.1490 -0.2515
  958POPC   GL113985  16.300  13.035   5.437 -0.1353 -0.1389  0.3093
  958POPC   GL213986  16.165  13.261   5.366  0.2320  0.0433  0.1336
  958POPC   C1A13987  16.416  13.166   5.912  0.0010 -0.0231 -0.4475
  958POPC   D2A13988  16.609  13.186   6.187  0.1325  0.0055 -0.1198
  958POPC   C3A13989  16.520  13.135   6.523 -0.0308  0.1148  0.0626
  958POPC   C4A13990  16.342  13.076   6.845  0.0514 -0.0303  0.3275
  958POPC   C1B13991  16.185  13.561   5.712 -0.1721  0.0707 -0.4303
  958POPC   C2B13992  16.378  13.686   6.140  0.0150  0.1231 -0.0299
  958POPC   C3B13993  16.456  13.644   6.514 -0.3240 -0.0489 -0.0724
  958POPC   C4B13994  16.356  13.863   6.930  0.2173 -0.2163 -0.1792
  959POPC   NC313995   9.374   4.577   5.209  0.0182 -0.0236  0.1011
  959POPC   PO413996   9.279   4.972   5.179 -0.1842  0.5380 -0.0642
  959POPC   GL113997   9.105   4.978   5.572 -0.2165  0.1495 -0.4195
  959POPC   GL213998   8.766   4.796   5.718  0.0087  0.1810  0.2949
  959POPC   C1A13999   9.290   5.075   5.987  0.0132  0.2694 -0.2703
  959POPC   D2A14000   9.344   4.915   6.510  0.1562 -0.0841 -0.2464
  959POPC   C3A14001   9.081   5.083   6.830  0.1477 -0.1381 -0.2500
  959POPC   C4A14002   8.900   5.001   7.177  0.1277 -0.3743  0.4051
  959POPC   C1B14003   8.733   4.420   5.978  0.0360 -0.0338  0.3377
  959POPC   C2B14004   8.759   4.268   6.402 -0.1652  0.0955  0.0063
  959POPC   C3B14005   8.840   4.133   6.854  0.2736  0.2865 -0.1525
  959POPC   C4B14006   8.975   4.122   7.279 -0.0283 -0.4973  0.1232
  960POPC   NC314007  16.267  10.590   5.556  0.0865 -0.1824 -0.2544
  960POPC   PO414008  15.965  10.897   5.688 -0.1103 -0.0832  0.0074
  960POPC   GL114009  16.011  10.915   6.064  0.3235  0.0052 -0.0146
  960POPC   GL214010  16.180  10.707   6.188  0.0794  0.0366 -0.0682
  960POPC   C1A14011  15.770  10.878   6.432  0.0361  0.0200 -0.1024
  960POPC   D2A14012  15.994  11.324   6.642 -0.2736  0.2170  0.2028
  960POPC   C3A14013  16.207  11.220   6.944  0.2050  0.0700 -0.0622
  960POPC   C4A14014  16.603  11.113   7.227 -0.1264 -0.0291  0.2920
  960POPC   C1B14015  16.168  10.770   6.702 -0.1663  0.1687  0.2274
  960POPC   C2B14016  16.221  10.661   7.185 -0.3937 -0.0796  0.0794
  960POPC   C3B14017  16.217  10.260   7.457 -0.3758  0.3564  0.0507
  960POPC   C4B14018  16.266   9.870   7.658 -0.0332  0.0237 -0.2101
  961POPC   NC314019  13.426  11.011   5.657 -0.3879 -0.0392  0.2995
  961POPC   PO414020  13.049  11.256   5.745 -0.1108  0.0293 -0.0271
  961POPC   GL114021  13.168  11.603   5.887 -0.0062  0.2887  0.4706
  961POPC   GL214022  13.508  11.522   5.987  0.2646  0.1601 -0.0577
  961POPC   C1A14023  13.123  11.839   6.207  0.0662  0.1825  0.0419
  961POPC   D2A14024  13.023  12.035   6.597  0.1051  0.1963 -0.0320
  961POPC   C3A14025  13.155  12.159   6.979  0.1084 -0.4048 -0.0760
  961POPC   C4A14026  13.330  12.443   7.346  0.0330 -0.1417 -0.1176
  961POPC   C1B14027  13.645  11.722   6.307  0.2182  0.2317 -0.0813
  961POPC   C2B14028  13.592  11.916   6.728  0.4036  0.1801  0.2867
  961POPC   C3B14029  13.674  12.044   7.095 -0.3254 -0.4186 -0.0586
  961POPC   C4B14030  13.879  11.889   7.430 -0.2232 -0.3077 -0.0342
  962POPC   NC314031   3.476  16.522   4.277 -0.0662  0.0150 -0.0846
  962POPC   PO414032   3.822  16.386   4.638  0.2022  0.0883 -0.0788
  962POPC   GL114033   4.014  16.240   5.110  0.0682 -0.0162  0.1244
  962POPC   GL214034   4.325  16.224   5.186  0.0232 -0.0985 -0.2606
  962POPC   C1A14035   3.886  16.214   5.493 -0.0150 -0.2375  0.0165
  962POPC   D2A14036   3.817  16.150   5.913 -0.1288  0.4417  0.0017
  962POPC   C3A14037   4.124  16.232   6.152 -0.1914  0.1690 -0.2402
  962POPC   C4A14038   4.424  16.506   6.309  0.3882 -0.0607 -0.2613
  962POPC   C1B14039   4.829  16.210   5.228 -0.0035 -0.3427  0.1110
  962POPC   C2B14040   5.071  15.987   5.610  0.0001 -0.2189  0.1346
  962POPC   C3B14041   5.167  16.110   6.032  0.0693  0.0707 -0.0924
  962POPC   C4B14042   5.299  16.437   6.403 -0.1685  0.0068 -0.0951
  963POPC   NC314043   3.634   5.637   4.749 -0.3254 -0.1399  0.1440
  963POPC   PO414044   3.234   5.899   4.956  0.0840  0.4197 -0.2173
  963POPC   GL114045   3.049   5.753   5.487 -0.2337  0.3391  0.0457
  963POPC   GL214046   3.030   5.361   5.511 -0.2395  0.1176  0.3140
  963POPC   C1A14047   3.304   5.745   5.912  0.1974 -0.2543 -0.1901
  963POPC   D2A14048   3.511   5.737   6.320  0.2002  0.0517  0.1160
  963POPC   C3A14049   3.458   6.014   6.617 -0.0420 -0.1272 -0.3169
  963POPC   C4A14050   3.389   6.277   7.000  0.0122 -0.1218 -0.2742
  963POPC   C1B14051   3.036   5.218   5.974  0.2818 -0.0313 -0.1741
  963POPC   C2B14052   3.205   5.332   6.389  0.1316  0.2882 -0.2336
  963POPC   C3B14053   3.456   5.491   6.735  0.2438 -0.2780 -0.0502
  963POPC   C4B14054   3.733   5.811   7.011  0.1303 -0.3142  0.1747
  964POPC   NC314055   1.082   3.802   5.176 -0.2167  0.1789 -0.0770
  964POPC   PO414056   0.768   4.081   5.091 -0.1283 -0.3678 -0.0390
  964POPC   GL114057   0.712   3.879   5.542  0.2432 -0.0454 -0.2523
  964POPC   GL214058   1.029   4.070   5.655  0.1735 -0.0270  0.1209
  964POPC   C1A14059   0.958   3.641   5.879 -0.0124 -0.2248 -0.3472
  964POPC   D2A14060   1.040   3.635   6.365  0.1317  0.0269  0.1049
  964POPC   C3A14061   0.921   3.992   6.479 -0.3377  0.0757 -0.0510
  964POPC   C4A14062   0.621   4.353   6.561  0.2125  0.0735  0.3813
  964POPC   C1B14063   0.844   4.123   5.972  0.0432 -0.0398 -0.2228
  964POPC   C2B14064   0.448   4.023   6.214  0.0556  0.1859 -0.0805
  964POPC   C3B14065   0.456   3.727   6.573 -0.1208 -0.4138  0.0992
  964POPC   C4B14066   0.309   3.448   6.844  0.2187 -0.0313  0.2187
  965POPC   NC314067  17.119   0.587   4.980  0.1561  0.3051  0.0017
  965POPC   PO414068  17.344   0.232   5.186 -0.3821  0.1715 -0.1035
  965POPC   GL114069  17.068   0.395   5.567  0.0907 -0.2853 -0.0165
  965POPC   GL214070  17.034   0.661   5.491 -0.0095 -0.2637 -0.1339
  965POPC   C1A14071  16.718   0.365   6.053  0.1136 -0.3413  0.1101
  965POPC   D2A14072  16.489   0.586   6.425  0.1596  0.0008 -0.0848
  965POPC   C3A14073  16.270   0.568   6.801  0.1394  0.2128  0.1135
  965POPC   C4A14074  15.871   0.632   6.869 -0.3774 -0.0025  0.0697
  965POPC   C1B14075  17.084   0.817   5.955 -0.2961 -0.2773  0.2935
  965POPC   C2B14076  16.969   0.757   6.408 -0.0288  0.2265  0.0772
  965POPC   C3B14077  16.913   0.717   6.862  0.0502 -0.4181  0.2027
  965POPC   C4B14078  16.663   0.403   7.016  0.2074  0.1600 -0.0962
  966POPC   NC314079   5.317  10.568   5.395 -0.1730 -0.0122 -0.0175
  966POPC   PO414080   5.696  10.669   5.279 -0.0367  0.0276  0.1515
  966POPC   GL114081   5.886  10.771   5.707  0.2653 -0.2113  0.0375
  966POPC   GL214082   6.008  10.449   5.850 -0.2323  0.1419  0.2330
  966POPC   C1A14083   6.026  10.881   6.117 -0.2014 -0.0436  0.3392
  966POPC   D2A14084   5.767  10.962   6.459 -0.1921 -0.0653  0.0416
  966POPC   C3A14085   5.398  11.199   6.354 -0.0843 -0.3243  0.3427
  966POPC   C4A14086   5.043  11.309   6.285 -0.3994 -0.2448  0.4267
  966POPC   C1B14087   6.343  10.397   6.087  0.0109 -0.1260 -0.3076
  966POPC   C2B14088   6.559  10.245   6.517 -0.1110  0.1243 -0.3491
  966POPC   C3B14089   6.481  10.334   7.007  0.2566 -0.2475  0.0540
  966POPC   C4B14090   6.376  10.381   7.396 -0.0381  0.0443 -0.0942
  967POPC   NC314091  16.333   2.582   5.422  0.0734 -0.2563  0.1835
  967POPC   PO414092  16.006   2.330   5.450  0.1982  0.1152 -0.2028
  967POPC   GL114093  16.159   2.120   5.788 -0.3024 -0.3585  0.2160
  967POPC   GL214094  16.474   1.973   5.848  0.1223  0.2598 -0.0595
  967POPC   C1A14095  16.106   2.008   6.275 -0.2321  0.4141  0.3551
  967POPC   D2A14096  16.039   1.897   6.694 -0.1570 -0.0176  0.1408
  967POPC   C3A14097  15.797   1.961   7.125 -0.0050 -0.3209  0.0823
  967POPC   C4A14098  15.442   1.813   7.188  0.0142  0.0885 -0.1251
  967POPC   C1B14099  16.631   1.900   6.137 -0.1832 -0.0376 -0.1344
  967POPC   C2B14100  16.616   1.930   6.565 -0.1368  0.1932  0.1676
  967POPC   C3B14101  16.402   2.321   6.664 -0.3497 -0.0515  0.2283
  967POPC   C4B14102  16.522   2.663   6.862  0.3380  0.2464  0.0154
  968POPC   NC314103   1.661  17.440   4.292 -0.3498  0.2209  0.2371
  968POPC   PO414104   1.570  17.204   4.607  0.1451 -0.1521 -0.0374
  968POPC   GL114105   1.406  17.302   4.983 -0.1126 -0.0175 -0.0854
  968POPC   GL214106   1.428  17.201   5.373 -0.1763 -0.3498  0.1037
  968POPC   C1A14107   1.258  17.661   5.271  0.2794 -0.1049 -0.0241
  968POPC   D2A14108   1.484  17.847   5.578 -0.1568 -0.0763 -0.1016
  968POPC   C3A14109   1.416  17.690   6.075 -0.2788 -0.2015 -0.0483
  968POPC   C4A14110   1.086  17.439   6.416  0.1369  0.3331 -0.0003
  968POPC   C1B14111   1.274  17.346   5.722 -0.4458  0.3516 -0.1951
  968POPC   C2B14112   1.458  17.184   6.175 -0.0987  0.3280  0.1114
  968POPC   C3B14113   1.385  17.030   6.565  0.1953  0.2547  0.1155
  968POPC   C4B14114   1.580  16.649   6.698  0.1409 -0.5471 -0.1084
  969POPC   NC314115   8.858  10.561   5.584  0.3571  0.2204 -0.0832
  969POPC   PO414116   8.711  10.917   5.658  0.2464  0.0348  0.4316
  969POPC   GL114117   8.763  10.894   6.075 -0.0525 -0.2676 -0.0140
  969POPC   GL214118   8.714  11.187   6.228  0.2645  0.2833  0.3056
  969POPC   C1A14119   8.961  10.759   6.462 -0.1563  0.0570  0.3414
  969POPC   D2A14120   8.860  10.646   6.815  0.2194 -0.2061  0.1978
  969POPC   C3A14121   8.437  10.584   6.892  0.3253 -0.3973 -0.0185
  969POPC   C4A14122   8.250  10.229   6.794 -0.1563 -0.1164  0.0233
  969POPC   C1B14123   8.658  11.105   6.695  0.2370 -0.2073  0.0985
  969POPC   C2B14124   8.686  10.975   7.194  0.2689  0.2000 -0.0460
  969POPC   C3B14125   8.576  10.643   7.352 -0.0638 -0.3048  0.1788
  969POPC   C4B14126   8.752  10.409   7.561 -0.1121 -0.0942 -0.1843
  970POPC   NC314127  12.786   7.834   5.926  0.0962 -0.0098 -0.1897
  970POPC   PO414128  12.374   7.658   5.898  0.0603  0.0545 -0.1000
  970POPC   GL114129  12.554   7.534   6.300  0.0057  0.0440  0.1088
  970POPC   GL214130  12.763   7.249   6.503 -0.1287 -0.0612  0.2311
  970POPC   C1A14131  12.593   7.695   6.702  0.1512  0.1585  0.1501
  970POPC   D2A14132  12.625   7.477   7.003 -0.0174 -0.1016  0.2742
  970POPC   C3A14133  12.341   7.497   7.454 -0.1933  0.0458  0.1341
  970POPC   C4A14134  12.382   7.768   7.772  0.0410 -0.1721 -0.0686
  970POPC   C1B14135  12.382   7.227   6.705  0.0827 -0.1502  0.2034
  970POPC   C2B14136  12.076   7.208   7.006  0.0111 -0.0271  0.2865
  970POPC   C3B14137  12.002   6.799   7.204  0.1997  0.0459 -0.0185
  970POPC   C4B14138  12.071   6.300   7.115 -0.0256 -0.2870  0.4368
  971POPC   NC314139  18.992   9.796   5.326 -0.1895 -0.3401  0.1763
  971POPC   PO414140  19.420   9.591   5.362  0.0022 -0.3348  0.0120
  971POPC   GL114141  19.718   9.429   5.731 -0.3806  0.1017 -0.1605
  971POPC   GL214142  20.013   9.509   5.907 -0.1615 -0.1098 -0.0371
  971POPC   C1A14143  19.669   9.275   6.166  0.0596  0.2060 -0.0517
  971POPC   D2A14144  19.716   9.074   6.609 -0.0808 -0.2558 -0.4278
  971POPC   C3A14145  19.834   8.949   6.966  0.1630 -0.0753 -0.0571
  971POPC   C4A14146  20.223   8.771   7.174  0.3377  0.2390 -0.2782
  971POPC   C1B14147  20.077   9.532   6.426  0.0464  0.6017  0.1346
  971POPC   C2B14148  19.894   9.537   6.795 -0.2241  0.1778 -0.0428
  971POPC   C3B14149  19.760   9.312   7.311 -0.1099  0.0067 -0.1753
  971POPC   C4B14150  19.484   9.144   7.498  0.0196  0.0119  0.0159
  972POPC   NC314151  14.250  16.004   4.636 -0.0261 -0.0699 -0.0585
  972POPC   PO414152  14.346  16.088   5.085  0.1040  0.2392 -0.1489
  972POPC   GL114153  14.193  16.375   5.494  0.2293 -0.1949  0.0149
  972POPC   GL214154  13.905  16.088   5.591  0.0785  0.0673 -0.0935
  972POPC   C1A14155  14.321  16.652   5.922  0.0995  0.4014 -0.2251
  972POPC   D2A14156  14.361  16.752   6.273 -0.0093  0.0515  0.5945
  972POPC   C3A14157  14.062  16.882   6.620  0.6730 -0.0955  0.2754
  972POPC   C4A14158  14.035  16.811   7.021 -0.0964 -0.0885  0.2652
  972POPC   C1B14159  13.464  16.105   5.794  0.2339  0.2097 -0.3559
  972POPC   C2B14160  13.278  15.991   6.185 -0.0069 -0.1814  0.0606
  972POPC   C3B14161  13.032  15.943   6.608  0.2266  0.0385 -0.3855
  972POPC   C4B14162  12.967  16.102   6.974  0.0721  0.2906  0.2150
  973POPC   NC314163  11.617  10.335   5.561  0.2679  0.0655  0.0738
  973POPC   PO414164  11.643  10.780   5.639 -0.4576  0.3441  0.0607
  973POPC   GL114165  11.425  11.007   6.090  0.1918 -0.2142  0.0948
  973POPC   GL214166  11.679  11.018   6.336 -0.1617  0.2595 -0.0032
  973POPC   C1A14167  10.993  10.857   6.305 -0.0374 -0.0491 -0.5414
  973POPC   D2A14168  10.643  11.119   6.302  0.0604 -0.0950  0.3772
  973POPC   C3A14169  10.536  11.163   6.743  0.0324  0.4176  0.2041
  973POPC   C4A14170  10.179  11.123   7.168  0.2163 -0.0482 -0.0656
  973POPC   C1B14171  11.399  10.944   6.701  0.2920 -0.1106  0.4688
  973POPC   C2B14172  11.007  11.105   6.839  0.1512  0.0615  0.3018
  973POPC   C3B14173  10.734  11.185   7.208 -0.2223 -0.0201  0.2382
  973POPC   C4B14174  10.460  11.099   7.550 -0.1716  0.0591  0.3233
  974POPC   NC314175  16.534  17.774   4.796  0.0270 -0.0018 -0.0218
  974POPC   PO414176  16.342  17.465   5.089  0.0585  0.0935  0.1524
  974POPC   GL114177  16.494  17.198   5.460 -0.1902 -0.3985  0.2276
  974POPC   GL214178  16.187  17.097   5.445 -0.1308  0.2067 -0.0382
  974POPC   C1A14179  16.643  17.183   5.969  0.1436 -0.4101  0.2131
  974POPC   D2A14180  16.542  17.273   6.414  0.3139 -0.0507  0.3549
  974POPC   C3A14181  16.346  16.909   6.721  0.2419  0.2446 -0.0087
  974POPC   C4A14182  16.434  16.457   6.827  0.0278  0.1475 -0.2093
  974POPC   C1B14183  16.091  17.290   5.902  0.0250 -0.4114  0.0002
  974POPC   C2B14184  16.077  17.288   6.286 -0.0862  0.0502 -0.2845
  974POPC   C3B14185  15.999  17.330   6.691  0.0463  0.1903  0.3503
  974POPC   C4B14186  15.749  17.417   7.137 -0.2631 -0.0398 -0.1166
  975POPC   NC314187   8.206   0.091   4.491 -0.3285 -0.2469 -0.1663
  975POPC   PO414188   8.410   0.204   4.953 -0.0984  0.1554 -0.1645
  975POPC   GL114189   8.523   0.519   5.257 -0.0982 -0.3588 -0.1230
  975POPC   GL214190   8.823   0.591   5.235  0.0425 -0.1721  0.1720
  975POPC   C1A14191   8.506   0.731   5.615 -0.3207 -0.1034 -0.1418
  975POPC   D2A14192   8.738   0.705   5.952  0.3936  0.0205  0.1081
  975POPC   C3A14193   8.646   0.804   6.363 -0.2367 -0.0798  0.3903
  975POPC   C4A14194   8.329   0.764   6.664  0.1995 -0.0589  0.1278
  975POPC   C1B14195   8.999   0.372   5.678 -0.0107 -0.0370  0.0019
  975POPC   C2B14196   9.001   0.366   6.153 -0.1366 -0.0379  0.2321
  975POPC   C3B14197   9.118   0.518   6.488  0.2375 -0.1955 -0.1334
  975POPC   C4B14198   9.377   0.803   6.672 -0.3178 -0.3398  0.0909
  976POPC   NC314199   0.348  11.817   5.109  0.1702 -0.1883  0.2019
  976POPC   PO414200   0.283  11.354   5.098 -0.0273  0.1881 -0.0878
  976POPC   GL114201   0.458  11.390   5.472  0.1651 -0.1555 -0.0800
  976POPC   GL214202   0.263  11.186   5.722 -0.2241 -0.1202 -0.2736
  976POPC   C1A14203   0.549  11.722   5.747 -0.0725 -0.2783  0.1763
  976POPC   D2A14204   0.373  11.930   6.124 -0.1212 -0.1439  0.0899
  976POPC   C3A14205   0.520  12.419   6.206 -0.2505 -0.1252 -0.0185
  976POPC   C4A14206   0.582  12.593   6.576 -0.0836  0.0981 -0.0966
  976POPC   C1B14207   0.560  11.250   5.970  0.0460 -0.3434 -0.1164
  976POPC   C2B14208   0.764  11.492   6.160 -0.2599  0.0133  0.1794
  976POPC   C3B14209   0.724  11.756   6.500  0.0600  0.1793  0.1211
  976POPC   C4B14210   0.448  12.095   6.645  0.0068 -0.0328  0.0437
  977POPC   NC314211  16.941  16.531   5.268 -0.3679  0.0276  0.3731
  977POPC   PO414212  16.538  16.744   5.434  0.0298  0.0246  0.1407
  977POPC   GL114213  16.400  16.794   5.853  0.0534 -0.0372 -0.0385
  977POPC   GL214214  16.055  16.761   5.802 -0.3770  0.0641  0.0841
  977POPC   C1A14215  16.417  16.666   6.247 -0.4122  0.1478  0.0677
  977POPC   D2A14216  16.737  16.732   6.506 -0.0998 -0.0153  0.0597
  977POPC   C3A14217  17.087  16.569   6.575  0.0796 -0.0191  0.0804
  977POPC   C4A14218  17.518  16.611   6.468  0.1967 -0.1122 -0.3168
  977POPC   C1B14219  15.953  16.464   6.107  0.1929 -0.0230  0.0222
  977POPC   C2B14220  16.125  16.295   6.443  0.2575 -0.1089  0.0999
  977POPC   C3B14221  15.969  16.319   6.926 -0.1280  0.0795  0.0478
  977POPC   C4B14222  15.678  16.591   7.211  0.0084 -0.0077  0.1189
  978POPC   NC314223  10.880  11.466   5.648  0.5057  0.1527  0.0731
  978POPC   PO414224  11.294  11.416   5.848  0.2806  0.1581 -0.1970
  978POPC   GL114225  11.060  11.364   6.199 -0.0489  0.4916 -0.1846
  978POPC   GL214226  10.849  11.541   6.176 -0.1389  0.1920  0.0583
  978POPC   C1A14227  11.090  11.468   6.562 -0.0772 -0.0910 -0.1684
  978POPC   D2A14228  10.806  11.548   6.916 -0.2285  0.2800  0.0979
  978POPC   C3A14229  10.545  11.613   7.308  0.0483 -0.2106 -0.1919
  978POPC   C4A14230  10.570  11.768   7.689  0.0734 -0.0336 -0.0212
  978POPC   C1B14231  10.568  11.599   6.522  0.0672 -0.0208  0.0263
  978POPC   C2B14232  10.107  11.618   6.747 -0.0142  0.1517  0.1567
  978POPC   C3B14233   9.889  11.839   7.105  0.4068  0.3108  0.3161
  978POPC   C4B14234   9.837  12.211   7.268  0.0018 -0.3289 -0.0521
  979POPC   NC314235   2.541   5.385   5.501  0.0420  0.0990 -0.2210
  979POPC   PO414236   2.099   5.281   5.450  0.0253  0.0485 -0.0911
  979POPC   GL114237   2.064   5.594   5.675 -0.1885  0.1072  0.1725
  979POPC   GL214238   2.339   5.568   5.944 -0.2246  0.0568 -0.0642
  979POPC   C1A14239   1.970   6.027   5.922  0.0759 -0.0867 -0.1389
  979POPC   D2A14240   1.839   6.258   6.301 -0.0305  0.2504  0.1030
  979POPC   C3A14241   2.170   6.380   6.572 -0.0652  0.1161  0.0142
  979POPC   C4A14242   2.507   6.524   6.642 -0.0605  0.1618  0.4315
  979POPC   C1B14243   2.772   5.604   6.177  0.0506  0.2112  0.0131
  979POPC   C2B14244   2.917   5.878   6.493 -0.2982  0.1362  0.0871
  979POPC   C3B14245   3.154   5.851   6.998 -0.1553  0.1613  0.1418
  979POPC   C4B14246   3.348   5.477   7.230 -0.0304  0.4104  0.0421
  980POPC   NC314247   4.367   9.554   5.387  0.0861  0.3726 -0.1165
  980POPC   PO414248   4.306  10.027   5.495 -0.1126  0.0047 -0.1381
  980POPC   GL114249   4.162  10.168   5.861  0.1422  0.3053 -0.2593
  980POPC   GL214250   4.255  10.441   5.950  0.0438  0.0341  0.1235
  980POPC   C1A14251   4.144   9.913   6.158  0.3337  0.1264 -0.0320
  980POPC   D2A14252   3.883   9.887   6.661 -0.1523 -0.1048 -0.1628
  980POPC   C3A14253   3.538  10.102   6.643  0.2741  0.0553 -0.0368
  980POPC   C4A14254   3.327  10.416   6.459  0.1457 -0.2583 -0.0036
  980POPC   C1B14255   4.561  10.508   6.163  0.1457 -0.4416  0.1124
  980POPC   C2B14256   4.803  10.828   6.465  0.3078 -0.3372 -0.2190
  980POPC   C3B14257   4.950  11.126   6.732 -0.0756  0.0272  0.1505
  980POPC   C4B14258   4.972  11.548   6.719  0.1907  0.2804 -0.1268
  981YOPC   NC314259  18.314   8.509   5.035  0.0948  0.0382  0.0904
  981YOPC   PO414260  18.427   8.372   5.463  0.0014  0.0453  0.0658
  981YOPC   GL114261  18.407   8.529   5.921 -0.2685 -0.1483  0.2038
  981YOPC   GL214262  18.164   8.346   6.132 -0.1241 -0.2842  0.1926
  981YOPC   C1A14263  18.488   8.666   6.392  0.2825  0.1884  0.3157
  981YOPC   D2A14264  18.311   8.700   6.813 -0.1511  0.1524  0.0231
  981YOPC   C3A14265  18.687   8.667   7.177 -0.1242 -0.2419  0.1263
  981YOPC   C4A14266  18.648   8.893   7.525 -0.1060  0.0770  0.1868
  981YOPC   C1B14267  17.973   8.491   6.493  0.0141 -0.2731  0.1299
  981YOPC   C2B14268  17.506   8.658   6.626  0.2576  0.1106  0.2691
  981YOPC   D3B14269  17.363   8.942   6.815  0.0901 -0.0352 -0.1477
  981YOPC   C4B14270  17.184   8.960   7.295 -0.1219 -0.0659  0.0215
  982YOPC   NC314271  19.277  17.346   5.216  0.0437  0.0886  0.2340
  982YOPC   PO414272  19.414  16.946   5.211 -0.1952 -0.2185 -0.1110
  982YOPC   GL114273  19.260  17.078   5.671 -0.1043  0.3933  0.1996
  982YOPC   GL214274  19.460  17.297   5.706 -0.0610  0.3437 -0.0631
  982YOPC   C1A14275  19.205  16.807   6.003 -0.1875  0.0478  0.3343
  982YOPC   D2A14276  19.205  16.782   6.443 -0.0804  0.0166  0.1861
  982YOPC   C3A14277  19.044  16.917   6.798 -0.0818  0.0019 -0.1134
  982YOPC   C4A14278  18.963  16.849   7.287  0.2695  0.2810  0.1743
  982YOPC   C1B14279  19.458  17.701   5.928  0.0348  0.1481 -0.0819
  982YOPC   C2B14280  19.463  17.929   6.229  0.1502 -0.3840  0.1899
  982YOPC   D3B14281  19.445  18.173   6.587  0.0419 -0.3283 -0.0357
  982YOPC   C4B14282  19.595  18.445   6.781 -0.0166 -0.1118  0.0196
  983YOPC   NC314283   0.664   1.598   4.966  0.2319  0.2493 -0.1259
  983YOPC   PO414284   0.960   2.023   4.987 -0.0765  0.2042 -0.2324
  983YOPC   GL114285   0.771   1.957   5.381  0.2402  0.4158  0.2127
  983YOPC   GL214286   0.521   1.878   5.374 -0.5315  0.2475 -0.2577
  983YOPC   C1A14287   0.793   1.929   5.836 -0.1950 -0.1168  0.0167
  983YOPC   D2A14288   0.602   1.642   6.160  0.3852 -0.3738 -0.2700
  983YOPC   C3A14289   0.790   1.551   6.569  0.1875 -0.1529 -0.2102
  983YOPC   C4A14290   0.989   1.494   6.874 -0.1106 -0.2599 -0.2041
  983YOPC   C1B14291   0.347   1.631   5.725  0.1985 -0.0456 -0.1237
  983YOPC   C2B14292   0.098   1.447   6.137  0.2797  0.0546 -0.2230
  983YOPC   D3B14293   0.160   1.563   6.574 -0.4044 -0.0810  0.1035
  983YOPC   C4B14294  -0.094   1.417   7.001  0.1359 -0.3355  0.3217
  984YOPC   NC314295  16.423   9.382   5.028 -0.1746  0.2173  0.0089
  984YOPC   PO414296  16.385   9.224   5.431  0.1814  0.1049 -0.4038
  984YOPC   GL114297  16.180   8.928   5.748 -0.0817  0.1659 -0.2304
  984YOPC   GL214298  16.205   8.578   5.816 -0.0248 -0.1459 -0.1552
  984YOPC   C1A14299  15.962   8.960   6.201 -0.1176 -0.1141 -0.3300
  984YOPC   D2A14300  15.775   9.109   6.491  0.2616 -0.1252  0.1554
  984YOPC   C3A14301  15.777   9.119   7.032  0.4852  0.3438 -0.0911
  984YOPC   C4A14302  15.842   9.502   7.424  0.1816  0.3487 -0.3257
  984YOPC   C1B14303  16.070   8.483   6.191  0.0793 -0.0231  0.0913
  984YOPC   C2B14304  15.701   8.153   6.349  0.0653  0.1824  0.1876
  984YOPC   D3B14305  15.542   8.104   6.614  0.0148 -0.0709 -0.1950
  984YOPC   C4B14306  15.653   8.338   7.075 -0.0247 -0.1140 -0.1845
  985YOPC   NC314307   8.789  13.467   4.905 -0.1804  0.0018  0.1053
  985YOPC   PO414308   8.343  13.245   4.714 -0.3065 -0.2787 -0.1130
  985YOPC   GL114309   8.172  13.363   5.204  0.0956  0.1924 -0.0592
  985YOPC   GL214310   7.998  13.497   5.191  0.1950 -0.0871  0.1273
  985YOPC   C1A14311   8.171  13.298   5.660 -0.0599 -0.1530  0.0390
  985YOPC   D2A14312   8.422  13.103   5.986 -0.3557  0.1147 -0.1636
  985YOPC   C3A14313   8.379  12.924   6.393 -0.2801  0.1374 -0.2464
  985YOPC   C4A14314   8.106  13.046   6.788  0.0981 -0.0796 -0.1845
  985YOPC   C1B14315   7.639  13.529   5.395 -0.1110  0.0308 -0.2433
  985YOPC   C2B14316   7.524  13.348   5.796 -0.0701 -0.1513 -0.0967
  985YOPC   D3B14317   7.620  13.454   6.069 -0.0310 -0.1949 -0.2822
  985YOPC   C4B14318   7.939  13.259   6.232 -0.0736  0.2654 -0.1138
  986YOPC   NC314319  18.620  16.061   4.983  0.2260  0.3000 -0.1950
  986YOPC   PO414320  19.022  16.165   5.113  0.0678 -0.0268 -0.3858
  986YOPC   GL114321  18.836  15.908   5.499 -0.2905  0.2806 -0.0531
  986YOPC   GL214322  18.459  15.886   5.537 -0.1792  0.0315  0.0370
  986YOPC   C1A14323  18.867  15.852   5.943 -0.2624  0.2123  0.1197
  986YOPC   D2A14324  18.945  15.877   6.433 -0.2048  0.2714 -0.3991
  986YOPC   C3A14325  18.954  16.346   6.639  0.0939 -0.0787 -0.0827
  986YOPC   C4A14326  18.617  16.587   6.465  0.2419 -0.0712  0.1990
  986YOPC   C1B14327  18.415  16.131   5.879 -0.0225  0.1458 -0.1335
  986YOPC   C2B14328  18.596  16.146   6.258 -0.0027  0.0324  0.0252
  986YOPC   D3B14329  18.535  16.068   6.663 -0.1771 -0.0834  0.0364
  986YOPC   C4B14330  18.144  15.967   6.967 -0.2110 -0.0715  0.0812
  987YOPC   NC314331  10.388   0.477   5.232 -0.0304  0.1714 -0.0154
  987YOPC   PO414332  10.406   0.853   5.060  0.1714  0.1932 -0.1434
  987YOPC   GL114333  10.488   0.930   5.509  0.3034 -0.1979  0.2224
  987YOPC   GL214334  10.267   1.197   5.729 -0.0924  0.0335 -0.0479
  987YOPC   C1A14335  10.489   0.920   6.014  0.0776 -0.4513 -0.0449
  987YOPC   D2A14336  10.292   1.286   6.338  0.4100 -0.1460  0.0925
  987YOPC   C3A14337  10.057   1.444   6.769  0.0395 -0.0432  0.3067
  987YOPC   C4A14338  10.010   1.376   7.182 -0.0897  0.0166  0.3490
  987YOPC   C1B14339   9.994   0.888   6.083 -0.0544  0.0201 -0.1992
  987YOPC   C2B14340   9.994   0.882   6.529 -0.0766 -0.1211  0.0332
  987YOPC   D3B14341   9.896   0.692   6.838  0.0507  0.1093 -0.1505
  987YOPC   C4B14342  10.035   0.350   7.040  0.0694  0.0548 -0.0309
  988YOPC   NC314343   1.142  12.087   4.224 -0.1196 -0.0894  0.2119
  988YOPC   PO414344   1.011  12.346   4.612 -0.2183  0.2216  0.0763
  988YOPC   GL114345   1.352  12.415   5.000  0.2355 -0.2966  0.3347
  988YOPC   GL214346   1.139  12.330   5.353 -0.1858  0.2541 -0.0765
  988YOPC   C1A14347   1.577  12.497   5.444  0.0789  0.4121  0.1990
  988YOPC   D2A14348   1.803  12.092   5.672 -0.1719 -0.1156  0.0588
  988YOPC   C3A14349   2.018  12.090   6.103  0.1118 -0.0932 -0.0096
  988YOPC   C4A14350   1.909  12.555   6.308 -0.2175 -0.0344  0.1018
  988YOPC   C1B14351   1.325  12.253   5.786  0.3102  0.1691 -0.2458
  988YOPC   C2B14352   1.445  11.879   6.030 -0.2028 -0.0025 -0.0165
  988YOPC   D3B14353   1.587  11.963   6.411 -0.1644  0.0993 -0.0653
  988YOPC   C4B14354   1.573  12.245   6.742 -0.0515 -0.0275  0.0491
  989YOPC   NC314355  12.223   7.641   5.435  0.2131  0.3712 -0.0812
  989YOPC   PO414356  12.174   7.235   5.643  0.1114  0.2266 -0.3914
  989YOPC   GL114357  12.228   7.043   6.022 -0.0248 -0.4816 -0.4077
  989YOPC   GL214358  12.098   7.302   6.231 -0.0364  0.0285  0.5428
  989YOPC   C1A14359  12.421   6.868   6.313 -0.1078 -0.0078  0.2714
  989YOPC   D2A14360  12.824   6.703   6.428  0.3337  0.4339 -0.0050
  989YOPC   C3A14361  13.054   6.894   6.753  0.1431  0.1759 -0.3091
  989YOPC   C4A14362  13.104   7.125   6.995 -0.2471 -0.0880  0.0419
  989YOPC   C1B14363  11.961   7.526   6.571 -0.0147  0.2682 -0.4627
  989YOPC   C2B14364  12.151   7.717   6.925 -0.0972  0.0473  0.0932
  989YOPC   D3B14365  12.455   7.980   7.065 -0.0543 -0.0983 -0.0767
  989YOPC   C4B14366  12.865   8.220   7.210 -0.0028  0.2099  0.2608
  990YOPC   NC314367  17.089  10.433   5.459 -0.0976  0.1382  0.0363
  990YOPC   PO414368  17.503  10.337   5.648 -0.0611  0.2891 -0.4520
  990YOPC   GL114369  17.552   9.993   6.017  0.1524 -0.4220 -0.0607
  990YOPC   GL214370  17.817   9.864   5.789 -0.1203  0.1613 -0.1562
  990YOPC   C1A14371  17.419   9.943   6.476 -0.3863 -0.1127  0.2695
  990YOPC   D2A14372  17.307   9.948   6.836 -0.2751 -0.1129 -0.4417
  990YOPC   C3A14373  17.398   9.888   7.249 -0.0523 -0.1657 -0.1455
  990YOPC   C4A14374  17.625  10.060   7.584  0.1174 -0.0137 -0.2463
  990YOPC   C1B14375  17.918   9.722   6.284  0.5253  0.0298 -0.0355
  990YOPC   C2B14376  18.000   9.775   6.716 -0.3371  0.0598 -0.3458
  990YOPC   D3B14377  17.826   9.590   7.015  0.0200  0.0906 -0.2638
  990YOPC   C4B14378  17.927   9.379   7.431  0.0840 -0.2790  0.0378
  991YOPC   NC314379   2.870  14.202   4.671  0.4592 -0.0262  0.0860
  991YOPC   PO414380   3.163  14.135   4.989  0.1057  0.0504 -0.1084
  991YOPC   GL114381   3.012  14.088   5.370  0.0430 -0.1723 -0.4051
  991YOPC   GL214382   3.232  14.096   5.651  0.0180  0.1244 -0.2141
  991YOPC   C1A14383   2.777  14.396   5.554 -0.1381 -0.1406  0.4486
  991YOPC   D2A14384   2.437  14.541   5.609  0.1240 -0.0663 -0.4392
  991YOPC   C3A14385   2.385  14.635   6.104  0.3999  0.2056  0.0045
  991YOPC   C4A14386   2.070  14.794   6.454 -0.0862 -0.3101 -0.0209
  991YOPC   C1B14387   2.950  14.124   6.054  0.0231  0.2587  0.2185
  991YOPC   C2B14388   2.760  14.366   6.250  0.0509  0.1873  0.2554
  991YOPC   D3B14389   2.800  14.215   6.663 -0.2641 -0.0051 -0.2286
  991YOPC   C4B14390   2.680  14.148   7.055 -0.1372 -0.0697 -0.2402
  992YOPC   NC314391  15.111   5.479   5.471 -0.1722 -0.1294 -0.0372
  992YOPC   PO414392  15.194   5.865   5.630 -0.1143  0.2632 -0.5599
  992YOPC   GL114393  15.329   5.871   6.040  0.1895  0.1508  0.0871
  992YOPC   GL214394  15.648   5.664   6.005 -0.1609  0.1310 -0.0997
  992YOPC   C1A14395  15.352   5.846   6.423  0.0832 -0.0665 -0.2602
  992YOPC   D2A14396  15.186   5.779   6.887 -0.2896  0.1835 -0.1607
  992YOPC   C3A14397  15.112   6.169   7.110 -0.0721  0.4184 -0.2934
  992YOPC   C4A14398  14.700   6.348   7.466  0.0299 -0.1333 -0.1494
  992YOPC   C1B14399  15.806   5.409   6.400  0.1849  0.2641 -0.1776
  992YOPC   C2B14400  15.798   5.037   6.548 -0.0347  0.1826  0.0576
  992YOPC   D3B14401  16.005   4.839   6.789 -0.3997  0.2443  0.0601
  992YOPC   C4B14402  16.224   4.475   6.663  0.1046 -0.0814 -0.0385
  993YOPC   NC314403  11.117  16.584   5.182  0.0811 -0.4689 -0.0299
  993YOPC   PO414404  10.979  16.159   5.331 -0.1267 -0.1588  0.0056
  993YOPC   GL114405  10.953  16.281   5.711  0.2232  0.2353  0.1898
  993YOPC   GL214406  11.274  16.290   5.709  0.1988 -0.3853 -0.0016
  993YOPC   C1A14407  10.999  16.185   6.141 -0.1824 -0.1043 -0.2647
  993YOPC   D2A14408  11.313  16.147   6.449 -0.0417  0.0060  0.3612
  993YOPC   C3A14409  11.313  16.274   6.810 -0.1889 -0.2889  0.1614
  993YOPC   C4A14410  10.888  16.331   6.850 -0.2553  0.2308  0.0282
  993YOPC   C1B14411  11.441  16.529   6.045 -0.0373  0.1070  0.1175
  993YOPC   C2B14412  11.611  16.586   6.549  0.2796 -0.3742 -0.1254
  993YOPC   D3B14413  11.806  16.487   6.886  0.0057 -0.0830 -0.1326
  993YOPC   C4B14414  12.116  16.195   7.019 -0.0094  0.1573  0.0711
  994YOPC   NC314415  14.240  10.505   5.642  0.2931  0.2257 -0.0315
  994YOPC   PO414416  14.491  10.837   5.470 -0.4458 -0.3151 -0.2574
  994YOPC   GL114417  14.702  11.076   5.863  0.0764  0.3034 -0.4595
  994YOPC   GL214418  15.000  11.163   5.854  0.4044  0.3017 -0.2172
  994YOPC   C1A14419  14.808  10.974   6.296  0.3034 -0.0726 -0.2244
  994YOPC   D2A14420  14.638  10.807   6.607 -0.3294 -0.0341  0.0891
  994YOPC   C3A14421  14.745  10.953   7.104 -0.1848 -0.0853 -0.0451
  994YOPC   C4A14422  14.695  10.845   7.539 -0.1313  0.2491  0.0539
  994YOPC   C1B14423  15.254  10.983   6.192 -0.0269 -0.1342 -0.0665
  994YOPC   C2B14424  15.098  11.057   6.671  0.0183 -0.2151  0.0721
  994YOPC   D3B14425  15.223  10.933   7.018  0.0498 -0.1970  0.1889
  994YOPC   C4B14426  15.388  10.898   7.462 -0.0277  0.0539 -0.0844
  995YOPC   NC314427   6.279   9.951   5.488  0.0335 -0.2095  0.3952
  995YOPC   PO414428   6.684   9.922   5.687 -0.0162  0.1494 -0.0985
  995YOPC   GL114429   6.620   9.742   6.057  0.1414  0.3199 -0.1582
  995YOPC   GL214430   6.369   9.608   6.238  0.1750  0.0127  0.1829
  995YOPC   C1A14431   6.848   9.635   6.450  0.0736  0.0170 -0.2695
  995YOPC   D2A14432   7.175   9.311   6.647  0.0251  0.3552  0.1261
  995YOPC   C3A14433   7.683   9.435   6.654  0.3799 -0.0907 -0.0483
  995YOPC   C4A14434   8.089   9.401   6.476 -0.0925 -0.1617 -0.1256
  995YOPC   C1B14435   6.279   9.614   6.643 -0.1442 -0.0890 -0.1343
  995YOPC   C2B14436   6.400   9.743   6.912 -0.1351 -0.1659  0.4684
  995YOPC   D3B14437   6.827   9.974   6.861  0.4095 -0.0293 -0.2610
  995YOPC   C4B14438   7.222  10.213   6.721  0.0033 -0.1260  0.1444
  996YOPC   NC314439  16.464   6.339   5.100  0.3305  0.0018 -0.3189
  996YOPC   PO414440  16.157   5.989   5.304  0.0746 -0.0139  0.0949
  996YOPC   GL114441  16.100   5.971   5.808  0.2154 -0.4090  0.1078
  996YOPC   GL214442  15.846   6.161   6.022  0.4403  0.2084 -0.3370
  996YOPC   C1A14443  16.056   5.797   6.231  0.2781  0.2137 -0.1516
  996YOPC   D2A14444  15.912   5.900   6.558 -0.1327 -0.0273  0.4475
  996YOPC   C3A14445  15.716   5.715   6.886  0.1504 -0.0774  0.2775
  996YOPC   C4A14446  15.482   5.851   7.296 -0.1000 -0.0688  0.0513
  996YOPC   C1B14447  16.190   6.274   6.331 -0.0814 -0.0391 -0.2188
  996YOPC   C2B14448  16.407   6.072   6.538 -0.1430  0.1336 -0.1300
  996YOPC   D3B14449  16.327   5.651   6.646 -0.0566 -0.1452  0.1021
  996YOPC   C4B14450  16.065   5.319   6.806 -0.3036 -0.0278 -0.2170
  997YOPC   NC314451  15.227  16.809   4.719  0.3552 -0.2805  0.3034
  997YOPC   PO414452  15.381  17.211   4.928  0.1075  0.0576  0.1404
  997YOPC   GL114453  15.361  17.239   5.385  0.0189  0.4293 -0.5396
  997YOPC   GL214454  15.089  17.275   5.594 -0.0535  0.2315  0.1740
  997YOPC   C1A14455  15.645  17.104   5.720  0.3345 -0.0065  0.3246
  997YOPC   D2A14456  15.649  17.063   6.119 -0.0988 -0.2360 -0.1473
  997YOPC   C3A14457  15.835  16.821   6.406  0.1656  0.0445  0.2825
  997YOPC   C4A14458  15.873  16.774   6.801  0.1146  0.0481  0.1897
  997YOPC   C1B14459  15.115  17.379   6.101  0.2450 -0.1214  0.1214
  997YOPC   C2B14460  14.998  17.416   6.538  0.0601  0.0815  0.1609
  997YOPC   D3B14461  15.034  17.079   6.955  0.1053  0.1106  0.1180
  997YOPC   C4B14462  15.354  17.002   7.072  0.0469 -0.0842 -0.1582
  998YOPC   NC314463  15.375   1.500   4.650 -0.3199 -0.1950  0.1815
  998YOPC   PO414464  15.402   1.148   4.467  0.0828  0.4100 -0.0396
  998YOPC   GL114465  15.442   1.119   5.016 -0.1497  0.0616 -0.1813
  998YOPC   GL214466  15.417   0.847   5.302  0.4010 -0.1707 -0.0143
  998YOPC   C1A14467  15.343   1.297   5.511  0.1507  0.4476  0.1667
  998YOPC   D2A14468  14.911   1.249   5.715  0.0045  0.1079 -0.2242
  998YOPC   C3A14469  14.820   0.968   6.053  0.1359 -0.2170 -0.0210
  998YOPC   C4A14470  14.606   0.783   6.201  0.1217 -0.4262  0.1556
  998YOPC   C1B14471  15.089   0.623   5.467  0.1442  0.0691 -0.0883
  998YOPC   C2B14472  14.651   0.760   5.653 -0.1974  0.0338 -0.0239
  998YOPC   D3B14473  14.469   0.351   5.939  0.0867 -0.0124  0.3645
  998YOPC   C4B14474  14.706   0.198   6.266  0.2323  0.1022  0.1852
  999YOPC   NC314475   9.256  11.195   5.830  0.0217 -0.0959  0.0016
  999YOPC   PO414476   9.317  10.762   5.603  0.0049 -0.0720  0.0151
  999YOPC   GL114477   9.306  10.670   6.028  0.0927  0.1789  0.3321
  999YOPC   GL214478   9.079  10.443   6.068  0.0225 -0.1177 -0.0674
  999YOPC   C1A14479   9.579  10.912   6.320  0.1744  0.0620 -0.0515
  999YOPC   D2A14480   9.934  10.843   6.539  0.0943 -0.2769  0.0795
  999YOPC   C3A14481  10.144  10.510   6.589  0.1096  0.0019  0.1490
  999YOPC   C4A14482  10.181  10.254   7.024  0.4099  0.1026 -0.3096
  999YOPC   C1B14483   9.075  10.288   6.534  0.3489  0.0070  0.1880
  999YOPC   C2B14484   9.050  10.275   7.061 -0.0501  0.0377  0.0518
  999YOPC   D3B14485   9.145  10.609   7.257 -0.0967  0.2991  0.3654
  999YOPC   C4B14486   9.307  11.104   7.342  0.1497 -0.0346 -0.2039
 1000YOPC   NC314487  10.896  13.372   5.306  0.4421 -0.2952  0.0547
 1000YOPC   PO414488  10.881  12.987   5.528  0.0297 -0.0247 -0.1689
 1000YOPC   GL114489  10.858  13.201   5.929  0.2455  0.2206 -0.2321
 1000YOPC   GL214490  11.024  12.918   6.056 -0.0265  0.0781  0.1181
 1000YOPC   C1A14491  10.646  13.289   6.339  0.2710 -0.0247  0.1722
 1000YOPC   D2A14492  10.873  13.336   6.662  0.1320  0.2142 -0.0715
 1000YOPC   C3A14493  11.179  13.202   6.504  0.2003 -0.2352  0.0018
 1000YOPC   C4A14494  11.643  13.367   6.557  0.1886  0.0544  0.0821
 1000YOPC   C1B14495  11.077  12.694   6.436 -0.0768 -0.1641 -0.0253
 1000YOPC   C2B14496  10.948  12.407   6.794 -0.1180 -0.1036 -0.2146
 1000YOPC   D3B14497  10.688  12.558   7.124 -0.0633  0.2713  0.3582
 1000YOPC   C4B14498  10.452  12.786   7.396 -0.1617 -0.1982  0.0069
 1001YOPC   NC314499   5.275   9.031   5.539 -0.0564  0.2307 -0.2820
 1001YOPC   PO414500   5.144   8.683   5.357 -0.0705 -0.1938  0.2392
 1001YOPC   GL114501   5.251   8.477   5.626 -0.1361  0.0549  0.2194
 1001YOPC   GL214502   5.419   8.685   5.846  0.3478 -0.0481 -0.0890
 1001YOPC   C1A14503   5.029   8.117   5.913  0.2821 -0.0765 -0.2481
 1001YOPC   D2A14504   4.966   7.850   6.281  0.4416 -0.0835 -0.1644
 1001YOPC   C3A14505   4.975   7.887   6.709  0.3583 -0.2232  0.2898
 1001YOPC   C4A14506   4.903   7.920   7.154 -0.2697  0.0948 -0.1852
 1001YOPC   C1B14507   5.668   8.448   6.113  0.3704 -0.1477 -0.0111
 1001YOPC   C2B14508   5.725   8.476   6.579 -0.0657  0.0493 -0.1187
 1001YOPC   D3B14509   5.329   8.568   6.890 -0.1935 -0.2929  0.2205
 1001YOPC   C4B14510   5.279   8.271   7.202  0.0929  0.4050 -0.1393
 1002YOPC   NC314511   5.393  16.788   4.592  0.0230 -0.0597  0.2066
 1002YOPC   PO414512   4.899  16.694   4.670 -0.2197 -0.1574  0.0151
 1002YOPC   GL114513   4.755  16.677   5.120  0.0611  0.1445 -0.1412
 1002YOPC   GL214514   4.433  16.790   5.152 -0.0171 -0.2057  0.0581
 1002YOPC   C1A14515   4.781  16.552   5.646 -0.2179 -0.1496 -0.1116
 1002YOPC   D2A14516   4.899  16.587   6.023 -0.0531  0.5377  0.1341
 1002YOPC   C3A14517   4.978  17.007   6.287  0.2106 -0.0463 -0.0914
 1002YOPC   C4A14518   4.747  17.446   6.396  0.4211 -0.2731  0.6706
 1002YOPC   C1B14519   4.744  17.009   5.435  0.1874  0.2004 -0.1169
 1002YOPC   C2B14520   4.643  16.983   5.879 -0.4380 -0.0670  0.1012
 1002YOPC   D3B14521   4.195  16.892   6.061  0.0330  0.0737  0.4018
 1002YOPC   C4B14522   3.846  16.665   6.047 -0.1706  0.1449  0.0953
 1003YOPC   NC314523   2.529   9.597   5.236  0.0095 -0.2562 -0.1946
 1003YOPC   PO414524   2.527   9.124   5.309  0.3188  0.0060 -0.2611
 1003YOPC   GL114525   2.667   9.035   5.764 -0.1352 -0.1405 -0.0734
 1003YOPC   GL214526   2.959   9.125   5.962  0.3062 -0.0371 -0.3364
 1003YOPC   C1A14527   2.519   9.170   6.129  0.1223 -0.2659 -0.1557
 1003YOPC   D2A14528   2.008   9.215   6.314 -0.0784  0.1893 -0.3029
 1003YOPC   C3A14529   1.877   8.999   6.738  0.2135 -0.1160  0.4387
 1003YOPC   C4A14530   1.517   9.050   6.966 -0.2269  0.0005 -0.1372
 1003YOPC   C1B14531   3.197   8.918   6.285  0.1503 -0.0604  0.0562
 1003YOPC   C2B14532   3.324   8.815   6.684  0.2617  0.1529  0.0772
 1003YOPC   D3B14533   3.539   8.891   6.954  0.0853 -0.0420  0.1451
 1003YOPC   C4B14534   3.979   8.946   7.008  0.1160 -0.0740 -0.4715
 1004YOPC   NC314535   8.064  10.363   5.194  0.2195  0.1627  0.2297
 1004YOPC   PO414536   8.286  10.574   5.436  0.0424 -0.0480  0.0091
 1004YOPC   GL114537   8.199  10.700   5.903 -0.3550 -0.0974  0.0518
 1004YOPC   GL214538   8.000  11.041   5.901 -0.1554 -0.0320 -0.0561
 1004YOPC   C1A14539   8.322  10.637   6.288 -0.0594 -0.4305 -0.0086
 1004YOPC   D2A14540   8.606  10.299   6.402  0.3491 -0.4838 -0.2123
 1004YOPC   C3A14541   8.689  10.045   6.794  0.3022  0.0630  0.3858
 1004YOPC   C4A14542   8.563  10.038   7.130 -0.1514 -0.0870  0.0315
 1004YOPC   C1B14543   7.924  11.437   6.056 -0.0779 -0.2080  0.0710
 1004YOPC   C2B14544   7.508  11.453   6.269 -0.1565 -0.2417  0.0344
 1004YOPC   D3B14545   7.505  11.875   6.322 -0.3929  0.1513  0.3130
 1004YOPC   C4B14546   7.297  12.133   6.480 -0.0133  0.0411 -0.2421
 1005YOPC   NC314547   5.240  11.224   4.784 -0.1026  0.0743 -0.2751
 1005YOPC   PO414548   5.172  11.590   4.956 -0.1831  0.4901 -0.0274
 1005YOPC   GL114549   5.170  11.946   5.353  0.0897 -0.0490  0.1275
 1005YOPC   GL214550   5.416  12.077   5.442 -0.1727  0.2595  0.2663
 1005YOPC   C1A14551   4.741  12.021   5.648  0.2110 -0.1974  0.0665
 1005YOPC   D2A14552   4.303  12.005   5.985  0.2185 -0.1837  0.1270
 1005YOPC   C3A14553   4.245  12.078   6.479  0.1316 -0.1236  0.0272
 1005YOPC   C4A14554   4.086  12.347   6.839  0.2064 -0.0203 -0.0360
 1005YOPC   C1B14555   5.430  12.241   5.859  0.3318 -0.1644 -0.0932
 1005YOPC   C2B14556   5.078  12.182   6.164 -0.0229 -0.0924  0.0760
 1005YOPC   D3B14557   5.136  12.156   6.602  0.1525  0.2183  0.2198
 1005YOPC   C4B14558   4.888  11.987   6.980 -0.0770 -0.1174  0.0593
 1006YOPC   NC314559  11.012  18.906   5.683  0.0175  0.0161 -0.3876
 1006YOPC   PO414560  11.499  18.933   5.612  0.1329  0.1829  0.0548
 1006YOPC   GL114561  11.425  19.029   5.972  0.0342  0.4698 -0.3632
 1006YOPC   GL214562  11.180  19.089   6.137 -0.4294  0.0351 -0.0519
 1006YOPC   C1A14563  11.839  19.112   6.209  0.0634  0.0299 -0.0493
 1006YOPC   D2A14564  11.984  19.149   6.694  0.1148 -0.1485 -0.1556
 1006YOPC   C3A14565  11.754  19.208   7.024  0.0308 -0.0658  0.0718
 1006YOPC   C4A14566  11.737  19.153   7.528 -0.1411 -0.4649 -0.2940
 1006YOPC   C1B14567  11.497  19.459   6.353  0.0622  0.0718 -0.2043
 1006YOPC   C2B14568  11.831  19.628   6.613 -0.0387 -0.1506 -0.1164
 1006YOPC   D3B14569  11.687  20.010   6.951  0.2915  0.0153 -0.0571
 1006YOPC   C4B14570  11.760  20.277   7.197  0.0665  0.1066 -0.0230
 1007YOPC   NC314571   8.693  15.570   4.594 -0.1356  0.0460 -0.3213
 1007YOPC   PO414572   8.614  15.674   5.024  0.0251  0.1577  0.0468
 1007YOPC   GL114573   8.785  15.723   5.439 -0.0145  0.1686 -0.1704
 1007YOPC   GL214574   9.020  15.941   5.603  0.1902  0.1498  0.0921
 1007YOPC   C1A14575   8.838  15.549   5.882 -0.1245 -0.0124 -0.0133
 1007YOPC   D2A14576   8.990  15.660   6.304  0.1998 -0.0422 -0.0781
 1007YOPC   C3A14577   9.167  15.338   6.682  0.0203  0.0357 -0.1839
 1007YOPC   C4A14578   9.570  15.201   6.867  0.3932 -0.2490 -0.1638
 1007YOPC   C1B14579   9.076  16.126   6.006  0.0060 -0.1347 -0.0631
 1007YOPC   C2B14580   8.767  16.167   6.427 -0.2206 -0.1397 -0.1025
 1007YOPC   D3B14581   8.734  16.269   6.834  0.1049  0.0200  0.2970
 1007YOPC   C4B14582   8.855  16.550   7.103  0.2400 -0.2828  0.0450
 1008YOPC   NC314583  11.779  15.977   4.987  0.1644  0.0294 -0.1553
 1008YOPC   PO414584  12.012  16.017   5.383 -0.0176 -0.1457  0.2632
 1008YOPC   GL114585  11.788  16.104   5.656 -0.1151 -0.2435 -0.0114
 1008YOPC   GL214586  11.559  15.832   5.559  0.0393  0.1310 -0.2691
 1008YOPC   C1A14587  11.629  15.893   6.070  0.0059  0.0593 -0.3310
 1008YOPC   D2A14588  11.592  15.597   6.306 -0.1780 -0.1037 -0.3186
 1008YOPC   C3A14589  11.802  15.438   6.700  0.1512 -0.3233 -0.0011
 1008YOPC   C4A14590  12.078  15.637   7.031  0.0129  0.4482  0.0822
 1008YOPC   C1B14591  11.716  15.421   5.811  0.1145  0.1417  0.1832
 1008YOPC   C2B14592  12.028  15.260   5.937  0.3073 -0.1576 -0.1077
 1008YOPC   D3B14593  12.455  15.270   6.134 -0.0303  0.3013  0.1306
 1008YOPC   C4B14594  12.861  15.165   6.004  0.0238 -0.1575 -0.2407
 1009YOPC   NC314595   2.751  17.412   4.591  0.1260  0.3497 -0.0019
 1009YOPC   PO414596   2.349  17.411   4.924  0.0619 -0.2254  0.1185
 1009YOPC   GL114597   2.478  17.673   5.262  0.2838 -0.3313 -0.0156
 1009YOPC   GL214598   2.581  17.366   5.434  0.3720  0.1153 -0.0901
 1009YOPC   C1A14599   2.488  17.712   5.775  0.0445  0.3170  0.3193
 1009YOPC   D2A14600   2.426  17.888   6.176  0.0537 -0.2300  0.2743
 1009YOPC   C3A14601   2.715  17.959   6.443  0.2136 -0.3431  0.1119
 1009YOPC   C4A14602   3.136  18.174   6.204  0.2799 -0.1190 -0.1782
 1009YOPC   C1B14603   2.815  17.301   5.838  0.0814 -0.0219 -0.2089
 1009YOPC   C2B14604   3.283  17.294   6.058  0.2675  0.2632 -0.1501
 1009YOPC   D3B14605   3.360  17.322   6.516 -0.1204 -0.0871 -0.3582
 1009YOPC   C4B14606   3.449  17.512   6.952  0.1688  0.0557  0.1431
 1010YOPC   NC314607   8.632   7.761   5.476 -0.2771  0.1172  0.1322
 1010YOPC   PO414608   9.079   7.998   5.728  0.3164  0.3229 -0.0151
 1010YOPC   GL114609   9.111   7.684   6.102  0.0975 -0.1988 -0.0072
 1010YOPC   GL214610   9.186   7.320   6.047  0.1992 -0.0910  0.1563
 1010YOPC   C1A14611   8.872   7.760   6.458  0.1715  0.0870 -0.0034
 1010YOPC   D2A14612   8.763   7.800   6.822 -0.2487 -0.0147 -0.0208
 1010YOPC   C3A14613   8.824   8.087   7.139  0.1433 -0.3281  0.1850
 1010YOPC   C4A14614   8.980   8.470   7.305  0.1293 -0.1223 -0.5840
 1010YOPC   C1B14615   9.209   7.094   6.376 -0.3100 -0.2723 -0.0614
 1010YOPC   C2B14616   9.278   6.866   6.729 -0.1172 -0.2051  0.2373
 1010YOPC   D3B14617   9.681   6.646   6.794 -0.2592  0.0418  0.1498
 1010YOPC   C4B14618   9.870   6.235   6.909 -0.1806 -0.1561 -0.1129
 1011YOPC   NC314619   6.227   3.762   5.116  0.1176  0.0366  0.0964
 1011YOPC   PO414620   5.901   4.032   5.353  0.2213 -0.2860 -0.2484
 1011YOPC   GL114621   5.695   3.849   5.719 -0.2811  0.0569 -0.0916
 1011YOPC   GL214622   5.623   4.136   5.803  0.0784 -0.1000 -0.1754
 1011YOPC   C1A14623   5.581   3.619   6.083 -0.3815 -0.1327  0.0443
 1011YOPC   D2A14624   5.851   3.472   6.391 -0.0109  0.1193 -0.4576
 1011YOPC   C3A14625   5.941   3.493   6.751  0.0006 -0.2744  0.0469
 1011YOPC   C4A14626   6.077   3.554   7.016  0.1537 -0.2360  0.1436
 1011YOPC   C1B14627   5.750   4.260   6.142  0.1788  0.2323 -0.0666
 1011YOPC   C2B14628   5.957   4.677   6.346  0.3242  0.0102 -0.0660
 1011YOPC   D3B14629   6.258   4.526   6.659 -0.0064 -0.2882  0.0411
 1011YOPC   C4B14630   6.548   4.453   6.933 -0.2927  0.0696 -0.1557
 1012YOPC   NC314631   1.418   0.769   5.073  0.1660  0.0849 -0.0145
 1012YOPC   PO414632   1.314   1.295   4.875  0.3126 -0.2740 -0.0524
 1012YOPC   GL114633   1.187   1.139   5.392  0.0607 -0.1958 -0.2177
 1012YOPC   GL214634   1.100   0.698   5.466 -0.3096 -0.0871 -0.1557
 1012YOPC   C1A14635   1.021   1.106   5.787  0.1364  0.4422 -0.1110
 1012YOPC   D2A14636   1.092   1.343   6.173  0.2315 -0.4290 -0.1154
 1012YOPC   C3A14637   1.313   1.188   6.556 -0.0233  0.1843  0.2829
 1012YOPC   C4A14638   1.690   1.016   6.729 -0.2404  0.3881  0.1312
 1012YOPC   C1B14639   1.331   0.638   5.881  0.0425 -0.2836  0.1837
 1012YOPC   C2B14640   1.470   0.683   6.255 -0.1952  0.1959  0.1128
 1012YOPC   D3B14641   1.401   0.555   6.696  0.3595  0.2866  0.0780
 1012YOPC   C4B14642   1.504   0.662   7.060  0.1069 -0.0850 -0.3855
 1013YOPC   NC314643   5.496   3.183   5.247  0.1903 -0.2387 -0.0323
 1013YOPC   PO414644   5.857   2.936   5.461 -0.0713 -0.0120 -0.0962
 1013YOPC   GL114645   6.209   2.951   5.770 -0.1002 -0.0065 -0.2663
 1013YOPC   GL214646   5.960   3.212   5.853  0.1278  0.0184  0.1872
 1013YOPC   C1A14647   6.351   3.319   6.063  0.0285  0.0326 -0.1252
 1013YOPC   D2A14648   6.400   3.511   6.462  0.0437 -0.3564  0.0578
 1013YOPC   C3A14649   6.633   3.915   6.598  0.2752  0.3591 -0.2272
 1013YOPC   C4A14650   6.987   4.011   6.929  0.2894  0.2728  0.0164
 1013YOPC   C1B14651   5.570   3.037   6.082  0.1433  0.0833  0.1274
 1013YOPC   C2B14652   5.417   2.685   6.387 -0.0067 -0.2572  0.1092
 1013YOPC   D3B14653   5.330   2.709   6.882  0.2016  0.1023  0.2090
 1013YOPC   C4B14654   5.265   2.360   7.153  0.0366  0.1302  0.2940
 1014YOPC   NC314655   3.990  17.838   4.813 -0.0322 -0.2184  0.0404
 1014YOPC   PO414656   3.541  17.818   4.823 -0.4458  0.0124 -0.0063
 1014YOPC   GL114657   3.240  17.767   5.159  0.0412 -0.0144 -0.0021
 1014YOPC   GL214658   3.029  17.925   5.288  0.1060 -0.1043  0.0170
 1014YOPC   C1A14659   3.259  17.444   5.459 -0.0439  0.0023  0.3507
 1014YOPC   D2A14660   3.288  17.040   5.477  0.0519 -0.1720 -0.0688
 1014YOPC   C3A14661   3.380  16.818   5.894  0.0971 -0.0893  0.0967
 1014YOPC   C4A14662   3.391  16.403   6.199 -0.1309  0.0823  0.2015
 1014YOPC   C1B14663   2.931  18.075   5.656 -0.0723  0.0974  0.2996
 1014YOPC   C2B14664   2.696  18.220   5.892 -0.0940 -0.2896 -0.0674
 1014YOPC   D3B14665   2.396  18.195   5.714 -0.0190  0.0543 -0.1061
 1014YOPC   C4B14666   2.116  17.859   5.462  0.0980  0.0772 -0.2277
 1015YOPC   NC314667  18.406  10.500   5.808 -0.0209  0.7923  0.2059
 1015YOPC   PO414668  18.043  10.357   5.674 -0.2402  0.2455  0.2679
 1015YOPC   GL114669  18.023  10.354   6.142  0.2811 -0.2633  0.0970
 1015YOPC   GL214670  18.084  10.683   6.177 -0.1002 -0.1895  0.4206
 1015YOPC   C1A14671  17.854  10.171   6.508 -0.0732  0.1087  0.0207
 1015YOPC   D2A14672  17.818  10.179   6.931 -0.0681  0.0879  0.4633
 1015YOPC   C3A14673  17.980   9.996   7.202 -0.0327  0.5512 -0.1656
 1015YOPC   C4A14674  18.254   9.700   7.333  0.1686 -0.0877 -0.1779
 1015YOPC   C1B14675  18.056  10.604   6.657 -0.3124  0.0222  0.3916
 1015YOPC   C2B14676  17.816  10.920   6.816  0.2205  0.3176  0.0323
 1015YOPC   D3B14677  18.058  11.219   7.102 -0.1527  0.1569  0.2195
 1015YOPC   C4B14678  18.446  11.357   7.298  0.1274 -0.1025 -0.0103
 1016YOPC   NC314679   5.620   9.578   5.647  0.1971  0.2251 -0.3474
 1016YOPC   PO414680   5.776   9.975   5.747  0.0534  0.0143  0.1235
 1016YOPC   GL114681   5.526  10.042   6.120  0.1571 -0.1322  0.0436
 1016YOPC   GL214682   5.457   9.687   6.119 -0.0921 -0.1378  0.0461
 1016YOPC   C1A14683   5.482  10.090   6.582  0.2078  0.0317  0.0173
 1016YOPC   D2A14684   5.285   9.834   6.992 -0.0381  0.5728  0.1311
 1016YOPC   C3A14685   5.638   9.587   6.929 -0.2431  0.0142  0.0039
 1016YOPC   C4A14686   5.983   9.570   7.153 -0.3156  0.1757 -0.0187
 1016YOPC   C1B14687   5.759   9.638   6.396  0.2363  0.4184 -0.0557
 1016YOPC   C2B14688   5.924   9.299   6.629  0.0454 -0.3817 -0.1579
 1016YOPC   D3B14689   5.694   8.914   6.886  0.1015  0.2047 -0.1272
 1016YOPC   C4B14690   5.526   8.730   7.315 -0.3785  0.2472  0.1661
 1017YOPC   NC314691  13.495  13.397   5.017 -0.1588  0.2029 -0.0191
 1017YOPC   PO414692  13.378  13.013   4.955 -0.1536  0.2583  0.1029
 1017YOPC   GL114693  13.639  12.640   5.309  0.0733 -0.2357 -0.0439
 1017YOPC   GL214694  14.035  12.678   5.266  0.1402  0.2288 -0.0811
 1017YOPC   C1A14695  13.540  12.676   5.664  0.0571 -0.0156 -0.0742
 1017YOPC   D2A14696  13.266  12.791   5.978 -0.1217  0.0275 -0.1040
 1017YOPC   C3A14697  13.387  12.924   6.381  0.1893  0.1470  0.0312
 1017YOPC   C4A14698  13.661  13.300   6.451  0.2653  0.1417 -0.2182
 1017YOPC   C1B14699  14.132  12.721   5.650  0.3024  0.1245  0.1975
 1017YOPC   C2B14700  14.235  12.948   6.151  0.0831 -0.0121 -0.0846
 1017YOPC   D3B14701  14.365  12.843   6.525 -0.0892  0.1850  0.0250
 1017YOPC   C4B14702  14.244  12.811   6.873  0.1009  0.0928 -0.0226
 1018YOPC   NC314703   8.254  17.750   4.769  0.0032 -0.3382  0.2831
 1018YOPC   PO414704   8.572  18.002   4.975 -0.2144  0.0080 -0.0349
 1018YOPC   GL114705   8.629  17.986   5.448  0.1762 -0.4172  0.4063
 1018YOPC   GL214706   8.273  17.877   5.724 -0.0416  0.1543 -0.0642
 1018YOPC   C1A14707   8.735  18.166   5.780 -0.2277 -0.1469  0.2179
 1018YOPC   D2A14708   8.868  18.406   6.112 -0.0065 -0.1038 -0.1086
 1018YOPC   C3A14709   9.318  18.672   6.166 -0.0234  0.0703 -0.0052
 1018YOPC   C4A14710   9.273  19.076   6.372  0.0683  0.2483  0.1487
 1018YOPC   C1B14711   8.215  18.280   5.611 -0.3019  0.4930 -0.2802
 1018YOPC   C2B14712   8.402  18.621   5.760  0.0586  0.0043 -0.1287
 1018YOPC   D3B14713   8.427  18.620   6.200 -0.0777  0.0526  0.2078
 1018YOPC   C4B14714   8.438  18.449   6.586 -0.2466  0.1351  0.3838
 1019YOPC   NC314715  13.798   0.246   5.118  0.1802 -0.0056 -0.0912
 1019YOPC   PO414716  14.097   0.027   5.371  0.1499  0.2325 -0.3147
 1019YOPC   GL114717  14.513  -0.062   5.498 -0.4992  0.3262  0.0235
 1019YOPC   GL214718  14.776   0.159   5.449 -0.1979  0.3022 -0.1164
 1019YOPC   C1A14719  14.594  -0.149   5.897 -0.0270  0.2948 -0.0067
 1019YOPC   D2A14720  14.847  -0.373   6.175  0.2005  0.1819 -0.1049
 1019YOPC   C3A14721  14.749  -0.261   6.627  0.1345 -0.1313  0.2101
 1019YOPC   C4A14722  14.989  -0.205   6.945  0.0917  0.2944 -0.2625
 1019YOPC   C1B14723  14.971   0.367   5.870  0.2283 -0.0303  0.0296
 1019YOPC   C2B14724  15.146   0.514   6.228  0.1808  0.1958 -0.0447
 1019YOPC   D3B14725  15.523   0.473   6.216 -0.0227  0.3108 -0.0984
 1019YOPC   C4B14726  15.856   0.236   6.054 -0.1746  0.0279  0.1808
 1020YOPC   NC314727   9.148   6.133   5.560 -0.0150  0.4350  0.2589
 1020YOPC   PO414728   8.783   6.429   5.448 -0.0412 -0.1191 -0.0515
 1020YOPC   GL114729   8.827   6.322   5.833  0.1552 -0.3119 -0.0816
 1020YOPC   GL214730   9.038   6.352   6.027  0.3852  0.1583 -0.1578
 1020YOPC   C1A14731   8.582   6.262   6.212 -0.0048 -0.2581 -0.2564
 1020YOPC   D2A14732   8.409   6.265   6.563 -0.2691  0.2450  0.1773
 1020YOPC   C3A14733   8.327   6.581   6.836 -0.1185 -0.2748 -0.0718
 1020YOPC   C4A14734   8.431   6.967   6.867  0.2768 -0.0872  0.2296
 1020YOPC   C1B14735   9.044   6.383   6.529 -0.1429  0.0873  0.3482
 1020YOPC   C2B14736   9.281   6.401   6.952  0.1708  0.0689 -0.2058
 1020YOPC   D3B14737   9.211   6.669   7.362  0.2217 -0.2034  0.3068
 1020YOPC   C4B14738   9.393   6.668   7.774  0.1214 -0.1030  0.1798
 1021YOPC   NC314739  18.213  13.328   4.943 -0.0163  0.1050 -0.1336
 1021YOPC   PO414740  17.781  13.395   5.078  0.3047  0.1747 -0.2550
 1021YOPC   GL114741  17.733  13.797   5.341 -0.0267 -0.1250 -0.1848
 1021YOPC   GL214742  17.448  14.006   5.352 -0.0162 -0.2464  0.2615
 1021YOPC   C1A14743  17.744  13.885   5.768 -0.1171  0.0076 -0.1547
 1021YOPC   D2A14744  17.705  13.843   6.194  0.4099 -0.1070  0.0448
 1021YOPC   C3A14745  17.334  13.694   6.479  0.2307 -0.0978  0.3107
 1021YOPC   C4A14746  16.954  13.483   6.339  0.1075 -0.1557 -0.1470
 1021YOPC   C1B14747  17.295  14.102   5.821  0.0995 -0.2187 -0.0910
 1021YOPC   C2B14748  17.306  14.315   6.123  0.0317 -0.1937  0.0619
 1021YOPC   D3B14749  17.750  14.296   6.432 -0.0822 -0.0782 -0.1855
 1021YOPC   C4B14750  18.108  14.113   6.395 -0.1259 -0.1868  0.1064
 1022YOPC   NC314751   3.950   6.279   4.649  0.1661 -0.0002 -0.0891
 1022YOPC   PO414752   3.911   6.607   4.831  0.2074  0.1693  0.3315
 1022YOPC   GL114753   3.894   6.539   5.245  0.0696  0.1450 -0.0019
 1022YOPC   GL214754   3.752   6.674   5.460  0.1888 -0.1150 -0.0264
 1022YOPC   C1A14755   4.259   6.413   5.524 -0.1015 -0.1712  0.0591
 1022YOPC   D2A14756   4.481   6.491   5.926  0.4041 -0.1138 -0.1415
 1022YOPC   C3A14757   4.247   6.273   6.186  0.1996 -0.1118 -0.1535
 1022YOPC   C4A14758   3.959   6.587   6.486  0.1977 -0.0657  0.3503
 1022YOPC   C1B14759   3.971   6.680   5.846 -0.0497 -0.0841 -0.0485
 1022YOPC   C2B14760   4.232   6.878   6.175  0.0544 -0.1154 -0.4215
 1022YOPC   D3B14761   4.680   6.716   6.327 -0.1810 -0.0151 -0.1154
 1022YOPC   C4B14762   4.789   6.649   6.765 -0.0638  0.1326 -0.1840
 1023YOPC   NC314763   0.903   2.523   5.099  0.0379 -0.2382  0.2330
 1023YOPC   PO414764   0.637   2.503   5.397  0.0054  0.0587 -0.0016
 1023YOPC   GL114765   0.497   2.319   5.734 -0.1527 -0.0665  0.2959
 1023YOPC   GL214766   0.324   2.556   5.810 -0.1710  0.0320 -0.0784
 1023YOPC   C1A14767   0.371   2.133   6.151  0.1737 -0.0967 -0.1424
 1023YOPC   D2A14768   0.027   2.012   6.442  0.0108 -0.0216  0.2110
 1023YOPC   C3A14769  -0.296   1.728   6.674 -0.0455 -0.0021 -0.0715
 1023YOPC   C4A14770  -0.705   1.553   6.762 -0.1908 -0.1817 -0.1103
 1023YOPC   C1B14771   0.557   2.851   5.938 -0.1882 -0.3114 -0.2958
 1023YOPC   C2B14772   0.959   3.083   6.155  0.1364  0.2695 -0.0727
 1023YOPC   D3B14773   1.173   2.960   6.519  0.0195 -0.2669  0.3593
 1023YOPC   C4B14774   1.182   3.049   6.976  0.0704 -0.1867 -0.2947
 1024YOPC   NC314775   1.851   4.846   5.187  0.1544  0.0489 -0.1600
 1024YOPC   PO414776   1.735   4.616   5.523 -0.2050 -0.1455 -0.0825
 1024YOPC   GL114777   1.723   4.472   5.954  0.0690  0.0625 -0.0575
 1024YOPC   GL214778   1.859   4.094   5.980 -0.0439 -0.1456  0.2167
 1024YOPC   C1A14779   1.625   4.454   6.436 -0.0321 -0.2797 -0.0711
 1024YOPC   D2A14780   1.378   4.851   6.740  0.0827  0.1180  0.4783
 1024YOPC   C3A14781   1.300   4.907   7.101 -0.0342  0.1820 -0.3449
 1024YOPC   C4A14782   1.314   5.024   7.443 -0.0845 -0.0553  0.0906
 1024YOPC   C1B14783   2.048   4.219   6.333  0.1355 -0.2629 -0.3973
 1024YOPC   C2B14784   1.982   4.450   6.738  0.2195 -0.2940  0.0888
 1024YOPC   D3B14785   1.631   4.417   6.984  0.0065  0.4812 -0.2670
 1024YOPC   C4B14786   1.480   4.512   7.321  0.2794 -0.0919  0.2038
 1025YOPC   NC314787  15.866   2.387   4.932  0.0059  0.2800 -0.1040
 1025YOPC   PO414788  15.599   2.138   5.093 -0.1354 -0.1990 -0.0212
 1025YOPC   GL114789  15.524   2.074   5.585 -0.0726 -0.2236  0.2838
 1025YOPC   GL214790  15.411   2.377   5.578 -0.2784 -0.0034  0.0653
 1025YOPC   C1A14791  15.390   1.716   5.757  0.1216 -0.1156 -0.1097
 1025YOPC   D2A14792  15.498   1.393   6.009  0.1158 -0.2571  0.2202
 1025YOPC   C3A14793  15.192   1.216   6.269 -0.2280 -0.0575  0.1574
 1025YOPC   C4A14794  14.963   0.783   6.615 -0.1800  0.1989 -0.0982
 1025YOPC   C1B14795  15.369   2.331   5.984 -0.3781  0.1123 -0.1048
 1025YOPC   C2B14796  15.216   2.260   6.334 -0.1321 -0.1883 -0.0699
 1025YOPC   D3B14797  15.319   2.415   6.722 -0.0851  0.0351  0.2114
 1025YOPC   C4B14798  15.407   2.814   6.843  0.0420 -0.1853 -0.0837
 1026YOPC   NC314799  13.889   6.947   5.331 -0.2746 -0.2228  0.2047
 1026YOPC   PO414800  13.615   7.010   5.743  0.1163 -0.1987  0.2645
 1026YOPC   GL114801  13.826   6.861   6.118  0.0388 -0.2303 -0.1320
 1026YOPC   GL214802  14.166   6.937   6.191 -0.1563 -0.2105  0.1247
 1026YOPC   C1A14803  14.004   6.681   6.567 -0.0478 -0.0598  0.0308
 1026YOPC   D2A14804  13.967   6.344   6.856  0.1305  0.2007 -0.0569
 1026YOPC   C3A14805  13.711   6.438   7.161 -0.4459  0.3036  0.1396
 1026YOPC   C4A14806  13.459   6.742   7.196  0.3065  0.1503 -0.0198
 1026YOPC   C1B14807  14.030   7.171   6.408  0.1530  0.0479 -0.0578
 1026YOPC   C2B14808  13.981   7.599   6.658 -0.2579 -0.0924  0.0488
 1026YOPC   D3B14809  14.235   7.582   7.047  0.1956  0.1507 -0.2274
 1026YOPC   C4B14810  14.283   7.679   7.409 -0.1861 -0.1396  0.1364
 1027YOPC   NC314811   5.841  14.290   4.402 -0.0622 -0.4958 -0.4789
 1027YOPC   PO414812   5.719  14.082   4.801 -0.2643 -0.0691  0.0676
 1027YOPC   GL114813   6.073  14.038   5.140 -0.1485 -0.6044  0.2342
 1027YOPC   GL214814   6.002  14.303   5.190  0.2470 -0.0108 -0.6406
 1027YOPC   C1A14815   6.182  14.138   5.626 -0.0808  0.0788 -0.2722
 1027YOPC   D2A14816   6.370  14.253   6.068 -0.0832 -0.2302 -0.2038
 1027YOPC   C3A14817   6.856  14.570   6.067 -0.1466  0.0674 -0.0238
 1027YOPC   C4A14818   7.269  14.791   6.028 -0.0680 -0.1864  0.0918
 1027YOPC   C1B14819   5.813  14.419   5.523  0.0589  0.1689  0.2235
 1027YOPC   C2B14820   5.412  14.635   5.715  0.0763 -0.1864 -0.0529
 1027YOPC   D3B14821   5.382  14.469   6.135  0.3628  0.0208  0.0987
 1027YOPC   C4B14822   5.299  14.500   6.591 -0.2807 -0.2336  0.3228
 1028YOPC   NC314823   5.021   1.769   4.801 -0.0841 -0.1013 -0.2680
 1028YOPC   PO414824   5.195   1.951   5.248  0.2069  0.1081  0.1562
 1028YOPC   GL114825   5.206   2.021   5.701  0.0062  0.3935 -0.2829
 1028YOPC   GL214826   5.092   2.353   5.731 -0.0920 -0.1678 -0.1241
 1028YOPC   C1A14827   5.378   2.229   6.117  0.0427 -0.2085  0.0968
 1028YOPC   D2A14828   5.842   2.441   6.262  0.0251 -0.0404  0.1643
 1028YOPC   C3A14829   6.263   2.327   6.398  0.0993  0.0392  0.1763
 1028YOPC   C4A14830   6.270   2.100   6.808 -0.0127  0.1314 -0.0358
 1028YOPC   C1B14831   4.776   1.977   5.989  0.1320  0.2915  0.0048
 1028YOPC   C2B14832   4.689   1.860   6.491  0.0532 -0.0808 -0.0637
 1028YOPC   D3B14833   4.340   1.813   6.633 -0.1332  0.2856 -0.0626
 1028YOPC   C4B14834   4.051   1.773   6.963  0.2948  0.0448  0.0873
 1029YOPC   NC314835   4.633   8.953   5.466 -0.1471 -0.1727  0.0673
 1029YOPC   PO414836   4.730   9.304   5.659  0.3227  0.1396  0.0378
 1029YOPC   GL114837   4.632   9.020   5.954  0.1103  0.0117  0.3153
 1029YOPC   GL214838   4.645   9.175   6.243 -0.2263 -0.0205  0.0048
 1029YOPC   C1A14839   4.686   8.679   6.144 -0.2686  0.1044  0.0335
 1029YOPC   D2A14840   5.082   8.404   6.399 -0.1053  0.2988 -0.1872
 1029YOPC   C3A14841   4.915   8.375   6.742  0.1236 -0.0101  0.2594
 1029YOPC   C4A14842   4.766   8.459   7.124 -0.2799  0.1484  0.0425
 1029YOPC   C1B14843   4.851   9.461   6.348 -0.1795  0.0252 -0.0255
 1029YOPC   C2B14844   4.764   9.503   6.773  0.0364  0.0138 -0.0373
 1029YOPC   D3B14845   4.994   9.352   7.143 -0.2801 -0.2815 -0.2296
 1029YOPC   C4B14846   5.106   9.587   7.490 -0.0740  0.1742 -0.1507
 1030YOPC   NC314847   2.848  18.890   4.612  0.0786 -0.2989  0.2013
 1030YOPC   PO414848   2.985  18.787   4.883  0.0782  0.0107  0.1035
 1030YOPC   GL114849   3.158  18.887   5.271  0.2646 -0.2104  0.2699
 1030YOPC   GL214850   3.500  18.825   5.255  0.2270  0.1669  0.1996
 1030YOPC   C1A14851   3.401  19.003   5.650 -0.3558 -0.1484 -0.3019
 1030YOPC   D2A14852   3.541  19.499   5.972  0.0637  0.1642  0.3709
 1030YOPC   C3A14853   3.473  19.605   6.359 -0.1969 -0.0740  0.0545
 1030YOPC   C4A14854   3.775  19.697   6.583 -0.0487  0.1733  0.2433
 1030YOPC   C1B14855   3.369  18.424   5.556  0.0321 -0.3412 -0.1234
 1030YOPC   C2B14856   3.603  18.244   5.936 -0.0137 -0.4823 -0.0101
 1030YOPC   D3B14857   3.809  18.516   6.209  0.4914  0.0577  0.0762
 1030YOPC   C4B14858   4.173  18.460   6.385 -0.1856  0.0370  0.4413
 1031YOPC   NC314859   7.314   8.903   5.027 -0.0136 -0.0282  0.0988
 1031YOPC   PO414860   7.478   9.189   5.367 -0.0079  0.0218  0.0052
 1031YOPC   GL114861   7.615   9.368   5.718 -0.0087 -0.1672  0.0686
 1031YOPC   GL214862   7.588   9.107   5.916 -0.1035 -0.2879  0.1519
 1031YOPC   C1A14863   7.486   9.522   6.117 -0.1145 -0.0003  0.1924
 1031YOPC   D2A14864   7.284   9.769   6.497 -0.2702  0.1655  0.2972
 1031YOPC   C3A14865   7.407   9.831   6.921 -0.0826  0.1413  0.2520
 1031YOPC   C4A14866   7.110   9.797   7.288 -0.0191 -0.4063 -0.2669
 1031YOPC   C1B14867   7.495   9.046   6.338  0.0122  0.1701  0.1392
 1031YOPC   C2B14868   7.491   8.987   6.836 -0.2037  0.0350  0.0232
 1031YOPC   D3B14869   7.478   9.269   7.123  0.0593 -0.1747  0.2917
 1031YOPC   C4B14870   7.273   9.290   7.551 -0.2550  0.3201 -0.1039
 1032YOPC   NC314871   9.487   5.349   5.323 -0.0524  0.1381  0.1939
 1032YOPC   PO414872   9.840   5.253   5.644  0.1407 -0.1035 -0.1651
 1032YOPC   GL114873   9.861   4.966   6.011 -0.0794 -0.2665 -0.3636
 1032YOPC   GL214874  10.083   5.130   6.174 -0.0611  0.1029 -0.2535
 1032YOPC   C1A14875   9.623   4.665   6.193 -0.0095 -0.0825  0.2988
 1032YOPC   D2A14876   9.211   4.501   6.223 -0.0370 -0.2326  0.2369
 1032YOPC   C3A14877   8.944   4.783   6.190 -0.1050  0.0559  0.0392
 1032YOPC   C4A14878   8.483   4.818   6.091  0.0329 -0.2972  0.0302
 1032YOPC   C1B14879  10.214   5.144   6.598  0.1462 -0.0522 -0.4602
 1032YOPC   C2B14880  10.175   5.069   7.018  0.1107 -0.2432  0.0753
 1032YOPC   D3B14881   9.839   4.979   7.249 -0.2867  0.0897 -0.1455
 1032YOPC   C4B14882   9.741   4.907   7.696  0.0889  0.2309 -0.0762
 1033YOPC   NC314883  16.666   6.864   5.344 -0.1835  0.0551 -0.0092
 1033YOPC   PO414884  16.401   6.725   5.562 -0.0825 -0.3195 -0.0168
 1033YOPC   GL114885  16.795   6.700   5.782 -0.0829  0.0645  0.3167
 1033YOPC   GL214886  16.963   6.950   5.755  0.0511 -0.0772 -0.0853
 1033YOPC   C1A14887  17.054   6.454   5.899 -0.4270  0.1554 -0.2558
 1033YOPC   D2A14888  17.357   6.487   6.216  0.1831  0.1920  0.2415
 1033YOPC   C3A14889  17.297   6.558   6.546  0.1601 -0.0409 -0.1619
 1033YOPC   C4A14890  17.175   6.556   6.981  0.0391 -0.2269 -0.1520
 1033YOPC   C1B14891  16.929   6.897   6.170  0.0144 -0.2067 -0.1109
 1033YOPC   C2B14892  16.860   6.742   6.628 -0.2317 -0.0685  0.2033
 1033YOPC   D3B14893  16.907   6.271   6.631  0.1054  0.2803  0.2544
 1033YOPC   C4B14894  17.170   5.873   6.940  0.0010 -0.1913 -0.3877
 1034YOPC   NC314895   2.721   4.172   5.499  0.4789  0.0043  0.0435
 1034YOPC   PO414896   2.326   4.341   5.382  0.0162  0.0852  0.4123
 1034YOPC   GL114897   2.356   4.148   5.827 -0.1690  0.2439  0.1494
 1034YOPC   GL214898   2.225   4.445   5.899 -0.0110 -0.1169 -0.1383
 1034YOPC   C1A14899   2.453   3.899   6.269  0.1021  0.1521  0.0777
 1034YOPC   D2A14900   2.564   3.525   6.365 -0.1245  0.1720 -0.0520
 1034YOPC   C3A14901   2.561   3.274   6.169  0.2034  0.4343 -0.0503
 1034YOPC   C4A14902   2.416   3.077   5.832  0.1708 -0.1840  0.2711
 1034YOPC   C1B14903   2.484   4.571   6.231 -0.0038 -0.0417  0.1895
 1034YOPC   C2B14904   2.498   4.574   6.590  0.1725  0.1049  0.0645
 1034YOPC   D3B14905   2.430   4.250   6.837  0.1903  0.1694 -0.2306
 1034YOPC   C4B14906   2.371   3.815   6.760  0.1698  0.0648  0.0791
 1035YOPC   NC314907  17.408  14.324   4.604  0.3298 -0.1767  0.1395
 1035YOPC   PO414908  17.011  14.497   4.731  0.0727  0.0264 -0.1344
 1035YOPC   GL114909  17.109  14.338   5.082 -0.0221  0.3053  0.2099
 1035YOPC   GL214910  17.409  14.432   5.123 -0.0647  0.1947 -0.0964
 1035YOPC   C1A14911  17.123  14.455   5.509 -0.1498  0.1480  0.0004
 1035YOPC   D2A14912  16.985  14.766   5.682  0.0431 -0.1885 -0.1757
 1035YOPC   C3A14913  17.037  14.816   6.118 -0.0719  0.0822  0.2939
 1035YOPC   C4A14914  17.086  14.805   6.610  0.2419 -0.0349  0.2106
 1035YOPC   C1B14915  17.705  14.419   5.521 -0.0824 -0.1105 -0.0591
 1035YOPC   C2B14916  17.784  14.330   5.929  0.3211 -0.1073  0.2624
 1035YOPC   D3B14917  18.204  14.125   5.909  0.0782  0.4621  0.3267
 1035YOPC   C4B14918  18.536  13.817   6.053  0.2017  0.1714  0.3241
 1036YOPC   NC314919  10.563   8.367   5.439 -0.0315  0.2400  0.1183
 1036YOPC   PO414920  10.601   8.639   5.744 -0.1378  0.0892  0.0472
 1036YOPC   GL114921  10.494   8.868   6.021  0.2728  0.0942  0.3074
 1036YOPC   GL214922  10.238   9.207   5.933  0.2140  0.2266  0.0362
 1036YOPC   C1A14923  10.290   8.697   6.334 -0.2957  0.1512  0.0346
 1036YOPC   D2A14924  10.140   8.547   6.705 -0.0212  0.1185 -0.0702
 1036YOPC   C3A14925  10.388   8.307   6.908 -0.0964 -0.1679  0.0613
 1036YOPC   C4A14926  10.526   8.050   7.151  0.1623 -0.1111 -0.2138
 1036YOPC   C1B14927  10.251   9.171   6.312  0.1555 -0.2042  0.1013
 1036YOPC   C2B14928  10.588   9.027   6.480 -0.1838 -0.1531 -0.2971
 1036YOPC   D3B14929  10.763   8.712   6.413  0.1895  0.1117 -0.3150
 1036YOPC   C4B14930  10.676   8.292   6.405  0.0915  0.1310  0.1396
 1037YOPC   NC314931   6.161  13.773   4.725  0.0214 -0.0552  0.3277
 1037YOPC   PO414932   6.299  13.388   4.506  0.1346  0.1313 -0.2905
 1037YOPC   GL114933   6.285  13.275   4.908  0.1813 -0.4405  0.0200
 1037YOPC   GL214934   6.025  13.253   5.143 -0.1771 -0.2207  0.1414
 1037YOPC   C1A14935   6.605  13.208   5.230 -0.0609  0.1194 -0.0764
 1037YOPC   D2A14936   6.612  13.224   5.629 -0.2301 -0.2614 -0.0748
 1037YOPC   C3A14937   6.971  13.239   5.952  0.0466 -0.2706  0.0892
 1037YOPC   C4A14938   7.115  13.625   6.055  0.1686  0.0531  0.1395
 1037YOPC   C1B14939   6.077  13.225   5.557  0.0886  0.0440  0.2298
 1037YOPC   C2B14940   5.948  13.143   5.993  0.0796 -0.0908  0.2522
 1037YOPC   D3B14941   5.909  13.342   6.356 -0.2098 -0.2966 -0.0874
 1037YOPC   C4B14942   6.212  13.529   6.684  0.2115 -0.1205 -0.0700
 1038YOPC   NC314943  13.963  18.929   5.141  0.0419  0.2217  0.1822
 1038YOPC   PO414944  14.210  18.513   5.161  0.1552  0.0632  0.4430
 1038YOPC   GL114945  14.057  18.599   5.619  0.0904 -0.0150  0.0672
 1038YOPC   GL214946  13.809  18.701   5.673  0.0463 -0.0296  0.1094
 1038YOPC   C1A14947  14.199  18.541   6.118  0.1877  0.1845  0.1310
 1038YOPC   D2A14948  13.984  18.360   6.375 -0.1485 -0.1003  0.0061
 1038YOPC   C3A14949  13.934  18.631   6.782  0.2684  0.2028  0.0735
 1038YOPC   C4A14950  13.764  19.037   6.989 -0.0910  0.0987 -0.0480
 1038YOPC   C1B14951  13.680  18.698   6.038 -0.0085  0.1432  0.1370
 1038YOPC   C2B14952  13.592  18.829   6.427  0.1883  0.3479 -0.2326
 1038YOPC   D3B14953  13.278  18.687   6.685 -0.1031  0.1033 -0.2120
 1038YOPC   C4B14954  12.934  18.961   6.811 -0.0197 -0.0924 -0.1396
 1039YOPC   NC314955  18.020  16.910   5.268 -0.1943  0.1025 -0.0833
 1039YOPC   PO414956  18.501  16.822   5.322  0.3474 -0.0369 -0.1362
 1039YOPC   GL114957  18.768  16.866   5.789 -0.4311 -0.3690 -0.0547
 1039YOPC   GL214958  18.804  16.585   5.836 -0.0622 -0.0385 -0.1928
 1039YOPC   C1A14959  18.747  16.980   6.158  0.3401 -0.0951 -0.3056
 1039YOPC   D2A14960  18.557  17.128   6.484  0.1621 -0.4299 -0.4099
 1039YOPC   C3A14961  18.509  16.884   6.827 -0.5154  0.0040 -0.1938
 1039YOPC   C4A14962  18.416  16.814   7.192 -0.0503  0.1413 -0.0806
 1039YOPC   C1B14963  19.077  16.332   6.153  0.1119 -0.1316 -0.3428
 1039YOPC   C2B14964  19.364  15.960   6.172 -0.1590  0.0414  0.1426
 1039YOPC   D3B14965  19.350  15.638   6.548 -0.1544  0.0651  0.1434
 1039YOPC   C4B14966  19.420  15.377   6.925  0.0416  0.1457  0.0338
 1040YOPC   NC314967   6.154  18.209   4.402  0.0949  0.2709  0.3722
 1040YOPC   PO414968   6.542  18.076   4.638  0.2821 -0.0312 -0.0252
 1040YOPC   GL114969   6.724  18.189   5.087  0.0130  0.2487 -0.0835
 1040YOPC   GL214970   6.449  17.955   5.294 -0.1230  0.0216 -0.1632
 1040YOPC   C1A14971   6.947  17.934   5.327  0.4174  0.1117 -0.2131
 1040YOPC   D2A14972   7.188  18.102   5.744 -0.0619  0.0418  0.0499
 1040YOPC   C3A14973   6.977  18.157   6.172  0.0389 -0.1247 -0.1346
 1040YOPC   C4A14974   7.077  18.212   6.596 -0.1249 -0.1090  0.0147
 1040YOPC   C1B14975   6.593  18.170   5.618 -0.0642 -0.2778  0.0306
 1040YOPC   C2B14976   6.736  18.502   5.884  0.1764  0.1041  0.0682
 1040YOPC   D3B14977   6.616  18.885   5.656 -0.3430  0.1237 -0.2089
 1040YOPC   C4B14978   6.633  19.258   5.575 -0.1025  0.1600 -0.0389
 1041YOPC   NC314979  15.492   8.315   5.376  0.1524  0.1741  0.1397
 1041YOPC   PO414980  15.219   8.460   5.677 -0.1344 -0.1260 -0.2650
 1041YOPC   GL114981  14.886   8.557   6.013 -0.1259 -0.4932  0.1558
 1041YOPC   GL214982  14.987   8.800   6.192  0.2853  0.0512  0.1060
 1041YOPC   C1A14983  14.558   8.403   6.180 -0.0013 -0.1860  0.1565
 1041YOPC   D2A14984  14.271   8.278   6.422 -0.3145  0.2414  0.0401
 1041YOPC   C3A14985  14.382   7.838   6.442  0.2997 -0.3534  0.1614
 1041YOPC   C4A14986  14.477   7.387   6.313  0.2128  0.1847  0.2338
 1041YOPC   C1B14987  15.392   8.625   6.493  0.0512 -0.2940  0.0733
 1041YOPC   C2B14988  15.792   8.655   6.557 -0.0052  0.3080  0.0186
 1041YOPC   D3B14989  16.084   8.239   6.630 -0.2056 -0.1572 -0.2265
 1041YOPC   C4B14990  16.525   8.366   6.725  0.1176  0.2977 -0.2501
 1042YOPC   NC314991   7.905  19.564   4.899  0.2318  0.0636 -0.3139
 1042YOPC   PO414992   7.567  19.132   4.872  0.1430  0.0923  0.0633
 1042YOPC   GL114993   7.588  18.759   5.211 -0.1014 -0.2179 -0.1477
 1042YOPC   GL214994   7.324  18.852   5.234  0.1777 -0.1704 -0.3086
 1042YOPC   C1A14995   7.509  18.413   5.491  0.0267  0.0553  0.1197
 1042YOPC   D2A14996   7.316  18.595   5.843  0.0882  0.0503 -0.2996
 1042YOPC   C3A14997   7.334  18.558   6.276  0.2831  0.1661 -0.1166
 1042YOPC   C4A14998   7.442  18.712   6.689  0.0784  0.2585 -0.2469
 1042YOPC   C1B14999   7.118  19.120   5.440  0.1158  0.1932  0.1155
 1042YOPC   C2B15000   7.079  19.278   5.885  0.0120  0.2964  0.3043
 1042YOPC   D3B15001   6.912  18.996   6.051 -0.2109  0.0808  0.4400
 1042YOPC   C4B15002   6.831  18.634   6.390  0.0774  0.1031  0.1956
 1043YOPC   NC315003   9.538  13.202   5.219 -0.2624  0.0341  0.2946
 1043YOPC   PO415004   9.141  12.969   5.260  0.0111  0.1161 -0.2065
 1043YOPC   GL115005   9.168  13.096   5.702  0.1330 -0.0197  0.3469
 1043YOPC   GL215006   8.967  12.714   5.672 -0.0304  0.0340  0.1934
 1043YOPC   C1A15007   9.328  13.302   6.116  0.1955  0.0522  0.0118
 1043YOPC   D2A15008   9.154  13.439   6.587  0.2137 -0.2575 -0.2573
 1043YOPC   C3A15009   8.782  13.187   6.693  0.0576  0.1842  0.0189
 1043YOPC   C4A15010   8.647  12.863   6.898  0.0807 -0.6478  0.0114
 1043YOPC   C1B15011   8.727  12.360   5.869 -0.0237 -0.0054  0.3041
 1043YOPC   C2B15012   8.525  12.179   6.097  0.3948 -0.4678  0.0372
 1043YOPC   D3B15013   8.409  12.300   6.513 -0.3494  0.1195  0.1276
 1043YOPC   C4B15014   8.272  12.597   6.833 -0.1818 -0.2107  0.0565
 1044YOPC   NC315015   2.728   6.903   5.570  0.0083  0.0497  0.1886
 1044YOPC   PO415016   2.565   6.467   5.455 -0.1794 -0.3833 -0.0105
 1044YOPC   GL115017   2.808   6.301   5.662 -0.0716 -0.1351  0.3250
 1044YOPC   GL215018   2.958   6.468   5.830  0.0032  0.3041  0.1405
 1044YOPC   C1A15019   2.650   6.163   6.093 -0.2923  0.1649 -0.3473
 1044YOPC   D2A15020   2.439   5.981   6.448  0.2185  0.3391 -0.1809
 1044YOPC   C3A15021   2.313   5.531   6.481  0.0837 -0.0127  0.1545
 1044YOPC   C4A15022   2.320   5.183   6.859  0.1893  0.0762 -0.2832
 1044YOPC   C1B15023   2.910   6.522   6.364  0.0182  0.3643 -0.2681
 1044YOPC   C2B15024   2.991   6.287   6.716 -0.1024  0.1010 -0.0667
 1044YOPC   D3B15025   2.867   6.227   7.054 -0.0476  0.0958  0.2604
 1044YOPC   C4B15026   2.638   6.106   7.421 -0.3669 -0.1338 -0.0850
 1045YOPC   NC315027   4.059   7.954   5.276  0.1871 -0.3318  0.1684
 1045YOPC   PO415028   4.472   8.198   5.263 -0.2115  0.2532  0.0461
 1045YOPC   GL115029   4.307   8.164   5.690 -0.0086 -0.0540  0.0583
 1045YOPC   GL215030   4.423   7.881   5.687 -0.1044  0.1795 -0.2654
 1045YOPC   C1A15031   4.500   8.160   6.042  0.1937  0.0551  0.1052
 1045YOPC   D2A15032   4.631   8.206   6.415  0.1638 -0.1852 -0.0618
 1045YOPC   C3A15033   4.456   7.919   6.753  0.0825 -0.0979  0.0564
 1045YOPC   C4A15034   4.524   7.641   7.083 -0.1237  0.3148 -0.2367
 1045YOPC   C1B15035   4.762   7.622   5.888  0.0269 -0.2134  0.6231
 1045YOPC   C2B15036   5.124   7.478   6.032  0.2024 -0.3878  0.1058
 1045YOPC   D3B15037   5.287   7.483   6.456 -0.4878 -0.2822  0.1148
 1045YOPC   C4B15038   5.731   7.580   6.655 -0.3416  0.4571 -0.0807
 1046YOPC   NC315039   5.840   5.450   5.216 -0.0559 -0.1082 -0.1543
 1046YOPC   PO415040   5.975   5.833   5.472 -0.1505 -0.0223 -0.4233
 1046YOPC   GL115041   5.928   5.550   5.793 -0.0718 -0.0206 -0.4507
 1046YOPC   GL215042   5.999   5.289   5.844 -0.0409  0.0861  0.2367
 1046YOPC   C1A15043   6.045   5.557   6.312 -0.1807  0.2182  0.0457
 1046YOPC   D2A15044   6.128   5.419   6.751  0.0512 -0.1330  0.2037
 1046YOPC   C3A15045   6.144   5.674   7.058  0.3708  0.0073  0.0795
 1046YOPC   C4A15046   6.074   5.955   7.368  0.2641 -0.1997 -0.2436
 1046YOPC   C1B15047   5.835   4.875   5.863 -0.1263 -0.1419  0.1539
 1046YOPC   C2B15048   6.004   4.440   5.788  0.2685 -0.3855 -0.0688
 1046YOPC   D3B15049   6.438   4.351   5.643 -0.0133  0.0512  0.4379
 1046YOPC   C4B15050   6.709   4.086   5.761  0.3639 -0.1879  0.0484
 1047YOPC   NC315051  16.750  19.106   4.596 -0.0393 -0.1293 -0.4862
 1047YOPC   PO415052  16.621  19.296   4.942 -0.1983  0.2934 -0.3805
 1047YOPC   GL115053  16.350  19.426   5.390  0.3518  0.0436 -0.0802
 1047YOPC   GL215054  16.428  19.682   5.545  0.0577 -0.2016 -0.2138
 1047YOPC   C1A15055  15.944  19.402   5.779  0.0669 -0.2895 -0.1826
 1047YOPC   D2A15056  15.505  19.686   5.766 -0.1869  0.0320  0.2183
 1047YOPC   C3A15057  15.559  20.111   5.717 -0.1117  0.0957 -0.1165
 1047YOPC   C4A15058  15.289  20.456   5.821 -0.2311 -0.0234  0.1379
 1047YOPC   C1B15059  16.341  19.608   5.938 -0.0546 -0.3727  0.1280
 1047YOPC   C2B15060  16.198  19.690   6.407 -0.0091 -0.2985 -0.0790
 1047YOPC   D3B15061  16.353  19.446   6.693  0.1492  0.0303  0.2461
 1047YOPC   C4B15062  16.697  19.430   7.079 -0.0467 -0.1796  0.2167
 1048YOPC   NC315063   1.532  16.686   4.566  0.1272  0.2194 -0.2197
 1048YOPC   PO415064   1.886  16.673   4.797 -0.0981 -0.0157 -0.0106
 1048YOPC   GL115065   2.168  16.538   5.192  0.0523 -0.2718  0.1607
 1048YOPC   GL215066   2.307  16.799   5.266 -0.1881  0.0460 -0.0036
 1048YOPC   C1A15067   2.151  16.324   5.662 -0.2276 -0.0462  0.0263
 1048YOPC   D2A15068   2.365  16.288   5.926 -0.1090 -0.0057  0.0823
 1048YOPC   C3A15069   2.456  16.625   6.273 -0.0630 -0.1323 -0.2728
 1048YOPC   C4A15070   2.200  16.595   6.699 -0.2514  0.2080  0.1644
 1048YOPC   C1B15071   2.487  16.706   5.688 -0.1222 -0.2047 -0.0741
 1048YOPC   C2B15072   2.859  16.674   5.821 -0.1832 -0.1325  0.2431
 1048YOPC   D3B15073   2.903  16.935   6.149 -0.1776  0.2387  0.3812
 1048YOPC   C4B15074   2.920  16.992   6.633  0.2447 -0.0388 -0.0749
 1049YOPC   NC315075  18.941   5.206   5.350 -0.1165 -0.2411  0.4307
 1049YOPC   PO415076  18.479   5.364   5.415 -0.0669  0.2857  0.1019
 1049YOPC   GL115077  18.648   5.334   5.781  0.2859  0.0623  0.0875
 1049YOPC   GL215078  18.681   5.622   5.926  0.3491 -0.1521 -0.3437
 1049YOPC   C1A15079  18.392   5.140   6.152  0.0366 -0.0205 -0.0285
 1049YOPC   D2A15080  18.103   5.078   6.525  0.2113 -0.0562 -0.2160
 1049YOPC   C3A15081  18.137   4.855   6.775  0.1765  0.1254 -0.1591
 1049YOPC   C4A15082  17.842   4.713   7.235 -0.0937 -0.3422  0.0026
 1049YOPC   C1B15083  18.962   5.725   6.227 -0.0592  0.1026  0.2976
 1049YOPC   C2B15084  19.064   5.755   6.595  0.1474  0.0269 -0.1528
 1049YOPC   D3B15085  18.835   5.529   6.681 -0.1487 -0.1461  0.0250
 1049YOPC   C4B15086  18.429   5.451   6.735  0.0062  0.0127  0.1391
 1050YOPC   NC315087  15.167   3.724   5.194  0.2440 -0.2416 -0.0511
 1050YOPC   PO415088  14.797   3.923   5.466 -0.1631  0.2009  0.1800
 1050YOPC   GL115089  15.160   4.051   5.684  0.3480  0.2253  0.0756
 1050YOPC   GL215090  15.213   4.367   5.839  0.0277 -0.1962  0.0981
 1050YOPC   C1A15091  15.105   3.834   6.048 -0.1589  0.1708  0.2171
 1050YOPC   D2A15092  15.127   3.905   6.536 -0.0536 -0.1360  0.1253
 1050YOPC   C3A15093  15.199   4.291   6.706 -0.0169 -0.2153 -0.3632
 1050YOPC   C4A15094  15.298   4.725   6.879  0.0640 -0.0716  0.2872
 1050YOPC   C1B15095  15.454   4.205   6.233  0.4450 -0.1007 -0.0269
 1050YOPC   C2B15096  15.902   4.183   6.347  0.0094 -0.0635  0.1201
 1050YOPC   D3B15097  16.134   3.869   6.666 -0.3098 -0.4880 -0.2115
 1050YOPC   C4B15098  16.131   3.415   6.720  0.0731 -0.1658  0.3236
 1051YOPC   NC315099   9.669   1.639   4.659 -0.1069  0.1873  0.2512
 1051YOPC   PO415100   9.875   1.549   5.084  0.1106  0.0467  0.2454
 1051YOPC   GL115101   9.932   1.602   5.513  0.0395  0.0023  0.4773
 1051YOPC   GL215102   9.754   1.458   5.577  0.1101 -0.3812  0.3223
 1051YOPC   C1A15103   9.945   1.390   6.062 -0.1139 -0.2649 -0.2138
 1051YOPC   D2A15104   9.629   1.275   6.307 -0.1364  0.0219  0.0523
 1051YOPC   C3A15105   9.438   1.410   6.598  0.3967 -0.3134 -0.5853
 1051YOPC   C4A15106   9.235   1.552   6.986 -0.0700 -0.0802 -0.1603
 1051YOPC   C1B15107   9.281   1.372   5.423 -0.1992  0.1409 -0.0539
 1051YOPC   C2B15108   9.005   1.102   5.694  0.2100 -0.0238  0.1817
 1051YOPC   D3B15109   8.731   1.259   5.963 -0.2567  0.0299 -0.1267
 1051YOPC   C4B15110   8.512   1.271   6.377  0.3164  0.0881  0.1590
 1052YOPC   NC315111   2.483  18.884   5.053  0.0918 -0.2076  0.1472
 1052YOPC   PO415112   2.870  19.303   4.967 -0.1412 -0.2221  0.1814
 1052YOPC   GL115113   3.007  19.309   5.466  0.0672 -0.2982  0.0995
 1052YOPC   GL215114   2.712  19.115   5.380 -0.4349  0.1877  0.0739
 1052YOPC   C1A15115   3.044  19.332   5.885 -0.0779  0.0082 -0.0424
 1052YOPC   D2A15116   3.015  19.387   6.293  0.3518  0.1313  0.4721
 1052YOPC   C3A15117   2.905  19.054   6.433 -0.0559  0.1640 -0.1320
 1052YOPC   C4A15118   2.423  18.945   6.410  0.1241  0.2426  0.2331
 1052YOPC   C1B15119   2.485  19.091   5.715  0.1779  0.0439 -0.0672
 1052YOPC   C2B15120   2.545  19.243   6.080 -0.4239  0.0938  0.1422
 1052YOPC   D3B15121   2.200  19.405   6.070  0.1883 -0.2919  0.1077
 1052YOPC   C4B15122   1.816  19.468   6.113  0.0473  0.0503 -0.1334
 1053YOPC   NC315123   1.767   3.039   5.005 -0.0102 -0.1561  0.1225
 1053YOPC   PO415124   1.941   3.459   5.288  0.0440  0.3563  0.0750
 1053YOPC   GL115125   1.914   3.166   5.608  0.2494 -0.2751  0.3950
 1053YOPC   GL215126   1.571   3.261   5.664 -0.0314 -0.0412 -0.1786
 1053YOPC   C1A15127   2.024   2.759   5.776  0.2209 -0.1815 -0.3893
 1053YOPC   D2A15128   1.905   2.415   6.067  0.0115  0.0240  0.2082
 1053YOPC   C3A15129   2.111   2.396   6.460 -0.0726  0.0506 -0.1738
 1053YOPC   C4A15130   2.073   2.494   6.848  0.0298  0.0391 -0.0453
 1053YOPC   C1B15131   1.567   3.462   6.033  0.0524 -0.1963 -0.0874
 1053YOPC   C2B15132   1.435   3.331   6.392  0.0005  0.4203 -0.0517
 1053YOPC   D3B15133   1.385   3.486   6.768 -0.0236 -0.2198  0.0364
 1053YOPC   C4B15134   1.337   3.675   7.155 -0.0746  0.3819  0.0907
 1054YOPC   NC315135   1.352  16.048   4.361  0.0333  0.2920  0.0939
 1054YOPC   PO415136   1.096  16.354   4.627  0.2195  0.2110  0.0685
 1054YOPC   GL115137   1.247  16.391   5.013 -0.0206  0.1097  0.1968
 1054YOPC   GL215138   1.546  16.350   5.013  0.2076  0.4841 -0.1636
 1054YOPC   C1A15139   1.305  16.580   5.434 -0.0804 -0.1179  0.1134
 1054YOPC   D2A15140   1.304  16.858   5.767  0.1757 -0.0112  0.0147
 1054YOPC   C3A15141   1.071  16.940   5.953  0.0296 -0.0093  0.3546
 1054YOPC   C4A15142   0.810  17.035   6.404 -0.0278  0.2275  0.2955
 1054YOPC   C1B15143   1.469  16.008   5.340 -0.3081  0.1622  0.0986
 1054YOPC   C2B15144   1.500  15.921   5.703  0.2286  0.3515  0.1780
 1054YOPC   D3B15145   1.695  16.206   6.013  0.0499 -0.0153 -0.0156
 1054YOPC   C4B15146   2.011  16.334   6.302 -0.1549 -0.2324 -0.0508
 1055YOPC   NC315147  17.386  15.593   5.412 -0.1186  0.0146  0.0324
 1055YOPC   PO415148  17.272  15.315   5.070 -0.2413 -0.1860  0.1119
 1055YOPC   GL115149  16.896  15.271   5.357 -0.0407 -0.0349 -0.0240
 1055YOPC   GL215150  16.602  15.525   5.213 -0.1148 -0.0816  0.1704
 1055YOPC   C1A15151  16.693  15.111   5.702 -0.2493 -0.1669 -0.0907
 1055YOPC   D2A15152  16.773  15.202   6.099 -0.3615  0.2745  0.1575
 1055YOPC   C3A15153  17.108  15.320   6.292  0.1423  0.0004  0.2062
 1055YOPC   C4A15154  17.141  15.287   6.750 -0.0141 -0.1191  0.2452
 1055YOPC   C1B15155  16.330  15.370   5.489 -0.1975 -0.0378 -0.0205
 1055YOPC   C2B15156  16.218  15.163   5.789 -0.0530 -0.1569  0.1648
 1055YOPC   D3B15157  15.841  14.982   5.939  0.0967  0.3227  0.0923
 1055YOPC   C4B15158  15.529  14.673   5.896 -0.4189 -0.0001  0.3342
 1056YOPC   NC315159   0.579  12.185   4.886 -0.1147  0.2027 -0.2306
 1056YOPC   PO415160   0.685  12.587   5.086 -0.0127  0.0714 -0.0998
 1056YOPC   GL115161   0.626  12.389   5.456  0.4880 -0.0226 -0.0972
 1056YOPC   GL215162   0.455  12.703   5.547 -0.1143 -0.0209  0.0633
 1056YOPC   C1A15163   0.258  12.157   5.643 -0.0114 -0.1165  0.0808
 1056YOPC   D2A15164  -0.042  11.983   5.831 -0.1139  0.0425  0.0018
 1056YOPC   C3A15165  -0.038  11.594   6.070 -0.2637 -0.1742 -0.0274
 1056YOPC   C4A15166  -0.295  11.407   6.413 -0.2401  0.2204  0.0625
 1056YOPC   C1B15167   0.513  12.952   5.806  0.1109 -0.2574 -0.0833
 1056YOPC   C2B15168   0.681  12.915   6.178 -0.1166 -0.0352  0.3629
 1056YOPC   D3B15169   1.098  12.678   6.392 -0.1200 -0.0066  0.0434
 1056YOPC   C4B15170   1.403  12.377   6.229  0.3258  0.2322  0.1057
 1057YOPC   NC315171  15.663  15.469   4.949 -0.1922  0.0185 -0.0443
 1057YOPC   PO415172  15.724  15.562   5.392  0.1819 -0.2486 -0.0363
 1057YOPC   GL115173  16.030  15.646   5.745 -0.5400  0.1874  0.3554
 1057YOPC   GL215174  16.225  15.847   5.616 -0.0366 -0.0405 -0.3742
 1057YOPC   C1A15175  16.043  15.845   6.102 -0.0886  0.0263  0.1155
 1057YOPC   D2A15176  16.218  15.793   6.378  0.0900 -0.0854 -0.1409
 1057YOPC   C3A15177  16.210  15.926   6.756  0.2954  0.1164 -0.1522
 1057YOPC   C4A15178  15.988  15.772   7.092  0.1002  0.2285  0.0539
 1057YOPC   C1B15179  16.427  15.545   5.992  0.2015 -0.0376 -0.0517
 1057YOPC   C2B15180  16.297  15.255   6.285 -0.1167  0.0313 -0.0978
 1057YOPC   D3B15181  16.584  15.446   6.514 -0.0535 -0.3597 -0.2382
 1057YOPC   C4B15182  16.764  15.695   6.281 -0.0136 -0.0075  0.0167
 1058YOPC   NC315183   6.657  10.639   5.020 -0.1303 -0.2135  0.0575
 1058YOPC   PO415184   6.427  10.882   5.318 -0.0929 -0.3879  0.1491
 1058YOPC   GL115185   6.412  10.992   5.772 -0.2476  0.2730 -0.0358
 1058YOPC   GL215186   6.150  11.231   5.758 -0.2163  0.0473 -0.2175
 1058YOPC   C1A15187   6.509  10.917   6.229  0.2304  0.1219  0.1696
 1058YOPC   D2A15188   6.477  10.856   6.567 -0.0785 -0.0865 -0.0155
 1058YOPC   C3A15189   6.161  10.666   6.678 -0.0633  0.2407  0.0193
 1058YOPC   C4A15190   6.035  10.649   7.096 -0.0960 -0.1425  0.0415
 1058YOPC   C1B15191   6.333  11.460   6.050 -0.0006 -0.1230 -0.0726
 1058YOPC   C2B15192   6.562  11.445   6.306 -0.0766 -0.0675 -0.2471
 1058YOPC   D3B15193   6.456  11.307   6.815  0.2733  0.0882  0.3895
 1058YOPC   C4B15194   6.456  11.417   7.199  0.1618  0.0891 -0.4597
 1059YOPC   NC315195   4.735  13.668   4.811  0.0125  0.0898 -0.2545
 1059YOPC   PO415196   4.585  13.315   4.597  0.2691  0.1367 -0.1492
 1059YOPC   GL115197   4.238  13.499   5.027 -0.1372 -0.0935 -0.0806
 1059YOPC   GL215198   3.962  13.576   4.935 -0.2018 -0.0287 -0.5218
 1059YOPC   C1A15199   4.069  13.858   5.363 -0.1282  0.1204 -0.1240
 1059YOPC   D2A15200   3.994  13.947   5.840 -0.0894 -0.1722 -0.0143
 1059YOPC   C3A15201   3.680  13.907   6.100  0.2709  0.0045  0.0296
 1059YOPC   C4A15202   3.288  13.632   6.217 -0.1061  0.1872  0.3197
 1059YOPC   C1B15203   3.833  13.238   5.225 -0.1907 -0.1355  0.2900
 1059YOPC   C2B15204   4.164  12.908   5.496 -0.3195 -0.1723  0.2157
 1059YOPC   D3B15205   4.085  12.518   5.800  0.2133  0.2169  0.1453
 1059YOPC   C4B15206   3.898  12.241   6.128  0.0036 -0.0219 -0.4808
 1060YOPC   NC315207   2.251   6.879   5.355 -0.1190 -0.2405 -0.2531
 1060YOPC   PO415208   1.820   6.817   5.236  0.0129 -0.3910  0.4814
 1060YOPC   GL115209   1.747   6.965   5.662  0.0769  0.1591 -0.3062
 1060YOPC   GL215210   1.501   6.764   5.765  0.1366  0.0856  0.0893
 1060YOPC   C1A15211   1.650   7.374   5.792 -0.2661 -0.0855 -0.0009
 1060YOPC   D2A15212   1.694   7.777   5.959  0.1453  0.0421  0.2842
 1060YOPC   C3A15213   2.083   7.882   6.149  0.3602  0.2146  0.0047
 1060YOPC   C4A15214   2.518   7.732   6.086 -0.2585 -0.6285 -0.0393
 1060YOPC   C1B15215   1.620   6.987   6.130 -0.2637  0.0746 -0.1178
 1060YOPC   C2B15216   1.433   7.006   6.589 -0.3249  0.0032 -0.0086
 1060YOPC   D3B15217   1.634   6.985   7.039 -0.1605 -0.1961 -0.1080
 1060YOPC   C4B15218   1.763   7.045   7.423  0.2885 -0.0919 -0.2035
 1061YOPC   NC315219   9.927   3.790   5.548  0.2424  0.4173 -0.0637
 1061YOPC   PO415220   9.746   4.192   5.511  0.1260 -0.1090  0.1805
 1061YOPC   GL115221   9.833   4.236   5.907  0.3256  0.1948  0.0576
 1061YOPC   GL215222   9.777   3.965   6.011  0.0021  0.1384  0.0047
 1061YOPC   C1A15223   9.686   4.234   6.441  0.3500 -0.0127 -0.0923
 1061YOPC   D2A15224   9.473   4.501   6.734  0.0360  0.0848 -0.3941
 1061YOPC   C3A15225   9.132   4.498   6.965 -0.0562  0.2579  0.3114
 1061YOPC   C4A15226   8.814   4.696   6.716  0.4257 -0.3002 -0.2387
 1061YOPC   C1B15227   9.393   3.963   6.052 -0.1981 -0.1310 -0.0161
 1061YOPC   C2B15228   8.988   3.907   5.966  0.1495  0.0194 -0.2256
 1061YOPC   D3B15229   8.701   3.758   6.222 -0.5940  0.4388 -0.0560
 1061YOPC   C4B15230   8.515   3.865   6.601  0.1101 -0.2652 -0.0779
 1062YOPC   NC315231  14.122   9.299   5.847 -0.0424 -0.0511 -0.1278
 1062YOPC   PO415232  14.559   9.240   5.664  0.4573  0.2548  0.1792
 1062YOPC   GL115233  14.510   9.014   5.989 -0.0372 -0.2181  0.0056
 1062YOPC   GL215234  14.274   8.830   5.985 -0.1856 -0.0611  0.3878
 1062YOPC   C1A15235  14.844   9.201   6.402  0.3266  0.0509  0.2771
 1062YOPC   D2A15236  15.310   9.128   6.648 -0.2413 -0.1660  0.2809
 1062YOPC   C3A15237  15.406   8.824   6.994  0.0608 -0.2172  0.0033
 1062YOPC   C4A15238  15.189   8.364   6.974  0.2098  0.0776 -0.2900
 1062YOPC   C1B15239  14.511   8.838   6.447 -0.0697  0.0370  0.2244
 1062YOPC   C2B15240  14.905   8.801   6.784  0.1362 -0.2289 -0.1458
 1062YOPC   D3B15241  14.658   8.747   7.168 -0.1572 -0.1274 -0.2716
 1062YOPC   C4B15242  14.209   8.717   7.401 -0.0121  0.0730 -0.0639
 1063YOPC   NC315243   8.602  14.219   4.762 -0.0059 -0.5067 -0.2193
 1063YOPC   PO415244   8.859  13.920   5.097 -0.1453  0.1377 -0.2174
 1063YOPC   GL115245   8.812  14.086   5.478  0.0959 -0.2635  0.1636
 1063YOPC   GL215246   8.714  14.441   5.590 -0.1375  0.3828 -0.1189
 1063YOPC   C1A15247   8.661  13.967   5.968 -0.0762 -0.2699 -0.1540
 1063YOPC   D2A15248   8.856  13.827   6.306  0.1680 -0.1106 -0.1293
 1063YOPC   C3A15249   9.392  13.826   6.332  0.1040  0.0589  0.3094
 1063YOPC   C4A15250   9.740  13.677   6.047  0.1729 -0.5166 -0.1361
 1063YOPC   C1B15251   8.487  14.769   5.984 -0.1211 -0.1025 -0.0348
 1063YOPC   C2B15252   8.666  15.156   6.117 -0.1377 -0.0880  0.2396
 1063YOPC   D3B15253   8.695  15.316   6.529  0.3882 -0.2544 -0.2459
 1063YOPC   C4B15254   8.726  15.326   7.027 -0.0296 -0.2488 -0.1203
 1064YOPC   NC315255  19.167   6.498   5.537  0.0126 -0.2571 -0.2323
 1064YOPC   PO415256  18.785   6.719   5.550  0.0457 -0.0968 -0.0172
 1064YOPC   GL115257  18.892   6.697   5.977 -0.1064  0.0709 -0.2798
 1064YOPC   GL215258  19.037   6.468   6.026 -0.0550  0.0617  0.0980
 1064YOPC   C1A15259  18.630   6.574   6.331 -0.3992  0.0140 -0.1563
 1064YOPC   D2A15260  18.783   6.688   6.723 -0.3321  0.0647 -0.1011
 1064YOPC   C3A15261  18.596   6.452   6.986  0.1692  0.1731 -0.0060
 1064YOPC   C4A15262  18.619   6.262   7.392  0.1470  0.2704 -0.0214
 1064YOPC   C1B15263  19.106   6.334   6.426 -0.0647 -0.1903 -0.1861
 1064YOPC   C2B15264  19.020   6.228   6.853  0.0058 -0.2323 -0.0830
 1064YOPC   D3B15265  19.003   6.622   7.150  0.0912 -0.1362 -0.0167
 1064YOPC   C4B15266  19.329   6.804   7.416  0.1859  0.1030  0.0847
 1065YOPC   NC315267   2.167   8.569   4.740  0.0916 -0.4219 -0.2541
 1065YOPC   PO415268   2.308   8.322   5.156  0.2700  0.0840 -0.0068
 1065YOPC   GL115269   2.073   8.227   5.581  0.0216 -0.4897  0.0862
 1065YOPC   GL215270   2.374   8.256   5.654 -0.1320  0.0715  0.0803
 1065YOPC   C1A15271   1.815   8.272   5.983 -0.2425 -0.2575  0.4429
 1065YOPC   D2A15272   1.716   8.097   6.413 -0.0329  0.3571 -0.0154
 1065YOPC   C3A15273   2.006   7.819   6.684 -0.0587 -0.0204  0.1707
 1065YOPC   C4A15274   2.309   7.538   6.502  0.1589  0.0127 -0.2364
 1065YOPC   C1B15275   2.350   8.232   6.113 -0.2883 -0.1097  0.0650
 1065YOPC   C2B15276   2.226   8.224   6.521 -0.0541 -0.1762  0.1358
 1065YOPC   D3B15277   2.459   8.217   6.955  0.0629  0.0275  0.0884
 1065YOPC   C4B15278   2.619   8.194   7.312  0.0058 -0.1798 -0.1748
 1066YOPC   NC315279   9.330   4.174   4.845  0.2030 -0.2155  0.1213
 1066YOPC   PO415280   9.009   4.311   5.005  0.2227  0.0882 -0.1109
 1066YOPC   GL115281   8.880   4.421   5.396  0.0499  0.1334  0.1648
 1066YOPC   GL215282   8.771   4.097   5.484  0.0851 -0.1955 -0.1253
 1066YOPC   C1A15283   8.474   4.483   5.485  0.0418  0.4992  0.2034
 1066YOPC   D2A15284   8.123   4.522   5.817  0.1203 -0.0710 -0.1553
 1066YOPC   C3A15285   7.903   4.116   5.720  0.0267  0.0498 -0.0137
 1066YOPC   C4A15286   7.778   3.814   5.911  0.2553 -0.2438  0.0720
 1066YOPC   C1B15287   8.483   4.064   5.857  0.2100 -0.1490  0.2400
 1066YOPC   C2B15288   8.320   4.142   6.234 -0.0591 -0.0846 -0.1418
 1066YOPC   D3B15289   7.944   4.210   6.369 -0.1340  0.1409  0.1734
 1066YOPC   C4B15290   7.672   4.371   6.701  0.3326 -0.1271  0.0310
 1067YOPC   NC315291  14.150   9.339   5.311 -0.3499 -0.1635 -0.1382
 1067YOPC   PO415292  14.283   9.654   5.580 -0.1080 -0.0073  0.1747
 1067YOPC   GL115293  14.193   9.780   5.911 -0.2535 -0.0808  0.1142
 1067YOPC   GL215294  14.112   9.636   6.238  0.1316  0.0175  0.2311
 1067YOPC   C1A15295  14.255  10.152   6.237 -0.1113  0.0752  0.0645
 1067YOPC   D2A15296  14.483  10.592   6.112 -0.0201  0.4620 -0.1539
 1067YOPC   C3A15297  14.267  10.977   6.075 -0.2445  0.1749 -0.0014
 1067YOPC   C4A15298  13.877  11.165   6.029 -0.0323 -0.2192 -0.0639
 1067YOPC   C1B15299  14.383   9.361   6.583  0.4162 -0.1297  0.0926
 1067YOPC   C2B15300  14.259   8.996   6.878 -0.0002  0.1621  0.1744
 1067YOPC   D3B15301  14.139   9.200   7.248 -0.1298 -0.4324  0.0904
 1067YOPC   C4B15302  14.222   9.173   7.638 -0.0099 -0.1566 -0.0720
 1068YOPC   NC315303   2.447  12.605   4.620 -0.2041 -0.0385 -0.3419
 1068YOPC   PO415304   2.345  12.411   5.055 -0.0168 -0.0313  0.0732
 1068YOPC   GL115305   2.284  12.289   5.442 -0.0437  0.0308  0.4627
 1068YOPC   GL215306   2.117  12.002   5.328  0.1077 -0.0920  0.0392
 1068YOPC   C1A15307   2.021  12.493   5.746 -0.1995 -0.4549  0.0616
 1068YOPC   D2A15308   1.649  12.699   5.933 -0.0497 -0.0600 -0.1228
 1068YOPC   C3A15309   1.341  12.718   5.854  0.0784 -0.2072  0.4143
 1068YOPC   C4A15310   0.931  12.523   5.858  0.1366  0.0332 -0.1848
 1068YOPC   C1B15311   2.257  11.921   5.742  0.0194 -0.2705  0.1163
 1068YOPC   C2B15312   2.278  11.706   6.156  0.0466  0.2046  0.1693
 1068YOPC   D3B15313   2.219  11.915   6.552  0.1999  0.0638  0.1085
 1068YOPC   C4B15314   2.439  12.137   6.789 -0.1109 -0.0449  0.2503
 1069YOPC   NC315315  17.680  19.532   5.077  0.2102 -0.0581 -0.0403
 1069YOPC   PO415316  17.806  19.860   5.314  0.0058 -0.0177 -0.1638
 1069YOPC   GL115317  17.593  19.812   5.742 -0.0454  0.0908 -0.1381
 1069YOPC   GL215318  17.423  20.104   5.884  0.2696  0.0561 -0.1717
 1069YOPC   C1A15319  17.676  19.427   5.924 -0.0751 -0.0755 -0.4130
 1069YOPC   D2A15320  17.649  19.029   6.108 -0.0738 -0.2774  0.0619
 1069YOPC   C3A15321  17.382  18.988   6.417  0.0152  0.0977  0.1437
 1069YOPC   C4A15322  17.034  18.749   6.507  0.1817  0.1653 -0.1387
 1069YOPC   C1B15323  17.373  20.126   6.306 -0.2754  0.4694  0.1326
 1069YOPC   C2B15324  17.331  20.063   6.706 -0.2932  0.0999  0.0344
 1069YOPC   D3B15325  17.594  19.976   6.990  0.0887  0.2842  0.1214
 1069YOPC   C4B15326  17.586  19.948   7.457 -0.4072  0.0790 -0.2406
 1070YOPC   NC315327   1.079   5.775   5.553  0.2218  0.0581  0.1554
 1070YOPC   PO415328   1.376   5.559   5.680 -0.0246 -0.3695 -0.3065
 1070YOPC   GL115329   1.202   5.593   6.063 -0.3402 -0.0743 -0.2887
 1070YOPC   GL215330   0.825   5.821   6.001  0.0406  0.0216 -0.1184
 1070YOPC   C1A15331   1.154   5.599   6.477 -0.0706  0.1354  0.2306
 1070YOPC   D2A15332   1.115   5.421   6.881  0.0644 -0.2549  0.5098
 1070YOPC   C3A15333   1.493   5.495   7.207 -0.4748  0.0652 -0.2938
 1070YOPC   C4A15334   1.905   5.679   7.333  0.0419  0.0464 -0.2605
 1070YOPC   C1B15335   0.630   5.551   6.303  0.2378  0.2020  0.0957
 1070YOPC   C2B15336   0.636   5.352   6.840 -0.0522  0.0617 -0.0460
 1070YOPC   D3B15337   0.561   5.647   7.185 -0.1126 -0.1239 -0.0803
 1070YOPC   C4B15338   0.618   5.825   7.711  0.5033  0.1939  0.3521
 1071YOPC   NC315339  18.948  18.661   5.045 -0.2604 -0.4919 -0.0925
 1071YOPC   PO415340  18.998  19.045   5.177 -0.0245  0.0451 -0.1249
 1071YOPC   GL115341  18.927  19.191   5.557 -0.2211 -0.0587  0.2977
 1071YOPC   GL215342  19.016  18.851   5.620  0.0893  0.1669  0.0224
 1071YOPC   C1A15343  19.021  19.390   5.903  0.2839 -0.2349  0.0212
 1071YOPC   D2A15344  19.196  19.681   6.086 -0.0216 -0.1601  0.1412
 1071YOPC   C3A15345  19.293  19.770   6.612 -0.1435 -0.1332  0.1037
 1071YOPC   C4A15346  19.329  19.766   7.029 -0.0108 -0.1607  0.2473
 1071YOPC   C1B15347  19.399  18.611   5.629 -0.2017 -0.2955  0.1121
 1071YOPC   C2B15348  19.757  18.648   5.768  0.0297  0.0717 -0.0290
 1071YOPC   D3B15349  19.884  18.957   5.862  0.0798 -0.2680  0.1097
 1071YOPC   C4B15350  20.068  19.303   5.857 -0.0007 -0.1231  0.0044
 1072YOPC   NC315351  19.000   7.552   5.388 -0.0333 -0.0987  0.4535
 1072YOPC   PO415352  18.970   7.868   5.295 -0.0136 -0.0351  0.0499
 1072YOPC   GL115353  18.968   7.947   5.728 -0.4490  0.0898  0.2420
 1072YOPC   GL215354  18.801   8.280   5.822 -0.2197  0.1358 -0.2705
 1072YOPC   C1A15355  19.260   7.742   5.969 -0.0170  0.4386  0.1130
 1072YOPC   D2A15356  19.191   7.633   6.345 -0.1263 -0.0761  0.1435
 1072YOPC   C3A15357  19.383   7.793   6.690  0.0053  0.0254 -0.1343
 1072YOPC   C4A15358  19.570   7.689   7.006 -0.0670  0.2548 -0.0119
 1072YOPC   C1B15359  18.865   8.381   6.208 -0.2954  0.2875  0.4526
 1072YOPC   C2B15360  19.024   8.679   6.330 -0.2120 -0.1027  0.1135
 1072YOPC   D3B15361  18.971   8.825   6.778 -0.2823 -0.1740  0.1584
 1072YOPC   C4B15362  19.215   8.818   7.130 -0.0693 -0.0331  0.0464
 1073YOPC   NC315363   8.289   9.505   5.342 -0.0171 -0.0267 -0.1176
 1073YOPC   PO415364   8.616   9.256   5.539  0.0837  0.2000  0.0203
 1073YOPC   GL115365   8.365   8.993   5.921 -0.1427 -0.0654 -0.2060
 1073YOPC   GL215366   8.049   9.032   6.172 -0.1709  0.0012 -0.0723
 1073YOPC   C1A15367   8.329   8.593   6.111  0.1625 -0.0927 -0.0416
 1073YOPC   D2A15368   8.638   8.201   6.303 -0.2397  0.0284 -0.0369
 1073YOPC   C3A15369   9.089   8.163   6.462  0.1092  0.2021  0.1922
 1073YOPC   C4A15370   9.258   8.038   6.732  0.0338 -0.1998  0.0083
 1073YOPC   C1B15371   7.910   8.942   6.608 -0.2591  0.1753 -0.1390
 1073YOPC   C2B15372   7.891   8.602   6.915 -0.1814  0.1700  0.0250
 1073YOPC   D3B15373   8.201   8.453   7.315 -0.1776 -0.2569 -0.0008
 1073YOPC   C4B15374   8.544   8.513   7.595 -0.5305  0.1107 -0.0138
 1074YOPC   NC315375  15.632  14.756   4.961 -0.2353 -0.1481 -0.0849
 1074YOPC   PO415376  15.448  15.126   5.212  0.0609  0.2667  0.1474
 1074YOPC   GL115377  15.250  15.237   5.649  0.3794  0.2834  0.1012
 1074YOPC   GL215378  14.958  15.422   5.737  0.0364  0.1812  0.1242
 1074YOPC   C1A15379  15.308  15.087   6.114  0.0773 -0.0564  0.0040
 1074YOPC   D2A15380  15.259  15.247   6.602 -0.3595 -0.3149 -0.2608
 1074YOPC   C3A15381  15.218  14.859   6.906 -0.3884 -0.1015 -0.0280
 1074YOPC   C4A15382  15.093  14.446   7.196  0.0818 -0.0912  0.1800
 1074YOPC   C1B15383  14.939  15.459   6.199 -0.3136  0.0738  0.0910
 1074YOPC   C2B15384  14.720  15.330   6.476  0.0277 -0.2593  0.0014
 1074YOPC   D3B15385  14.765  15.386   6.890  0.2785  0.0768 -0.1052
 1074YOPC   C4B15386  14.649  15.318   7.321 -0.1325 -0.0328  0.0074
 1075YOPC   NC315387   1.570  14.077   4.972  0.0669  0.0596 -0.0664
 1075YOPC   PO415388   1.408  14.437   4.840  0.2007 -0.0485 -0.2196
 1075YOPC   GL115389   1.284  14.378   5.267  0.2039  0.2326 -0.1575
 1075YOPC   GL215390   1.404  14.582   5.472 -0.2860  0.0392 -0.2728
 1075YOPC   C1A15391   0.972  14.247   5.512 -0.2100  0.0565 -0.0152
 1075YOPC   D2A15392   0.714  13.966   5.703  0.0374 -0.0510 -0.3214
 1075YOPC   C3A15393   0.309  13.916   5.752 -0.1374 -0.4274  0.3796
 1075YOPC   C4A15394   0.002  13.785   5.956  0.0045 -0.0163 -0.0652
 1075YOPC   C1B15395   1.346  14.874   5.817  0.0806  0.1179 -0.0916
 1075YOPC   C2B15396   1.577  14.898   6.259  0.2600  0.0689 -0.1370
 1075YOPC   D3B15397   1.846  15.238   6.330  0.0898  0.2188 -0.2946
 1075YOPC   C4B15398   2.153  15.280   6.683  0.1189  0.1559 -0.1517
 1076YOPC   NC315399   7.460  13.930   4.903 -0.3290  0.3400  0.2743
 1076YOPC   PO415400   7.819  14.088   4.979  0.2295 -0.0654  0.2334
 1076YOPC   GL115401   7.867  13.971   5.297  0.0728 -0.1777 -0.0251
 1076YOPC   GL215402   7.984  14.224   5.570 -0.0760 -0.2910 -0.2305
 1076YOPC   C1A15403   7.904  13.818   5.789 -0.1584  0.1382  0.0651
 1076YOPC   D2A15404   8.088  14.009   5.989  0.2029 -0.1459 -0.0041
 1076YOPC   C3A15405   8.230  14.355   6.053 -0.0660  0.0098 -0.1443
 1076YOPC   C4A15406   8.314  14.605   6.401  0.1358 -0.0193 -0.0148
 1076YOPC   C1B15407   7.704  14.369   5.862  0.1796  0.0310  0.0121
 1076YOPC   C2B15408   7.832  14.277   6.305 -0.0294 -0.0759  0.1352
 1076YOPC   D3B15409   7.916  13.777   6.405  0.4402  0.0335  0.2112
 1076YOPC   C4B15410   7.789  13.477   6.738 -0.1743  0.0154 -0.0712
 1077YOPC   NC315411  13.943   7.823   5.463 -0.1538 -0.0515 -0.2492
 1077YOPC   PO415412  13.742   7.886   5.704 -0.3115 -0.0600 -0.0925
 1077YOPC   GL115413  13.807   8.196   6.023  0.0726  0.1001  0.1120
 1077YOPC   GL215414  13.924   8.424   5.858  0.0920 -0.1476 -0.2865
 1077YOPC   C1A15415  13.464   8.393   6.332  0.0391 -0.0025  0.4615
 1077YOPC   D2A15416  13.258   8.349   6.658  0.3271  0.3306 -0.0536
 1077YOPC   C3A15417  13.342   8.386   7.061  0.0504  0.1558 -0.1324
 1077YOPC   C4A15418  13.384   8.073   7.373  0.2848 -0.2248  0.0455
 1077YOPC   C1B15419  13.897   8.601   6.337  0.2815  0.0765  0.1713
 1077YOPC   C2B15420  13.773   8.881   6.786  0.0847 -0.4198 -0.2129
 1077YOPC   D3B15421  13.678   8.716   7.232  0.1008  0.0028  0.2611
 1077YOPC   C4B15422  13.822   8.894   7.583  0.0994  0.0479 -0.2111
 1078YOPC   NC315423   4.861   0.201   4.721  0.2636  0.3475  0.1019
 1078YOPC   PO415424   4.807  -0.256   4.915 -0.4123 -0.0398 -0.2402
 1078YOPC   GL115425   4.529   0.041   5.103 -0.0002 -0.0151 -0.1538
 1078YOPC   GL215426   4.745   0.323   5.228  0.3809  0.1248  0.2096
 1078YOPC   C1A15427   4.251   0.070   5.468  0.2189 -0.1302  0.1016
 1078YOPC   D2A15428   4.098   0.045   5.860 -0.3412  0.0175 -0.3231
 1078YOPC   C3A15429   3.976  -0.237   6.259  0.2193 -0.0902  0.1557
 1078YOPC   C4A15430   3.822  -0.457   6.694 -0.0991 -0.0521  0.2901
 1078YOPC   C1B15431   4.765   0.107   5.526  0.0903 -0.1028 -0.1243
 1078YOPC   C2B15432   4.660  -0.069   5.928  0.0929  0.1867 -0.1481
 1078YOPC   D3B15433   4.503  -0.422   6.163 -0.2485  0.0494  0.0900
 1078YOPC   C4B15434   4.207  -0.648   6.324  0.1131  0.2905 -0.3405
 1079YOPC   NC315435  14.914   6.466   4.985  0.0362  0.0998  0.2282
 1079YOPC   PO415436  14.418   6.441   5.312 -0.0934 -0.0167  0.1742
 1079YOPC   GL115437  14.335   6.310   5.722 -0.0585 -0.0320  0.0312
 1079YOPC   GL215438  14.266   5.943   5.862  0.0669 -0.4423  0.2734
 1079YOPC   C1A15439  14.345   6.469   6.186 -0.0852 -0.0032  0.1334
 1079YOPC   D2A15440  14.356   6.304   6.587 -0.4404 -0.4265 -0.2713
 1079YOPC   C3A15441  14.426   6.407   6.987  0.2851 -0.1584 -0.1103
 1079YOPC   C4A15442  14.232   6.343   7.400  0.1471  0.1982  0.1972
 1079YOPC   C1B15443  14.329   5.915   6.289  0.0684 -0.0008  0.1371
 1079YOPC   C2B15444  14.241   5.857   6.697  0.2370 -0.4075 -0.0811
 1079YOPC   D3B15445  14.034   5.588   6.917 -0.4658 -0.0368  0.0206
 1079YOPC   C4B15446  13.979   5.343   7.321 -0.3103 -0.0553 -0.1457
 1080YOPC   NC315447   8.038   3.151   5.079  0.0700  0.0017  0.1771
 1080YOPC   PO415448   8.443   3.140   5.226 -0.4141  0.0157  0.1841
 1080YOPC   GL115449   8.559   2.800   5.565  0.0239 -0.0307 -0.1541
 1080YOPC   GL215450   8.874   2.829   5.775  0.3274 -0.1268 -0.1247
 1080YOPC   C1A15451   8.380   2.705   5.957  0.3557 -0.1279  0.0582
 1080YOPC   D2A15452   8.446   2.732   6.366 -0.2095  0.0804  0.0022
 1080YOPC   C3A15453   8.670   2.568   6.695 -0.1620 -0.0094  0.1693
 1080YOPC   C4A15454   9.076   2.529   6.908  0.1410 -0.1970  0.0980
 1080YOPC   C1B15455   8.901   2.829   6.193  0.0832  0.0343 -0.1461
 1080YOPC   C2B15456   8.928   2.997   6.664 -0.2941  0.0891 -0.1523
 1080YOPC   D3B15457   8.633   2.945   6.976  0.0743  0.2004 -0.0511
 1080YOPC   C4B15458   8.166   2.945   6.865  0.3235  0.0570  0.0860
 1081YOPC   NC315459   5.059  18.980   4.706  0.1643 -0.2101 -0.0578
 1081YOPC   PO415460   5.320  19.245   4.983  0.0268  0.6009 -0.0428
 1081YOPC   GL115461   5.646  18.993   5.075 -0.0638 -0.1575 -0.2896
 1081YOPC   GL215462   5.483  18.715   4.959 -0.1239  0.2503  0.2765
 1081YOPC   C1A15463   6.136  19.107   5.332 -0.4004  0.0708 -0.1881
 1081YOPC   D2A15464   6.244  19.118   5.866  0.3121 -0.2042  0.1555
 1081YOPC   C3A15465   6.410  18.977   6.401 -0.2909 -0.0985 -0.0335
 1081YOPC   C4A15466   6.739  19.036   6.654  0.1077 -0.1228 -0.0768
 1081YOPC   C1B15467   5.443  18.277   5.215 -0.6422  0.2345 -0.1717
 1081YOPC   C2B15468   5.583  17.817   5.225  0.1677  0.0304 -0.1125
 1081YOPC   D3B15469   5.556  17.708   5.757 -0.1594 -0.1088 -0.1378
 1081YOPC   C4B15470   5.580  17.995   6.104 -0.4095 -0.4310  0.0345
 1082YOPC   NC315471   6.632  11.655   4.702 -0.0412 -0.0003 -0.1732
 1082YOPC   PO415472   6.896  11.718   5.048  0.0014  0.1826 -0.3216
 1082YOPC   GL115473   6.748  11.447   5.530 -0.3336  0.2917 -0.2550
 1082YOPC   GL215474   6.390  11.597   5.576  0.1550  0.1245  0.4483
 1082YOPC   C1A15475   6.895  11.287   5.961 -0.0400  0.1227  0.0119
 1082YOPC   D2A15476   6.942  11.110   6.420 -0.0953  0.0523  0.1069
 1082YOPC   C3A15477   6.951  10.638   6.372  0.3267 -0.3030  0.0663
 1082YOPC   C4A15478   6.980  10.193   6.280  0.0349 -0.5225  0.3069
 1082YOPC   C1B15479   6.636  11.804   5.832  0.1929  0.1412 -0.1517
 1082YOPC   C2B15480   6.451  11.990   6.198 -0.2791  0.1785 -0.0964
 1082YOPC   D3B15481   6.452  11.768   6.636  0.0314 -0.0579  0.3100
 1082YOPC   C4B15482   6.600  11.872   7.057 -0.0677  0.2947  0.1155
 1083YOPC   NC315483   8.069  12.881   4.583 -0.0964 -0.1696 -0.0480
 1083YOPC   PO415484   7.864  13.082   4.904  0.0139 -0.2566 -0.0548
 1083YOPC   GL115485   7.851  13.005   5.363 -0.3353  0.2932  0.1208
 1083YOPC   GL215486   7.825  12.697   5.390 -0.0119 -0.4544 -0.1676
 1083YOPC   C1A15487   7.820  12.974   5.821 -0.1802  0.0521  0.1790
 1083YOPC   D2A15488   7.430  12.974   6.182 -0.2073 -0.1456  0.0520
 1083YOPC   C3A15489   7.104  13.261   6.481  0.3622 -0.0415  0.0891
 1083YOPC   C4A15490   6.752  13.261   6.701 -0.1475  0.1629 -0.1556
 1083YOPC   C1B15491   7.703  12.517   5.760 -0.0916  0.3216  0.0126
 1083YOPC   C2B15492   7.547  12.356   6.144 -0.0538 -0.1784  0.3181
 1083YOPC   D3B15493   7.863  12.292   6.499  0.2042  0.1291  0.4258
 1083YOPC   C4B15494   7.947  12.175   6.922  0.2325 -0.0644 -0.4044
 1084YOPC   NC315495   4.673  11.512   4.900 -0.1149  0.3696 -0.0526
 1084YOPC   PO415496   4.806  11.154   5.116  0.0450  0.1119 -0.0285
 1084YOPC   GL115497   4.886  11.390   5.350 -0.1573 -0.2813 -0.2925
 1084YOPC   GL215498   4.617  11.612   5.380 -0.0412 -0.1530  0.1047
 1084YOPC   C1A15499   5.072  11.284   5.763 -0.0338  0.1805  0.5697
 1084YOPC   D2A15500   5.146  10.901   6.006  0.1463 -0.2316 -0.0423
 1084YOPC   C3A15501   5.503  10.633   6.041  0.1543 -0.0982 -0.5575
 1084YOPC   C4A15502   5.789  10.446   6.297  0.1862 -0.1709  0.0553
 1084YOPC   C1B15503   4.515  11.544   5.868 -0.3620  0.2853 -0.1334
 1084YOPC   C2B15504   4.729  11.743   6.100  0.1034 -0.2198  0.0737
 1084YOPC   D3B15505   4.714  11.918   6.440  0.0402  0.1889 -0.0022
 1084YOPC   C4B15506   4.529  11.783   6.831 -0.1373 -0.1054  0.0861
 1085YOPC   NC315507  13.427   6.622   5.536 -0.0947 -0.0645  0.0744
 1085YOPC   PO415508  12.995   6.585   5.325 -0.4635 -0.0950 -0.0719
 1085YOPC   GL115509  13.034   6.302   5.764 -0.2052  0.1844  0.3242
 1085YOPC   GL215510  12.690   6.218   6.018 -0.1161  0.0937  0.2473
 1085YOPC   C1A15511  13.259   6.061   6.092 -0.1463  0.4295  0.0789
 1085YOPC   D2A15512  13.511   5.707   5.940 -0.1953  0.2365  0.1426
 1085YOPC   C3A15513  13.847   5.515   6.114 -0.3898 -0.0273  0.2292
 1085YOPC   C4A15514  14.312   5.455   6.214  0.2263 -0.0431 -0.0351
 1085YOPC   C1B15515  12.849   6.114   6.389 -0.1826  0.0258  0.1019
 1085YOPC   C2B15516  12.939   6.081   6.740 -0.1125 -0.2273  0.0514
 1085YOPC   D3B15517  13.065   5.742   6.973  0.0587 -0.3308  0.5582
 1085YOPC   C4B15518  13.035   5.398   7.309  0.0169 -0.0714 -0.0795
 1086YOPC   NC315519  14.738  13.854   4.966  0.2536  0.3087 -0.2277
 1086YOPC   PO415520  14.460  13.739   5.243 -0.0964 -0.0000  0.2166
 1086YOPC   GL115521  14.309  13.390   5.398 -0.0564  0.0090 -0.1268
 1086YOPC   GL215522  14.453  13.044   5.415  0.0978  0.0412 -0.2193
 1086YOPC   C1A15523  13.959  13.190   5.729  0.0984  0.1666 -0.4453
 1086YOPC   D2A15524  13.776  13.003   6.016 -0.2244  0.1920  0.1189
 1086YOPC   C3A15525  13.874  12.878   6.551  0.1327 -0.1303  0.0462
 1086YOPC   C4A15526  13.728  12.513   6.889 -0.0672  0.0273 -0.2708
 1086YOPC   C1B15527  14.694  13.020   5.843  0.2403 -0.3400  0.1811
 1086YOPC   C2B15528  14.988  13.394   5.962 -0.2284  0.0468  0.0009
 1086YOPC   D3B15529  14.750  13.634   6.204  0.0518  0.3449 -0.2120
 1086YOPC   C4B15530  14.653  13.969   6.447  0.1134 -0.0647  0.1291
 1087YOPC   NC315531  18.912   1.864   5.127 -0.0830 -0.1450 -0.1536
 1087YOPC   PO415532  19.252   2.138   5.170 -0.1943 -0.0504 -0.0153
 1087YOPC   GL115533  19.431   1.871   5.434 -0.3556 -0.3411  0.2694
 1087YOPC   GL215534  19.677   2.005   5.647 -0.0413 -0.1691  0.1813
 1087YOPC   C1A15535  19.432   1.500   5.672 -0.2341 -0.3470 -0.4984
 1087YOPC   D2A15536  19.464   1.111   5.852  0.0106  0.0627 -0.1937
 1087YOPC   C3A15537  19.769   0.880   5.561 -0.0922 -0.1621  0.0744
 1087YOPC   C4A15538  20.230   0.911   5.508  0.0240  0.0297 -0.0346
 1087YOPC   C1B15539  19.377   1.909   5.937  0.3421  0.0437  0.0523
 1087YOPC   C2B15540  19.150   1.979   6.179  0.1594  0.2822  0.2393
 1087YOPC   D3B15541  19.062   1.513   6.329 -0.5105  0.0827  0.0461
 1087YOPC   C4B15542  18.729   1.358   6.326  0.1053 -0.1211  0.0364
 1088YOPC   NC315543  19.552   3.051   4.998 -0.0977 -0.1122  0.0473
 1088YOPC   PO415544  19.353   2.670   5.096  0.0364  0.1759 -0.4040
 1088YOPC   GL115545  19.158   2.788   5.441  0.2573  0.3858  0.2710
 1088YOPC   GL215546  18.884   2.566   5.533 -0.3077 -0.0825  0.3429
 1088YOPC   C1A15547  19.186   2.924   5.717 -0.2629  0.2705  0.0207
 1088YOPC   D2A15548  19.181   3.284   5.826  0.3820 -0.3645 -0.2945
 1088YOPC   C3A15549  19.457   3.352   6.148  0.2233  0.1311 -0.2266
 1088YOPC   C4A15550  19.455   3.471   6.586  0.0463  0.0813  0.0704
 1088YOPC   C1B15551  18.818   2.762   6.003  0.0595  0.0869  0.1141
 1088YOPC   C2B15552  19.180   2.970   6.228 -0.0231 -0.2027  0.1319
 1088YOPC   D3B15553  19.303   2.991   6.574  0.1059  0.0531 -0.0511
 1088YOPC   C4B15554  19.456   3.171   6.952 -0.1219  0.2130 -0.2204
 1089YOPC   NC315555  15.157   4.562   5.324 -0.3128 -0.4277 -0.2651
 1089YOPC   PO415556  15.130   4.980   5.409  0.1732  0.2350 -0.0030
 1089YOPC   GL115557  15.325   5.056   5.910 -0.1639 -0.5023  0.2131
 1089YOPC   GL215558  15.224   5.343   5.993  0.1763  0.0162  0.0962
 1089YOPC   C1A15559  15.533   4.746   6.236  0.4402 -0.0127 -0.3645
 1089YOPC   D2A15560  15.635   4.499   6.638 -0.1145 -0.1409  0.0971
 1089YOPC   C3A15561  15.598   4.042   6.826  0.1945 -0.0608  0.0199
 1089YOPC   C4A15562  15.203   3.855   7.041 -0.1078 -0.2055 -0.2114
 1089YOPC   C1B15563  15.300   5.350   6.353  0.1013  0.1243 -0.0304
 1089YOPC   C2B15564  15.333   5.235   6.750 -0.0837  0.2196 -0.3255
 1089YOPC   D3B15565  15.700   5.142   7.054 -0.2622 -0.1524  0.2875
 1089YOPC   C4B15566  16.008   5.108   7.317  0.3946 -0.0584 -0.1544
 1090YOPC   NC315567   7.794  17.130   4.562 -0.1954  0.0839 -0.2395
 1090YOPC   PO415568   8.009  17.312   4.853 -0.2129 -0.1645  0.2845
 1090YOPC   GL115569   8.067  17.502   5.202 -0.1009 -0.0506  0.2358
 1090YOPC   GL215570   7.739  17.515   5.333  0.2914  0.4395  0.0320
 1090YOPC   C1A15571   8.324  17.399   5.542 -0.0713  0.1401 -0.4272
 1090YOPC   D2A15572   8.221  17.332   5.959  0.0821  0.0542 -0.2526
 1090YOPC   C3A15573   8.245  17.670   6.135 -0.0409 -0.0559 -0.2024
 1090YOPC   C4A15574   8.119  18.137   6.058 -0.4234 -0.0790 -0.0565
 1090YOPC   C1B15575   7.847  17.586   5.718 -0.0539 -0.1886  0.1775
 1090YOPC   C2B15576   7.739  17.630   6.092 -0.0948  0.0802  0.0754
 1090YOPC   D3B15577   7.913  17.747   6.539  0.1296 -0.1684  0.3473
 1090YOPC   C4B15578   8.324  17.732   6.744  0.4197  0.1233  0.0433
 1091YOPC   NC315579   3.383  16.629   5.241  0.0640 -0.0455  0.0856
 1091YOPC   PO415580   3.674  16.838   4.922  0.3287 -0.1495 -0.2173
 1091YOPC   GL115581   3.917  16.763   5.260 -0.0662  0.0670 -0.0995
 1091YOPC   GL215582   3.806  16.708   5.587  0.1209 -0.0795  0.4172
 1091YOPC   C1A15583   4.192  17.019   5.542 -0.0058 -0.0484 -0.0476
 1091YOPC   D2A15584   4.313  17.444   5.835 -0.0156  0.0648  0.0999
 1091YOPC   C3A15585   4.143  17.496   6.263 -0.1517 -0.0497 -0.0987
 1091YOPC   C4A15586   3.847  17.491   6.549  0.2714  0.2129 -0.0322
 1091YOPC   C1B15587   4.230  16.521   5.651  0.4037  0.0725  0.1545
 1091YOPC   C2B15588   4.320  16.183   5.711  0.2919 -0.1972  0.2253
 1091YOPC   D3B15589   4.576  16.117   5.945  0.1287  0.0480  0.0649
 1091YOPC   C4B15590   4.777  16.067   6.355  0.0956 -0.1228 -0.4384
 1092YOPC   NC315591   2.489  15.873   4.774  0.0902  0.1206  0.1670
 1092YOPC   PO415592   2.509  15.615   4.462  0.0950  0.3001 -0.1837
 1092YOPC   GL115593   2.421  15.419   4.929  0.1877 -0.2296 -0.0437
 1092YOPC   GL215594   2.150  15.639   5.033  0.0818  0.0962  0.1976
 1092YOPC   C1A15595   2.595  15.544   5.463  0.3033  0.2408  0.0068
 1092YOPC   D2A15596   2.840  15.907   5.626 -0.0858 -0.3191 -0.0169
 1092YOPC   C3A15597   3.011  16.169   5.973  0.2755  0.0140  0.0075
 1092YOPC   C4A15598   2.909  16.361   6.413  0.2537 -0.1471  0.0134
 1092YOPC   C1B15599   2.226  15.823   5.409 -0.0136  0.3381 -0.0781
 1092YOPC   C2B15600   2.013  15.765   5.810  0.0055  0.0791 -0.1343
 1092YOPC   D3B15601   2.375  15.633   5.973  0.0032 -0.0025 -0.2114
 1092YOPC   C4B15602   2.723  15.799   6.093  0.1710 -0.0991 -0.2319
 1093YOPC   NC315603  10.499   4.767   5.325  0.0190 -0.0804 -0.1299
 1093YOPC   PO415604  10.916   4.688   5.373 -0.1139  0.0257 -0.4479
 1093YOPC   GL115605  11.062   4.580   5.740  0.0248  0.0153  0.0902
 1093YOPC   GL215606  10.815   4.556   6.036  0.1606  0.3672 -0.2832
 1093YOPC   C1A15607  11.353   4.665   6.063 -0.2099  0.2758  0.1301
 1093YOPC   D2A15608  11.134   4.626   6.462  0.1297 -0.1181 -0.2060
 1093YOPC   C3A15609  11.197   4.461   6.705  0.0926  0.0379  0.4838
 1093YOPC   C4A15610  10.910   4.197   6.901  0.0890  0.3075  0.0585
 1093YOPC   C1B15611  10.751   4.379   6.279 -0.4684 -0.1641 -0.0227
 1093YOPC   C2B15612  10.536   4.261   6.585  0.1588 -0.1532  0.2898
 1093YOPC   D3B15613  10.365   4.115   7.020 -0.2367 -0.1271 -0.0841
 1093YOPC   C4B15614  10.220   3.703   7.205 -0.0539  0.1275 -0.3521
 1094YOPC   NC315615  14.468   1.289   5.393 -0.1433 -0.4565  0.2423
 1094YOPC   PO415616  14.652   1.664   5.360 -0.0157 -0.2355 -0.2237
 1094YOPC   GL115617  14.763   1.722   5.760  0.1288 -0.0636  0.0640
 1094YOPC   GL215618  14.836   1.986   5.786  0.1574  0.2659 -0.1434
 1094YOPC   C1A15619  14.807   1.576   6.219 -0.0193  0.1282 -0.0697
 1094YOPC   D2A15620  14.747   1.700   6.617 -0.0749  0.1963 -0.1459
 1094YOPC   C3A15621  15.114   1.831   6.817 -0.1121  0.1335 -0.0744
 1094YOPC   C4A15622  15.522   1.970   6.702 -0.2846  0.1581  0.0556
 1094YOPC   C1B15623  14.874   2.435   5.840  0.2605  0.1119 -0.0619
 1094YOPC   C2B15624  15.027   2.750   6.102 -0.0716 -0.0722  0.2763
 1094YOPC   D3B15625  14.928   2.757   6.438 -0.2365 -0.0418 -0.1705
 1094YOPC   C4B15626  14.891   2.744   6.919  0.1561  0.1393  0.0614
 1095YOPC   NC315627  11.120   8.425   5.909 -0.0042 -0.0571  0.0934
 1095YOPC   PO415628  10.842   7.988   5.742  0.2727  0.0852 -0.0034
 1095YOPC   GL115629  11.159   7.760   6.064  0.0936 -0.0181  0.0228
 1095YOPC   GL215630  11.323   8.030   6.247  0.0361  0.1061 -0.1625
 1095YOPC   C1A15631  10.866   7.400   6.283  0.1410  0.2309 -0.3901
 1095YOPC   D2A15632  10.609   7.082   6.340 -0.0720 -0.3773  0.2987
 1095YOPC   C3A15633  10.587   6.796   6.720 -0.3050 -0.0601 -0.0448
 1095YOPC   C4A15634  10.607   6.509   7.012  0.0051 -0.1319  0.0017
 1095YOPC   C1B15635  11.315   7.934   6.807 -0.2474  0.3517 -0.1593
 1095YOPC   C2B15636  11.411   7.856   7.110 -0.0522 -0.2546  0.4480
 1095YOPC   D3B15637  11.717   7.578   7.197  0.3106 -0.2428  0.0143
 1095YOPC   C4B15638  11.806   7.218   7.458  0.2232 -0.2773 -0.3192
 1096YOPC   NC315639   1.013   9.743   5.018  0.0600 -0.5996 -0.1377
 1096YOPC   PO415640   1.329   9.726   5.262  0.1218 -0.0207 -0.0144
 1096YOPC   GL115641   1.388   9.663   5.587 -0.0948  0.3179  0.0159
 1096YOPC   GL215642   1.644   9.654   5.712  0.0661  0.0595  0.2552
 1096YOPC   C1A15643   1.347   9.618   6.057  0.1367 -0.1087 -0.0592
 1096YOPC   D2A15644   1.513   9.278   6.399  0.3788  0.1362  0.0011
 1096YOPC   C3A15645   1.593   9.511   6.763 -0.0353  0.0758  0.0013
 1096YOPC   C4A15646   1.845   9.850   7.021 -0.1662  0.0097  0.1272
 1096YOPC   C1B15647   1.694   9.937   5.841  0.0245 -0.1831 -0.2017
 1096YOPC   C2B15648   1.508  10.202   6.222 -0.3402 -0.0935 -0.3991
 1096YOPC   D3B15649   1.301  10.677   6.437 -0.1872 -0.0635 -0.1374
 1096YOPC   C4B15650   1.066  10.726   6.917  0.0414  0.1732 -0.0116
 1097YOPC   NC315651   6.162  19.156   4.715  0.0115 -0.1695 -0.0896
 1097YOPC   PO415652   6.062  18.734   4.640  0.2486  0.0390  0.2400
 1097YOPC   GL115653   6.094  18.737   4.983 -0.2749 -0.2820  0.2268
 1097YOPC   GL215654   6.214  18.384   4.979 -0.0751 -0.0135 -0.0064
 1097YOPC   C1A15655   5.878  18.620   5.370  0.1617 -0.3975  0.1996
 1097YOPC   D2A15656   5.766  18.858   5.700 -0.1235 -0.1615 -0.1262
 1097YOPC   C3A15657   5.272  18.916   5.756 -0.0665  0.0482 -0.3055
 1097YOPC   C4A15658   4.999  18.771   6.096  0.0813 -0.1373 -0.2068
 1097YOPC   C1B15659   6.063  18.204   5.340 -0.0153 -0.2311 -0.2020
 1097YOPC   C2B15660   5.814  18.174   5.667  0.2259 -0.1799  0.1775
 1097YOPC   D3B15661   5.836  18.395   6.024 -0.0341 -0.0194  0.0741
 1097YOPC   C4B15662   5.579  18.387   6.397 -0.0842 -0.2600  0.1441
 1098YOPC   NC315663   9.501   2.426   5.064  0.1628 -0.1957 -0.2291
 1098YOPC   PO415664   9.247   2.826   5.178 -0.0481 -0.5193 -0.2240
 1098YOPC   GL115665   9.158   2.478   5.558 -0.1402  0.0750  0.1406
 1098YOPC   GL215666   9.427   2.571   5.616 -0.0660 -0.0034 -0.1402
 1098YOPC   C1A15667   9.073   2.024   5.645  0.0952  0.2461  0.1635
 1098YOPC   D2A15668   8.839   1.655   5.580 -0.1707 -0.3396 -0.1502
 1098YOPC   C3A15669   8.446   1.443   5.563 -0.3353 -0.0714  0.0247
 1098YOPC   C4A15670   8.195   1.236   5.788  0.1260  0.1922 -0.2868
 1098YOPC   C1B15671   9.388   2.375   6.069  0.0580 -0.4791  0.1787
 1098YOPC   C2B15672   9.401   2.046   6.211 -0.1750 -0.2604  0.0077
 1098YOPC   D3B15673   9.437   2.100   6.700  0.0472 -0.1216  0.1759
 1098YOPC   C4B15674   9.768   1.876   6.941 -0.1983  0.1177  0.0883
 1099YOPC   NC315675   5.425  12.883   4.757 -0.1128  0.0162 -0.0481
 1099YOPC   PO415676   5.520  13.133   5.115 -0.1583 -0.0596 -0.0215
 1099YOPC   GL115677   5.530  13.260   5.487 -0.0879 -0.1165  0.1972
 1099YOPC   GL215678   5.618  13.568   5.655  0.2178  0.0959  0.0133
 1099YOPC   C1A15679   5.410  13.201   5.964  0.0232  0.1705 -0.0306
 1099YOPC   D2A15680   4.944  13.039   5.930  0.1539  0.0470  0.0857
 1099YOPC   C3A15681   4.577  13.264   5.724  0.0032 -0.0135  0.0881
 1099YOPC   C4A15682   4.207  13.376   5.632  0.0592  0.1356  0.1594
 1099YOPC   C1B15683   5.643  13.744   6.086 -0.1039  0.0128  0.1629
 1099YOPC   C2B15684   5.458  13.496   6.439  0.2852  0.0725  0.1697
 1099YOPC   D3B15685   5.152  13.143   6.424 -0.1127 -0.1221 -0.2541
 1099YOPC   C4B15686   4.779  12.950   6.628  0.1071  0.0042  0.2326
 1100YOPC   NC315687   3.939  15.106   4.241  0.0138  0.0679 -0.1780
 1100YOPC   PO415688   4.349  15.281   4.472 -0.1428 -0.1129 -0.1030
 1100YOPC   GL115689   4.461  15.172   4.867 -0.0878 -0.1777  0.0022
 1100YOPC   GL215690   4.197  15.151   4.947 -0.3494 -0.1948 -0.0839
 1100YOPC   C1A15691   4.611  15.349   5.155  0.0712  0.2018  0.1308
 1100YOPC   D2A15692   4.523  15.671   5.497  0.0830  0.1865  0.2222
 1100YOPC   C3A15693   4.231  15.638   5.852 -0.0842  0.3690  0.2245
 1100YOPC   C4A15694   3.971  15.751   6.148 -0.0111 -0.3272  0.0200
 1100YOPC   C1B15695   4.108  15.377   5.341  0.2767  0.0241 -0.2845
 1100YOPC   C2B15696   3.939  15.159   5.606  0.0738  0.3784  0.0216
 1100YOPC   D3B15697   4.029  15.226   6.069  0.4773 -0.2479  0.2017
 1100YOPC   C4B15698   3.854  15.350   6.455  0.1628 -0.2152 -0.1572
 1101YOPC   NC315699   4.342   2.416   4.855 -0.3119 -0.0499  0.0165
 1101YOPC   PO415700   4.256   2.034   5.158 -0.1116  0.1077  0.0250
 1101YOPC   GL115701   4.175   1.963   5.514 -0.1919 -0.0730  0.1177
 1101YOPC   GL215702   4.304   2.096   5.760  0.1311 -0.1389  0.4154
 1101YOPC   C1A15703   4.096   1.628   5.806 -0.3924 -0.0193 -0.2205
 1101YOPC   D2A15704   3.841   1.409   5.986 -0.0353  0.3117 -0.0256
 1101YOPC   C3A15705   3.495   1.310   5.731 -0.5006  0.1959  0.1240
 1101YOPC   C4A15706   3.265   1.524   5.897 -0.1088 -0.0367 -0.1022
 1101YOPC   C1B15707   4.449   2.516   5.844  0.1963  0.0147 -0.1586
 1101YOPC   C2B15708   4.762   2.867   5.953  0.0430 -0.0907  0.0451
 1101YOPC   D3B15709   4.957   2.910   6.336 -0.2495  0.1047  0.1319
 1101YOPC   C4B15710   4.918   2.938   6.699  0.1995  0.0814  0.0636
 1102YOPC   NC315711   2.173  10.486   4.961  0.1495 -0.1675  0.1765
 1102YOPC   PO415712   2.363  10.176   5.216 -0.3075 -0.0235  0.1643
 1102YOPC   GL115713   2.574  10.031   5.480  0.1501 -0.0108 -0.1195
 1102YOPC   GL215714   2.491   9.543   5.685  0.1265 -0.1759 -0.2071
 1102YOPC   C1A15715   2.617  10.020   5.856  0.2623  0.2107  0.3657
 1102YOPC   D2A15716   2.589   9.708   6.196  0.0686 -0.4662  0.0931
 1102YOPC   C3A15717   2.798   9.798   6.592  0.0741  0.0660  0.0904
 1102YOPC   C4A15718   3.068  10.088   6.736 -0.1028 -0.4794  0.3705
 1102YOPC   C1B15719   2.116   9.580   5.961  0.0643 -0.1430 -0.0171
 1102YOPC   C2B15720   1.778   9.656   6.275 -0.3056  0.0829 -0.3246
 1102YOPC   D3B15721   1.856  10.010   6.596  0.0927  0.1540  0.0249
 1102YOPC   C4B15722   2.093  10.193   6.799 -0.0416 -0.3219  0.2640
 1103YOPC   NC315723   4.850   4.453   5.528 -0.2335 -0.1207  0.0175
 1103YOPC   PO415724   4.868   4.057   5.516 -0.0333  0.1270  0.2243
 1103YOPC   GL115725   4.654   3.752   5.821 -0.0788  0.3054 -0.1335
 1103YOPC   GL215726   4.869   3.378   5.763 -0.0033  0.1088  0.1758
 1103YOPC   C1A15727   4.482   3.699   6.255  0.1211  0.1414  0.0796
 1103YOPC   D2A15728   4.376   3.987   6.576 -0.3307 -0.2573  0.0342
 1103YOPC   C3A15729   4.377   3.842   6.933  0.0414 -0.0384 -0.2196
 1103YOPC   C4A15730   4.031   3.816   7.312  0.0561  0.0101  0.3286
 1103YOPC   C1B15731   4.971   3.398   6.229  0.1025 -0.0624  0.2000
 1103YOPC   C2B15732   5.254   3.379   6.410  0.0790  0.0766  0.1406
 1103YOPC   D3B15733   5.410   3.572   6.839 -0.0576  0.2600  0.2715
 1103YOPC   C4B15734   5.448   3.526   7.268  0.1029  0.1276 -0.0727
 1104YOPC   NC315735   3.163  10.632   4.840 -0.0545  0.0715  0.0530
 1104YOPC   PO415736   2.764  10.464   4.754  0.1818  0.3149  0.0165
 1104YOPC   GL115737   2.734  10.462   5.193  0.0176 -0.2051  0.0322
 1104YOPC   GL215738   2.842  10.753   5.176  0.1541  0.0146  0.0134
 1104YOPC   C1A15739   2.810  10.470   5.552 -0.2740 -0.3961 -0.1013
 1104YOPC   D2A15740   2.949  10.430   5.947 -0.1237 -0.0788 -0.2094
 1104YOPC   C3A15741   2.730  10.753   6.229  0.0441  0.2170 -0.1615
 1104YOPC   C4A15742   2.738  10.938   6.634 -0.0625  0.1836 -0.3938
 1104YOPC   C1B15743   3.018  10.949   5.497 -0.0977  0.0684 -0.0453
 1104YOPC   C2B15744   3.034  11.328   5.639  0.2260  0.0712  0.0579
 1104YOPC   D3B15745   3.084  11.372   6.098 -0.0390  0.0665  0.0862
 1104YOPC   C4B15746   3.120  11.442   6.516 -0.1025 -0.0542 -0.0409
 1105YOPC   NC315747   7.764   2.176   4.606 -0.2582 -0.0434 -0.1024
 1105YOPC   PO415748   7.472   1.885   4.721  0.4459 -0.1623 -0.2014
 1105YOPC   GL115749   7.650   1.863   5.147  0.6488  0.1530 -0.1326
 1105YOPC   GL215750   7.482   1.952   5.369  0.0159  0.1479  0.1885
 1105YOPC   C1A15751   8.015   1.820   5.522 -0.0611  0.1843 -0.0739
 1105YOPC   D2A15752   8.177   1.797   5.909  0.0786  0.1487 -0.2003
 1105YOPC   C3A15753   8.035   1.478   6.193 -0.0333 -0.1849 -0.1425
 1105YOPC   C4A15754   7.633   1.342   6.437  0.0976 -0.1862  0.1590
 1105YOPC   C1B15755   7.596   1.862   5.818 -0.1247 -0.0476 -0.0408
 1105YOPC   C2B15756   7.772   2.105   6.085  0.1880 -0.3113 -0.0986
 1105YOPC   D3B15757   8.099   2.168   6.227 -0.0407  0.1180 -0.1827
 1105YOPC   C4B15758   8.370   2.251   6.540  0.4191  0.1630 -0.0078
 1106YOPC   NC315759  13.105   2.556   5.236  0.2627  0.1193 -0.2150
 1106YOPC   PO415760  13.289   2.105   5.344 -0.0184 -0.2292  0.1613
 1106YOPC   GL115761  13.317   2.204   5.760  0.1569 -0.0026 -0.2962
 1106YOPC   GL215762  13.445   2.502   5.610  0.0698  0.2629  0.0976
 1106YOPC   C1A15763  13.559   2.192   6.216  0.1726 -0.0549 -0.0560
 1106YOPC   D2A15764  13.704   2.111   6.654 -0.4109 -0.0231 -0.1874
 1106YOPC   C3A15765  14.010   1.905   6.899 -0.1406 -0.0376  0.0339
 1106YOPC   C4A15766  14.472   2.194   7.086 -0.0862 -0.0688 -0.1009
 1106YOPC   C1B15767  13.759   2.549   5.947  0.0250 -0.1879 -0.0355
 1106YOPC   C2B15768  13.935   2.528   6.396 -0.3033  0.0151  0.2125
 1106YOPC   D3B15769  13.643   2.576   6.811  0.2137 -0.2376  0.4676
 1106YOPC   C4B15770  13.343   2.746   7.126 -0.1016 -0.0383 -0.1254
 1107YOPC   NC315771  13.087   1.639   5.003 -0.0711 -0.0178 -0.0680
 1107YOPC   PO415772  13.072   1.241   5.077 -0.0640 -0.0906 -0.1359
 1107YOPC   GL115773  13.065   1.197   5.528  0.0935  0.1252 -0.2611
 1107YOPC   GL215774  13.232   1.111   5.701 -0.0588  0.1464 -0.3708
 1107YOPC   C1A15775  12.773   1.367   5.839  0.3155  0.3461 -0.0348
 1107YOPC   D2A15776  12.715   1.618   6.290  0.0756  0.0571  0.0579
 1107YOPC   C3A15777  12.986   1.580   6.601  0.0947 -0.1571  0.0256
 1107YOPC   C4A15778  13.306   1.781   6.729 -0.1236 -0.1912  0.1277
 1107YOPC   C1B15779  13.637   1.304   5.902  0.1495 -0.2471 -0.1305
 1107YOPC   C2B15780  13.746   1.026   6.284  0.1430  0.1010  0.0170
 1107YOPC   D3B15781  14.149   0.968   6.464 -0.2059  0.1675 -0.1101
 1107YOPC   C4B15782  14.572   1.195   6.533 -0.0238 -0.4501 -0.0896
 1108YOPC   NC315783   6.669  13.862   4.494 -0.0625 -0.1815 -0.1073
 1108YOPC   PO415784   6.392  14.223   4.756 -0.1458 -0.1729  0.0304
 1108YOPC   GL115785   6.530  14.204   5.235 -0.1146  0.0284  0.0875
 1108YOPC   GL215786   6.612  14.409   5.535 -0.1818  0.0877 -0.0991
 1108YOPC   C1A15787   6.671  13.886   5.537  0.1405  0.0780 -0.0657
 1108YOPC   D2A15788   6.583  13.780   5.920  0.0803 -0.0863 -0.2242
 1108YOPC   C3A15789   6.532  13.318   6.143  0.1405  0.1125  0.1378
 1108YOPC   C4A15790   6.296  12.962   6.327 -0.0714 -0.1489  0.0670
 1108YOPC   C1B15791   6.311  14.773   5.778  0.2005 -0.2055  0.1222
 1108YOPC   C2B15792   6.221  14.653   6.247 -0.0806 -0.0433 -0.1335
 1108YOPC   D3B15793   6.559  14.563   6.541 -0.0187 -0.4702 -0.1695
 1108YOPC   C4B15794   6.989  14.726   6.556  0.1907 -0.2386 -0.3890
 1109YOPC   NC315795  17.284  11.782   5.432  0.2464  0.1078 -0.1765
 1109YOPC   PO415796  17.430  11.321   5.548 -0.2457  0.0477 -0.1399
 1109YOPC   GL115797  17.534  11.115   5.957  0.1966  0.3547 -0.0618
 1109YOPC   GL215798  17.324  11.055   6.147 -0.2136  0.1219 -0.3779
 1109YOPC   C1A15799  17.813  11.047   6.319  0.0259 -0.0591  0.2844
 1109YOPC   D2A15800  18.272  11.080   6.590 -0.0192  0.0922  0.0543
 1109YOPC   C3A15801  18.418  11.545   6.811  0.2859 -0.2764 -0.2735
 1109YOPC   C4A15802  18.774  11.710   7.128  0.0481  0.1457  0.0865
 1109YOPC   C1B15803  17.014  10.869   6.261 -0.2121 -0.1369 -0.1916
 1109YOPC   C2B15804  16.796  10.653   6.532  0.0326 -0.3039 -0.3091
 1109YOPC   D3B15805  16.805  10.739   6.964  0.2626 -0.0728  0.1773
 1109YOPC   C4B15806  17.109  10.772   7.255 -0.2351 -0.3431  0.0225
 1110YOPC   NC315807  11.328   2.539   4.794 -0.0085  0.0766  0.0058
 1110YOPC   PO415808  11.504   2.789   5.039  0.0019 -0.1366 -0.1074
 1110YOPC   GL115809  11.635   3.084   5.405 -0.0062 -0.0415 -0.2462
 1110YOPC   GL215810  11.741   3.394   5.417 -0.4560  0.5608  0.1908
 1110YOPC   C1A15811  11.843   3.041   5.890  0.3618 -0.0327 -0.3073
 1110YOPC   D2A15812  11.746   2.741   6.154 -0.1329  0.2973 -0.2217
 1110YOPC   C3A15813  12.114   2.443   6.312 -0.2238  0.2694  0.1609
 1110YOPC   C4A15814  12.497   2.479   6.373 -0.0348 -0.0449 -0.1106
 1110YOPC   C1B15815  11.948   3.529   5.836 -0.0113  0.0813 -0.0092
 1110YOPC   C2B15816  11.737   3.859   6.202 -0.0681  0.3951  0.1702
 1110YOPC   D3B15817  11.775   3.785   6.690  0.2427  0.0427  0.1871
 1110YOPC   C4B15818  11.991   4.012   6.990  0.0739  0.2893 -0.1435
 1111YOPC   NC315819   9.343   9.292   4.982  0.1947 -0.0597  0.3313
 1111YOPC   PO415820   9.658   9.538   5.266  0.1176 -0.2098 -0.2261
 1111YOPC   GL115821   9.714   9.832   5.674  0.1395 -0.3594 -0.0927
 1111YOPC   GL215822   9.454   9.698   5.808  0.0909  0.1609 -0.1118
 1111YOPC   C1A15823   9.876   9.839   5.975  0.2078  0.0809 -0.2261
 1111YOPC   D2A15824  10.153   9.746   6.157  0.1552  0.0032 -0.0536
 1111YOPC   C3A15825  10.472   9.619   5.831 -0.0946 -0.2522 -0.0246
 1111YOPC   C4A15826  10.866   9.815   5.956 -0.0615 -0.1505 -0.0134
 1111YOPC   C1B15827   9.357   9.503   6.245 -0.2569  0.0087  0.0332
 1111YOPC   C2B15828   9.073   9.627   6.530 -0.1731 -0.1393 -0.1675
 1111YOPC   D3B15829   9.271   9.908   6.841  0.3012  0.1641 -0.3269
 1111YOPC   C4B15830   9.563  10.016   7.237  0.0888 -0.2138 -0.1178
 1112YOPC   NC315831   9.079   7.119   5.278 -0.4599 -0.0527  0.1515
 1112YOPC   PO415832   9.106   7.463   5.566 -0.4414 -0.0640  0.1806
 1112YOPC   GL115833   8.738   7.411   5.819  0.0391  0.1418 -0.2931
 1112YOPC   GL215834   8.429   7.243   5.798  0.0645 -0.1803  0.1523
 1112YOPC   C1A15835   8.761   7.309   6.306  0.0290  0.1446  0.0774
 1112YOPC   D2A15836   8.844   7.249   6.771  0.1683  0.0524 -0.0811
 1112YOPC   C3A15837   8.700   7.403   7.148 -0.0795 -0.0196 -0.1122
 1112YOPC   C4A15838   8.978   7.676   7.443 -0.2366  0.1115  0.0721
 1112YOPC   C1B15839   8.335   7.114   6.171 -0.2557 -0.0806  0.2563
 1112YOPC   C2B15840   7.961   7.182   6.477 -0.2415 -0.1378  0.1477
 1112YOPC   D3B15841   7.677   7.508   6.706  0.1212  0.0853 -0.1479
 1112YOPC   C4B15842   7.577   7.807   7.089 -0.0475 -0.2656 -0.0722
 1113YOPC   NC315843   1.590  19.356   4.699  0.0444 -0.0261 -0.0135
 1113YOPC   PO415844   2.053  19.445   4.678 -0.1090  0.1601  0.1245
 1113YOPC   GL115845   1.784  19.318   5.164  0.3319  0.2014 -0.2171
 1113YOPC   GL215846   1.528  19.073   5.443 -0.3168 -0.2812 -0.1600
 1113YOPC   C1A15847   1.497  19.565   5.567  0.2313  0.1497  0.0321
 1113YOPC   D2A15848   1.286  19.745   5.930  0.1653  0.0186 -0.2199
 1113YOPC   C3A15849   1.125  19.870   6.297 -0.1979  0.2097 -0.2862
 1113YOPC   C4A15850   0.901  20.040   6.611 -0.1852  0.2213 -0.0768
 1113YOPC   C1B15851   1.474  19.101   5.865  0.1335 -0.1999  0.2708
 1113YOPC   C2B15852   1.332  18.764   6.193 -0.2340  0.2827  0.1958
 1113YOPC   D3B15853   1.767  18.626   6.494  0.1594  0.0178  0.2002
 1113YOPC   C4B15854   2.005  18.817   6.707  0.0340  0.2149 -0.0235
 1114YOPC   NC315855   1.276   1.766   4.668 -0.3983 -0.2686  0.1282
 1114YOPC   PO415856   1.499   2.030   5.044  0.1675 -0.2942 -0.1582
 1114YOPC   GL115857   1.606   1.935   5.375  0.0533 -0.2638  0.1494
 1114YOPC   GL215858   1.612   1.587   5.400  0.0626 -0.1715 -0.0733
 1114YOPC   C1A15859   1.532   2.173   5.867 -0.0271  0.2149  0.3112
 1114YOPC   D2A15860   1.498   2.247   6.296 -0.0913  0.2473 -0.0205
 1114YOPC   C3A15861   1.292   2.225   6.715  0.0201 -0.3754 -0.1713
 1114YOPC   C4A15862   1.024   1.991   6.844 -0.2071  0.0332 -0.2095
 1114YOPC   C1B15863   1.711   1.684   5.792  0.1007  0.1873 -0.3112
 1114YOPC   C2B15864   1.936   1.946   6.120 -0.1318 -0.2631 -0.2485
 1114YOPC   D3B15865   1.878   1.861   6.527 -0.0967  0.0860 -0.2477
 1114YOPC   C4B15866   1.760   2.164   6.842  0.0630  0.1490  0.1638
 1115YOPC   NC315867   8.602   3.606   5.289  0.0573  0.2216  0.2795
 1115YOPC   PO415868   8.935   3.630   5.576  0.3198  0.1839  0.0180
 1115YOPC   GL115869   9.103   3.329   5.869  0.0471  0.1801 -0.0969
 1115YOPC   GL215870   9.419   3.105   5.743 -0.1126 -0.0957  0.1241
 1115YOPC   C1A15871   9.198   3.196   6.207  0.1422  0.1258 -0.0356
 1115YOPC   D2A15872   9.098   3.503   6.650  0.1704 -0.3164 -0.0754
 1115YOPC   C3A15873   8.866   3.627   6.999  0.0064 -0.0005 -0.3024
 1115YOPC   C4A15874   8.551   3.932   7.260 -0.1356  0.0572 -0.1244
 1115YOPC   C1B15875   9.518   2.849   6.076  0.3255 -0.1136  0.2975
 1115YOPC   C2B15876   9.775   3.055   6.403  0.1865  0.2669  0.0360
 1115YOPC   D3B15877   9.508   3.140   6.754  0.1531 -0.2311  0.2578
 1115YOPC   C4B15878   9.210   3.002   7.049 -0.1111 -0.0876 -0.1402
 1116YOPC   NC315879   4.202  14.789   4.577 -0.0961 -0.1822 -0.1983
 1116YOPC   PO415880   3.679  14.897   4.651 -0.3489  0.2873 -0.0664
 1116YOPC   GL115881   3.866  14.605   4.988  0.1694  0.0505  0.2586
 1116YOPC   GL215882   4.139  14.444   5.146  0.1478 -0.4475  0.1640
 1116YOPC   C1A15883   3.838  14.713   5.431 -0.1884  0.1287 -0.0616
 1116YOPC   D2A15884   4.200  14.766   5.832 -0.2611  0.2991 -0.0393
 1116YOPC   C3A15885   4.595  14.624   5.686  0.2392  0.2403  0.0546
 1116YOPC   C4A15886   4.883  14.371   5.676 -0.5234 -0.2264 -0.2973
 1116YOPC   C1B15887   4.205  14.313   5.530 -0.0201 -0.1070 -0.0440
 1116YOPC   C2B15888   4.303  14.297   5.879  0.1476  0.1244  0.0089
 1116YOPC   D3B15889   4.527  14.601   6.155  0.0766  0.1373 -0.0683
 1116YOPC   C4B15890   4.961  14.733   6.259  0.1824 -0.2818 -0.1182
 1117YOPC   NC315891  19.395  10.456   4.848 -0.0507 -0.2727  0.1967
 1117YOPC   PO415892  19.578  10.561   5.275  0.0507  0.0709  0.0612
 1117YOPC   GL115893  19.585  10.490   5.664  0.0763 -0.2827 -0.1165
 1117YOPC   GL215894  19.806  10.646   5.759 -0.1097  0.0365  0.2250
 1117YOPC   C1A15895  19.377  10.282   5.951  0.0624 -0.1030 -0.3821
 1117YOPC   D2A15896  19.212   9.893   6.310  0.2517  0.1065 -0.0821
 1117YOPC   C3A15897  19.454   9.712   6.685 -0.0651 -0.0541 -0.0077
 1117YOPC   C4A15898  19.585   9.825   7.153 -0.0764  0.3127 -0.1299
 1117YOPC   C1B15899  19.966  10.328   5.923 -0.0289  0.0497 -0.0104
 1117YOPC   C2B15900  20.309  10.073   6.250  0.3599 -0.0040  0.2568
 1117YOPC   D3B15901  20.296   9.900   6.720  0.1495  0.0867 -0.0292
 1117YOPC   C4B15902  20.250   9.735   7.171  0.1918 -0.2562 -0.0556
 1118YOPC   NC315903  19.197  12.159   5.438  0.0171  0.2279  0.0106
 1118YOPC   PO415904  19.317  11.914   5.361  0.1160  0.1490 -0.0603
 1118YOPC   GL115905  19.101  11.737   5.759  0.2492  0.2142 -0.2294
 1118YOPC   GL215906  18.788  11.836   5.893 -0.0353  0.1495  0.0018
 1118YOPC   C1A15907  19.033  11.755   6.254 -0.4620  0.0752 -0.2243
 1118YOPC   D2A15908  19.101  11.839   6.685 -0.3169  0.0744  0.1135
 1118YOPC   C3A15909  19.264  11.508   6.900 -0.0487 -0.4265 -0.0463
 1118YOPC   C4A15910  19.473  11.586   7.229  0.3501 -0.0925  0.3931
 1118YOPC   C1B15911  18.535  12.138   6.036 -0.1546 -0.2283 -0.0062
 1118YOPC   C2B15912  18.474  12.547   6.238  0.0802  0.1876 -0.0164
 1118YOPC   D3B15913  18.638  12.687   6.492 -0.2782  0.1270 -0.1942
 1118YOPC   C4B15914  18.829  12.749   6.853  0.0987 -0.0570  0.1803
 1119YOPC   NC315915   7.859  10.038   4.838 -0.2065  0.0121  0.1879
 1119YOPC   PO415916   7.942   9.844   5.323  0.0973  0.1867 -0.1455
 1119YOPC   GL115917   8.151   9.956   5.682  0.3280  0.0964  0.2330
 1119YOPC   GL215918   8.076  10.226   5.742 -0.2201 -0.1769 -0.0122
 1119YOPC   C1A15919   8.388   9.905   6.021 -0.2366  0.2303  0.1920
 1119YOPC   D2A15920   8.382   9.876   6.442 -0.4584 -0.0372  0.1643
 1119YOPC   C3A15921   8.478   9.622   6.753  0.0638  0.2383  0.2171
 1119YOPC   C4A15922   8.525   9.286   7.001  0.3435  0.3170 -0.1377
 1119YOPC   C1B15923   8.089  10.244   6.147  0.1439  0.2867  0.1106
 1119YOPC   C2B15924   7.819  10.453   6.529 -0.0344 -0.0096 -0.2011
 1119YOPC   D3B15925   7.703  10.318   6.903  0.1254 -0.4644 -0.1574
 1119YOPC   C4B15926   7.547  10.232   7.368  0.1454 -0.0183 -0.5319
 1120YOPC   NC315927  14.717   3.160   4.424 -0.2100  0.0460 -0.0615
 1120YOPC   PO415928  14.650   3.048   4.878  0.2400 -0.1614 -0.0615
 1120YOPC   GL115929  14.642   2.856   5.297 -0.0261  0.3537  0.2128
 1120YOPC   GL215930  14.749   3.081   5.444 -0.2359  0.1402 -0.2845
 1120YOPC   C1A15931  14.355   2.615   5.676  0.0211 -0.2648  0.0255
 1120YOPC   D2A15932  14.341   2.556   6.112 -0.0160  0.0692 -0.2749
 1120YOPC   C3A15933  14.658   2.263   6.234  0.1065  0.3323 -0.0493
 1120YOPC   C4A15934  14.833   2.169   6.665  0.0511  0.0852  0.2431
 1120YOPC   C1B15935  15.094   2.856   5.480 -0.1170  0.0259 -0.1781
 1120YOPC   C2B15936  15.421   2.812   5.792  0.2193 -0.0832  0.0189
 1120YOPC   D3B15937  15.494   2.779   6.325  0.1988  0.1899  0.0134
 1120YOPC   C4B15938  15.693   3.134   6.584  0.3759  0.0140  0.0457
 1121YOPC   NC315939  16.948   3.177   4.844 -0.0779  0.1751 -0.1340
 1121YOPC   PO415940  17.013   3.567   5.066  0.0311 -0.0482 -0.0432
 1121YOPC   GL115941  17.150   3.838   5.339 -0.1350  0.1238  0.2130
 1121YOPC   GL215942  17.462   3.942   5.347  0.3088  0.6583 -0.0694
 1121YOPC   C1A15943  17.099   3.791   5.741 -0.6524 -0.1042  0.3374
 1121YOPC   D2A15944  17.144   3.601   6.239 -0.1305 -0.0993 -0.1122
 1121YOPC   C3A15945  17.042   3.358   6.638  0.1777  0.1220  0.1880
 1121YOPC   C4A15946  17.331   3.161   6.878  0.1395  0.0812  0.0326
 1121YOPC   C1B15947  17.589   3.790   5.712 -0.3907  0.0067  0.0488
 1121YOPC   C2B15948  17.601   3.828   6.181  0.3088  0.1423  0.1518
 1121YOPC   D3B15949  17.970   3.808   6.553 -0.0336 -0.0125  0.0335
 1121YOPC   C4B15950  18.120   3.538   6.806 -0.3983  0.0588 -0.0690
 1122YOPC   NC315951   0.171  15.861   4.485 -0.1538  0.0120 -0.2176
 1122YOPC   PO415952   0.322  16.012   4.867  0.2322  0.0684 -0.0260
 1122YOPC   GL115953   0.221  16.044   5.217  0.2429 -0.1400 -0.1730
 1122YOPC   GL215954  -0.077  16.271   5.257 -0.2472  0.2347 -0.0235
 1122YOPC   C1A15955   0.192  15.780   5.638  0.0949 -0.1618 -0.1211
 1122YOPC   D2A15956   0.309  15.764   6.091  0.2655  0.0025  0.1708
 1122YOPC   C3A15957   0.616  15.852   6.339 -0.1360  0.3504 -0.0030
 1122YOPC   C4A15958   0.752  15.555   6.665  0.2755 -0.1524  0.0711
 1122YOPC   C1B15959  -0.005  16.235   5.734  0.2044 -0.5110 -0.1898
 1122YOPC   C2B15960   0.018  16.473   6.082  0.3068 -0.2567 -0.2101
 1122YOPC   D3B15961  -0.142  16.384   6.557  0.3741 -0.0916 -0.1424
 1122YOPC   C4B15962  -0.283  16.052   6.836 -0.1268 -0.0668 -0.1318
 1123YOPC   NC315963   3.977  12.131   4.910 -0.1707 -0.0331 -0.1755
 1123YOPC   PO415964   4.249  11.727   5.049  0.1344  0.1037  0.1261
 1123YOPC   GL115965   4.003  11.553   5.388  0.1853  0.0803  0.1729
 1123YOPC   GL215966   3.941  11.268   5.523 -0.0459  0.0087 -0.1156
 1123YOPC   C1A15967   3.859  11.728   5.811  0.0203  0.2164 -0.2533
 1123YOPC   D2A15968   3.865  11.675   6.213 -0.1194 -0.1686  0.1277
 1123YOPC   C3A15969   4.150  11.585   6.514 -0.1054  0.0575 -0.0120
 1123YOPC   C4A15970   4.538  11.374   6.483 -0.4317 -0.0239  0.1807
 1123YOPC   C1B15971   4.050  11.188   6.085  0.4312  0.1376 -0.1336
 1123YOPC   C2B15972   4.018  11.121   6.544 -0.1375 -0.0163 -0.2694
 1123YOPC   D3B15973   4.219  10.797   6.505 -0.0589  0.2195  0.0335
 1123YOPC   C4B15974   4.466  11.002   6.153 -0.0869 -0.0866  0.1219
 1124YOPC   NC315975  12.956  17.242   4.858  0.2031  0.1632 -0.2077
 1124YOPC   PO415976  13.161  17.613   4.786  0.0894  0.1047 -0.2692
 1124YOPC   GL115977  13.354  17.642   5.183  0.0523  0.0454 -0.0509
 1124YOPC   GL215978  13.353  17.425   5.383 -0.4740  0.0240 -0.2878
 1124YOPC   C1A15979  13.412  17.935   5.531 -0.0306 -0.1097  0.5201
 1124YOPC   D2A15980  13.537  18.270   5.840 -0.0117  0.0876  0.0863
 1124YOPC   C3A15981  13.528  18.173   6.267 -0.2015 -0.0616 -0.2243
 1124YOPC   C4A15982  13.621  18.266   6.780 -0.0357  0.2831 -0.1702
 1124YOPC   C1B15983  13.501  17.511   5.861 -0.2175  0.2985  0.1374
 1124YOPC   C2B15984  13.750  17.766   6.142  0.0211 -0.1888 -0.3713
 1124YOPC   D3B15985  13.752  17.787   6.512 -0.3549 -0.1542  0.2245
 1124YOPC   C4B15986  13.601  17.712   6.898 -0.1313  0.0904  0.0726
 1125YOPC   NC315987   0.728  18.493   5.171 -0.1360  0.0190  0.3793
 1125YOPC   PO415988   0.723  18.820   4.959  0.0477  0.1838 -0.0585
 1125YOPC   GL115989   0.763  19.182   5.218 -0.2218  0.1159  0.1231
 1125YOPC   GL215990   0.798  19.561   5.057  0.1728 -0.0036 -0.1600
 1125YOPC   C1A15991   1.032  19.506   5.489  0.2147  0.0985  0.5356
 1125YOPC   D2A15992   0.836  19.677   5.807  0.0836 -0.0959  0.3600
 1125YOPC   C3A15993   0.707  19.687   6.183  0.2312 -0.4385  0.0147
 1125YOPC   C4A15994   0.652  19.628   6.628 -0.0066  0.3124 -0.3333
 1125YOPC   C1B15995   0.722  19.930   5.387  0.3073 -0.0806 -0.0235
 1125YOPC   C2B15996   0.529  20.008   5.747  0.3062  0.0140 -0.1577
 1125YOPC   D3B15997   0.856  20.193   5.865 -0.1215 -0.2329 -0.3265
 1125YOPC   C4B15998   0.980  20.407   6.330 -0.1114 -0.1204  0.0035
 1126YOPC   NC315999  10.141  18.335   5.626 -0.0398  0.1412  0.0160
 1126YOPC   PO416000   9.738  18.400   5.484 -0.2187 -0.1822  0.0737
 1126YOPC   GL116001   9.710  18.571   5.857 -0.1526 -0.1106  0.3032
 1126YOPC   GL216002   9.721  18.299   5.955  0.0411 -0.0487  0.1958
 1126YOPC   C1A16003   9.866  18.849   6.207  0.0090  0.2124 -0.4059
 1126YOPC   D2A16004   9.637  18.925   6.643  0.2066 -0.2516 -0.0610
 1126YOPC   C3A16005   9.282  18.647   6.658 -0.0822  0.0465  0.3453
 1126YOPC   C4A16006   8.918  18.511   6.574  0.1129  0.0429  0.3198
 1126YOPC   C1B16007   9.698  18.386   6.450 -0.0197  0.2880  0.0184
 1126YOPC   C2B16008   9.718  18.378   6.843 -0.2189  0.1080  0.1197
 1126YOPC   D3B16009   9.947  18.241   7.218  0.3090  0.0479  0.1500
 1126YOPC   C4B16010   9.949  17.990   7.729  0.3208 -0.1632 -0.0865
 1127YOPC   NC316011  10.548  10.016   4.621  0.3288 -0.1330 -0.1222
 1127YOPC   PO416012  10.351  10.268   5.043 -0.0878 -0.2364 -0.0640
 1127YOPC   GL116013  10.257  10.336   5.481 -0.1122  0.2722 -0.2513
 1127YOPC   GL216014  10.159  10.083   5.715 -0.2103  0.1924  0.1686
 1127YOPC   C1A16015  10.181  10.570   5.897 -0.2135 -0.3775  0.4839
 1127YOPC   D2A16016  10.287  10.810   6.155 -0.2765 -0.4318 -0.0356
 1127YOPC   C3A16017  10.580  10.700   6.512 -0.0472 -0.0067 -0.0799
 1127YOPC   C4A16018  10.948  10.517   6.733  0.2068 -0.1305  0.2979
 1127YOPC   C1B16019  10.319  10.250   6.221 -0.2224  0.0587 -0.0548
 1127YOPC   C2B16020  10.600  10.144   6.483 -0.0490  0.0488  0.0717
 1127YOPC   D3B16021  10.978  10.332   6.242 -0.1418 -0.1386  0.0800
 1127YOPC   C4B16022  11.346  10.557   6.269  0.2732  0.2803 -0.1148
 1128YOPC   NC316023   6.209   7.205   4.774 -0.0935 -0.3200  0.2100
 1128YOPC   PO416024   5.870   7.144   5.089 -0.0054 -0.2081  0.0444
 1128YOPC   GL116025   5.671   7.392   5.461  0.1441  0.2662  0.0939
 1128YOPC   GL216026   5.806   7.615   5.545  0.3894  0.0419  0.0047
 1128YOPC   C1A16027   5.329   7.170   5.666 -0.0001 -0.0055  0.3187
 1128YOPC   D2A16028   5.178   6.862   6.074  0.0066  0.3689 -0.1134
 1128YOPC   C3A16029   5.290   7.000   6.566  0.3077  0.4101 -0.0205
 1128YOPC   C4A16030   5.651   7.121   6.803  0.0591 -0.3622 -0.3700
 1128YOPC   C1B16031   5.724   7.743   6.099 -0.0053  0.1491 -0.0857
 1128YOPC   C2B16032   5.380   7.997   6.306  0.2333 -0.0196 -0.0435
 1128YOPC   D3B16033   5.469   8.050   6.731 -0.0690 -0.0363 -0.0071
 1128YOPC   C4B16034   5.401   7.696   7.036  0.1421 -0.1787 -0.2430
 1129YOPC   NC316035   3.308   7.948   4.951  0.2299 -0.0054 -0.4693
 1129YOPC   PO416036   3.494   7.936   5.336 -0.0805 -0.1799  0.0730
 1129YOPC   GL116037   3.520   8.149   5.822  0.0740 -0.0580  0.0124
 1129YOPC   GL216038   3.390   7.749   5.930  0.1594 -0.1334  0.1325
 1129YOPC   C1A16039   3.374   8.286   6.312 -0.0173  0.0447 -0.1256
 1129YOPC   D2A16040   3.176   8.336   6.596  0.0588 -0.2216  0.1355
 1129YOPC   C3A16041   2.987   8.119   6.873  0.1096 -0.1564  0.0099
 1129YOPC   C4A16042   3.118   8.026   7.329 -0.0808  0.0816  0.4290
 1129YOPC   C1B16043   3.535   7.503   6.249 -0.2755 -0.1741  0.0923
 1129YOPC   C2B16044   3.642   7.446   6.610  0.0838 -0.3560 -0.1248
 1129YOPC   D3B16045   3.724   7.032   6.617  0.0789 -0.0141 -0.0885
 1129YOPC   C4B16046   3.746   6.626   6.975 -0.3447 -0.0230 -0.3043
 1130YOPC   NC316047   9.785  14.952   5.037  0.2683 -0.5376 -0.3925
 1130YOPC   PO416048   9.439  15.180   5.243  0.2499  0.0437  0.1742
 1130YOPC   GL116049   9.780  15.093   5.537 -0.1799 -0.2737  0.2530
 1130YOPC   GL216050   9.877  14.718   5.537 -0.0798  0.0497 -0.1077
 1130YOPC   C1A16051  10.110  15.133   5.827 -0.1420  0.1159 -0.0934
 1130YOPC   D2A16052  10.296  14.945   6.196 -0.1130 -0.2766 -0.2653
 1130YOPC   C3A16053  10.507  14.968   6.548  0.2732  0.2516 -0.2212
 1130YOPC   C4A16054  10.372  14.773   6.883 -0.0686 -0.3459 -0.0208
 1130YOPC   C1B16055   9.842  14.597   5.991  0.0454  0.1412  0.1435
 1130YOPC   C2B16056  10.051  14.558   6.331 -0.1341  0.3380 -0.0341
 1130YOPC   D3B16057  10.063  14.291   6.687  0.1262 -0.1600 -0.0964
 1130YOPC   C4B16058   9.776  14.033   6.741  0.0212  0.0151 -0.0107
 1131YOPC   NC316059  15.320   8.953   5.644  0.3467  0.6865  0.0902
 1131YOPC   PO416060  15.647   9.290   5.793  0.1446  0.2563 -0.1118
 1131YOPC   GL116061  16.110   9.429   5.980 -0.0232 -0.2406  0.0999
 1131YOPC   GL216062  16.401   9.374   5.924  0.0950  0.0623 -0.0629
 1131YOPC   C1A16063  16.189   9.495   6.346 -0.1249 -0.3096  0.1039
 1131YOPC   D2A16064  16.086   9.587   6.818 -0.0068  0.3086 -0.2184
 1131YOPC   C3A16065  15.775   9.956   7.081 -0.1092  0.2742  0.2362
 1131YOPC   C4A16066  15.497  10.267   7.306  0.1678  0.3460 -0.0063
 1131YOPC   C1B16067  16.765   9.468   6.171  0.2670  0.0747 -0.1908
 1131YOPC   C2B16068  16.949   9.685   6.529  0.3351  0.0127 -0.4310
 1131YOPC   D3B16069  16.913  10.103   6.594 -0.0411 -0.0088 -0.2077
 1131YOPC   C4B16070  16.755  10.255   7.048 -0.1062  0.1724  0.0061
 1132YOPC   NC316071   3.498   3.977   5.285 -0.0747  0.0356  0.2497
 1132YOPC   PO416072   3.620   3.603   5.411 -0.1453  0.2865 -0.0212
 1132YOPC   GL116073   3.811   3.507   5.784 -0.1375 -0.1072 -0.1966
 1132YOPC   GL216074   4.075   3.663   5.784 -0.2577 -0.1027 -0.2963
 1132YOPC   C1A16075   3.991   3.481   6.193  0.0062  0.0670 -0.1975
 1132YOPC   D2A16076   4.013   3.706   6.502  0.1853  0.1506 -0.4139
 1132YOPC   C3A16077   3.730   3.635   6.838  0.0427 -0.0021  0.3503
 1132YOPC   C4A16078   3.748   3.393   7.127 -0.3643  0.2104 -0.0340
 1132YOPC   C1B16079   3.838   3.987   6.082  0.4454 -0.2135  0.1572
 1132YOPC   C2B16080   3.898   4.207   6.388 -0.0346 -0.1541  0.2129
 1132YOPC   D3B16081   3.882   4.123   6.740 -0.0030 -0.0280  0.1242
 1132YOPC   C4B16082   3.881   4.229   7.265  0.1259 -0.1273 -0.1119
 1133YOPC   NC316083   3.272  15.208   4.723  0.1236  0.3037  0.1450
 1133YOPC   PO416084   3.398  15.669   4.902 -0.1259 -0.0548  0.4340
 1133YOPC   GL116085   3.621  15.748   5.285 -0.0468  0.0735 -0.1285
 1133YOPC   GL216086   3.366  15.890   5.523  0.1769 -0.1998 -0.2114
 1133YOPC   C1A16087   3.751  15.579   5.726 -0.4355 -0.1273 -0.3909
 1133YOPC   D2A16088   3.534  15.414   6.076 -0.2626 -0.0649  0.0783
 1133YOPC   C3A16089   3.305  15.570   6.438  0.0825 -0.0213  0.0004
 1133YOPC   C4A16090   2.921  15.813   6.506 -0.2169 -0.0375  0.1564
 1133YOPC   C1B16091   3.411  15.898   6.007  0.0503 -0.1294  0.2568
 1133YOPC   C2B16092   3.674  16.062   6.390  0.0409  0.0537 -0.3999
 1133YOPC   D3B16093   3.893  16.358   6.563 -0.1259  0.1204  0.1848
 1133YOPC   C4B16094   4.257  16.437   6.782  0.0421  0.2070  0.0326
 1134YOPC   NC316095  18.244  15.042   5.245 -0.0876  0.0487  0.1602
 1134YOPC   PO416096  18.686  14.945   5.276 -0.1151  0.1982  0.1185
 1134YOPC   GL116097  18.539  15.050   5.661  0.1386  0.0433  0.0816
 1134YOPC   GL216098  18.664  15.417   5.744  0.3146  0.2074  0.1487
 1134YOPC   C1A16099  18.342  14.897   5.979  0.0653  0.1219 -0.1044
 1134YOPC   D2A16100  18.150  14.575   6.218  0.0630  0.1065 -0.1130
 1134YOPC   C3A16101  18.098  14.558   6.668  0.0492  0.4200 -0.3385
 1134YOPC   C4A16102  17.760  14.424   6.942 -0.0327  0.0122  0.1073
 1134YOPC   C1B16103  18.827  15.340   6.086 -0.2403  0.0059  0.1696
 1134YOPC   C2B16104  19.018  15.316   6.458 -0.1434  0.2221  0.1301
 1134YOPC   D3B16105  18.988  15.053   6.791  0.0123  0.0870  0.0498
 1134YOPC   C4B16106  18.648  14.921   6.973 -0.0251 -0.1758 -0.3168
 1135YOPC   NC316107  13.182  19.287   5.247 -0.3190  0.1517  0.1504
 1135YOPC   PO416108  13.335  19.674   5.083  0.0099 -0.2286 -0.1400
 1135YOPC   GL116109  13.459  19.544   5.571 -0.0902 -0.0194 -0.0335
 1135YOPC   GL216110  13.746  19.375   5.684 -0.0421  0.2218 -0.2090
 1135YOPC   C1A16111  13.161  19.486   5.888  0.1441  0.1028  0.1521
 1135YOPC   D2A16112  13.243  19.246   6.352  0.1210 -0.1950  0.0962
 1135YOPC   C3A16113  12.731  19.201   6.378 -0.0081 -0.3546  0.0166
 1135YOPC   C4A16114  12.533  19.420   5.975  0.4114 -0.2300 -0.1898
 1135YOPC   C1B16115  13.680  19.259   6.220  0.0089  0.0939 -0.0829
 1135YOPC   C2B16116  13.778  19.363   6.596  0.1985 -0.2675 -0.1668
 1135YOPC   D3B16117  13.852  19.829   6.739 -0.0607 -0.1615 -0.1321
 1135YOPC   C4B16118  13.727  19.992   7.089 -0.0926  0.0014  0.2571
 1136YOPC   NC316119  15.760  16.033   5.504  0.3013  0.2596  0.0635
 1136YOPC   PO416120  15.781  16.485   5.476 -0.0086 -0.1511  0.1267
 1136YOPC   GL116121  15.532  16.525   5.840  0.2805  0.0718  0.0446
 1136YOPC   GL216122  15.252  16.243   5.887 -0.2150 -0.5047 -0.3564
 1136YOPC   C1A16123  15.290  16.687   6.181 -0.0021  0.3959 -0.1917
 1136YOPC   D2A16124  15.329  16.992   6.571  0.1606  0.1735 -0.0931
 1136YOPC   C3A16125  15.511  17.355   6.671  0.2134 -0.1203  0.1364
 1136YOPC   C4A16126  15.187  17.570   6.931 -0.0275  0.1506 -0.1606
 1136YOPC   C1B16127  15.586  16.098   6.234  0.1955  0.1965 -0.2108
 1136YOPC   C2B16128  15.687  16.003   6.621 -0.2565  0.1626  0.0435
 1136YOPC   D3B16129  15.358  16.070   7.082 -0.1047 -0.0485  0.0809
 1136YOPC   C4B16130  15.192  16.270   7.383 -0.3149 -0.1227 -0.3216
 1137YOPC   NC316131   1.205   9.249   5.320  0.2817 -0.1112 -0.0125
 1137YOPC   PO416132   0.767   9.102   5.408  0.0279  0.0745  0.1123
 1137YOPC   GL116133   0.503   9.057   5.715  0.0791 -0.2562  0.0867
 1137YOPC   GL216134   0.638   8.805   5.800  0.1238  0.2504  0.0801
 1137YOPC   C1A16135   0.602   9.046   6.256 -0.3259  0.3634 -0.0843
 1137YOPC   D2A16136   0.652   9.069   6.619  0.1029  0.0592  0.0121
 1137YOPC   C3A16137   0.956   8.922   6.835 -0.2559 -0.0538  0.2899
 1137YOPC   C4A16138   1.301   8.687   6.763  0.2328 -0.0499  0.0050
 1137YOPC   C1B16139   0.858   8.628   6.072 -0.1296  0.0519 -0.1201
 1137YOPC   C2B16140   0.866   8.558   6.461 -0.2087 -0.1568 -0.1854
 1137YOPC   D3B16141   1.193   8.218   6.442 -0.1676  0.1857 -0.1324
 1137YOPC   C4B16142   1.351   7.823   6.331 -0.0487 -0.1231  0.1138
 1138YOPC   NC316143   7.524  15.290   4.597 -0.3057  0.1392 -0.1892
 1138YOPC   PO416144   7.358  15.033   4.900 -0.1378 -0.7911 -0.0575
 1138YOPC   GL116145   7.367  14.864   5.172 -0.0151 -0.0493 -0.3317
 1138YOPC   GL216146   7.172  15.191   5.339 -0.3601  0.1742  0.0675
 1138YOPC   C1A16147   7.102  14.640   5.429  0.3455 -0.2541  0.0627
 1138YOPC   D2A16148   7.159  14.280   5.747 -0.2905  0.1617 -0.1063
 1138YOPC   C3A16149   6.915  14.090   6.091  0.1071 -0.3854  0.0318
 1138YOPC   C4A16150   7.027  14.069   6.562 -0.1866 -0.3215 -0.0074
 1138YOPC   C1B16151   7.262  15.354   5.675 -0.2232  0.0806  0.1590
 1138YOPC   C2B16152   7.217  15.387   6.068  0.1310 -0.1488  0.2821
 1138YOPC   D3B16153   7.154  15.177   6.384 -0.2238 -0.0654 -0.1383
 1138YOPC   C4B16154   7.426  14.966   6.696  0.0544  0.0088 -0.0318
 1139YOPC   NC316155  12.404   0.117   5.422 -0.1778  0.0159 -0.2149
 1139YOPC   PO416156  12.618   0.513   5.212 -0.1184  0.3861  0.0892
 1139YOPC   GL116157  12.386   0.665   5.496 -0.0210 -0.1544 -0.1712
 1139YOPC   GL216158  12.682   0.852   5.683 -0.1124 -0.0940  0.3525
 1139YOPC   C1A16159  12.207   0.884   5.887  0.2709  0.0903 -0.0620
 1139YOPC   D2A16160  12.264   1.315   6.252 -0.2165  0.0478 -0.2552
 1139YOPC   C3A16161  12.427   1.454   6.758 -0.1527  0.0451 -0.0080
 1139YOPC   C4A16162  12.652   1.611   7.021  0.0147 -0.0886 -0.1314
 1139YOPC   C1B16163  12.783   0.851   6.102  0.0486  0.0050  0.0254
 1139YOPC   C2B16164  12.732   0.636   6.518 -0.0147 -0.0022 -0.2059
 1139YOPC   D3B16165  12.655   0.931   6.858  0.1288 -0.0637  0.2698
 1139YOPC   C4B16166  12.665   0.886   7.279 -0.3533 -0.2261  0.4369
 1140YOPC   NC316167   2.448  18.590   4.425 -0.1253 -0.0431 -0.0983
 1140YOPC   PO416168   2.373  18.406   4.821 -0.2611  0.3240  0.2299
 1140YOPC   GL116169   2.172  18.506   5.288  0.0796 -0.1763 -0.2913
 1140YOPC   GL216170   2.094  18.829   5.356 -0.5001  0.1719  0.3318
 1140YOPC   C1A16171   1.888  18.241   5.640  0.1645 -0.2570  0.1224
 1140YOPC   D2A16172   1.857  17.946   5.926  0.0352  0.0773  0.0358
 1140YOPC   C3A16173   1.811  18.039   6.299  0.1019  0.0543 -0.0905
 1140YOPC   C4A16174   1.890  18.133   6.699  0.1430  0.0274  0.0603
 1140YOPC   C1B16175   2.193  18.698   5.758  0.1899  0.1477 -0.0155
 1140YOPC   C2B16176   2.536  18.694   5.967  0.0855  0.0527 -0.3285
 1140YOPC   D3B16177   2.721  18.588   6.368 -0.2284 -0.5378 -0.1367
 1140YOPC   C4B16178   2.817  18.335   6.814  0.2017 -0.4621  0.0478
 1141YOPC   NC316179  11.352  12.715   5.568 -0.1687  0.0259  0.1029
 1141YOPC   PO416180  11.336  13.204   5.709 -0.0412 -0.1367  0.1077
 1141YOPC   GL116181  11.166  13.606   5.736 -0.1654  0.0051 -0.2810
 1141YOPC   GL216182  10.844  13.759   5.687  0.0995  0.2394  0.1419
 1141YOPC   C1A16183  11.038  13.614   6.208 -0.1562 -0.0019 -0.0124
 1141YOPC   D2A16184  11.224  13.665   6.511 -0.0357 -0.2657 -0.0281
 1141YOPC   C3A16185  11.288  13.416   6.950  0.4594 -0.0104 -0.2111
 1141YOPC   C4A16186  11.644  13.323   7.046 -0.1184  0.0422 -0.1092
 1141YOPC   C1B16187  10.615  13.851   6.012  0.0679  0.0198 -0.1715
 1141YOPC   C2B16188  10.262  13.521   6.095 -0.0360 -0.2583 -0.0778
 1141YOPC   D3B16189  10.071  13.475   6.465  0.2126  0.1225 -0.1206
 1141YOPC   C4B16190   9.705  13.379   6.483  0.2110  0.0600  0.0670
 1142YOPC   NC316191  16.408  11.589   5.398  0.3162 -0.0447  0.5851
 1142YOPC   PO416192  16.821  11.743   5.249  0.1777 -0.2673  0.0138
 1142YOPC   GL116193  16.682  11.877   5.748 -0.1257  0.2931  0.0385
 1142YOPC   GL216194  16.563  12.151   5.725  0.2710  0.1140 -0.2267
 1142YOPC   C1A16195  16.640  11.620   6.055 -0.1100  0.1355 -0.0569
 1142YOPC   D2A16196  16.865  11.400   6.254 -0.1491 -0.0550 -0.5230
 1142YOPC   C3A16197  17.241  11.515   6.498 -0.2982  0.0027  0.1920
 1142YOPC   C4A16198  17.308  11.759   6.764 -0.0441  0.4058  0.1477
 1142YOPC   C1B16199  16.461  12.040   6.192 -0.1414  0.1272  0.0305
 1142YOPC   C2B16200  16.468  12.045   6.533  0.1640 -0.0173 -0.0038
 1142YOPC   D3B16201  16.282  12.330   6.858  0.0030 -0.1672 -0.3018
 1142YOPC   C4B16202  16.222  12.717   7.123  0.0869  0.2071  0.4558
 1143ERGO   ROH16203   8.065  18.802   5.405 -0.0596 -0.1501 -0.0203
 1143ERGO    R116204   7.949  18.837   5.661 -0.0664  0.0382 -0.0484
 1143ERGO    R216205   7.804  18.639   5.786 -0.1856  0.1796  0.0334
 1143ERGO    R316206   7.980  18.682   5.989 -0.1843  0.1823  0.0327
 1143ERGO    R416207   7.779  18.503   6.103 -0.1097  0.0654 -0.0084
 1143ERGO    R516208   7.844  18.694   6.185 -0.1753  0.0666  0.0488
 1143ERGO    C116209   7.930  18.464   6.477 -0.0642  0.0012 -0.0333
 1143ERGO    C216210   8.052  18.197   6.709 -0.2321  0.2236 -0.0005
 1144ERGO   ROH16211  10.280   5.709   6.126  0.0980 -0.0328  0.0184
 1144ERGO    R116212  10.310   5.554   6.361  0.1137  0.0221  0.0524
 1144ERGO    R216213  10.558   5.488   6.465  0.1203  0.0054  0.0233
 1144ERGO    R316214  10.457   5.601   6.691  0.1823  0.0801  0.0143
 1144ERGO    R416215  10.696   5.459   6.781  0.0333 -0.1589  0.0470
 1144ERGO    R516216  10.495   5.438   6.862 -0.0050  0.0236  0.0057
 1144ERGO    C116217  10.680   5.547   7.176  0.0408 -0.1844  0.0523
 1144ERGO    C216218  10.821   5.561   7.384 -0.2521  0.0526  0.2560
 1145ERGO   ROH16219   3.357   0.855   5.347 -0.0677  0.1359 -0.0174
 1145ERGO    R116220   3.199   0.832   5.580 -0.1187  0.1369 -0.0515
 1145ERGO    R216221   2.978   0.991   5.626 -0.1887  0.0689 -0.1466
 1145ERGO    R316222   2.853   0.752   5.658 -0.1097  0.0313 -0.1199
 1145ERGO    R416223   2.857   0.871   5.927 -0.0209 -0.0031 -0.1070
 1145ERGO    R516224   2.930   0.673   5.871  0.0072  0.0243 -0.1649
 1145ERGO    C116225   2.669   0.576   6.132  0.1509 -0.0804 -0.0589
 1145ERGO    C216226   2.372   0.598   6.381  0.1500 -0.0748 -0.3300
 1146ERGO   ROH16227  18.147   5.394   5.729 -0.1513  0.1309  0.0807
 1146ERGO    R116228  17.898   5.318   5.842 -0.0708 -0.1472  0.0802
 1146ERGO    R216229  17.856   5.070   5.956  0.2342 -0.1660  0.1684
 1146ERGO    R316230  17.776   5.218   6.169  0.0237 -0.1833  0.1036
 1146ERGO    R416231  17.717   4.940   6.244  0.2450 -0.2123  0.1527
 1146ERGO    R516232  17.577   5.108   6.247  0.0948 -0.3383  0.0609
 1146ERGO    C116233  17.561   5.003   6.613  0.0539 -0.2555  0.0827
 1146ERGO    C216234  17.537   4.873   6.867 -0.1531 -0.1791  0.2208
 1147ERGO   ROH16235  11.672   6.135   5.949  0.4213  0.1898 -0.1190
 1147ERGO    R116236  11.876   6.046   6.125  0.2276  0.1613  0.0972
 1147ERGO    R216237  11.907   6.148   6.380 -0.0158  0.1671  0.1312
 1147ERGO    R316238  11.892   5.886   6.452 -0.1386  0.1734  0.1239
 1147ERGO    R416239  12.023   6.018   6.679  0.0098  0.0831  0.0839
 1147ERGO    R516240  12.097   5.845   6.569 -0.1260  0.0496  0.0529
 1147ERGO    C116241  12.076   5.696   6.919 -0.0907  0.0400  0.0496
 1147ERGO    C216242  11.986   5.755   7.200  0.1792 -0.0729 -0.2550
 1148ERGO   ROH16243  17.848  14.888   5.586 -0.1938  0.2067  0.0065
 1148ERGO    R116244  17.651  14.928   5.784 -0.1872 -0.1413  0.0886
 1148ERGO    R216245  17.596  14.740   5.980  0.4092 -0.1390  0.2760
 1148ERGO    R316246  17.641  14.949   6.148 -0.0212  0.1243  0.0805
 1148ERGO    R416247  17.540  14.736   6.321  0.5423  0.0128  0.3008
 1148ERGO    R516248  17.462  14.939   6.306  0.0504 -0.1709  0.1506
 1148ERGO    C116249  17.549  14.930   6.677  0.2153  0.3486  0.1317
 1148ERGO    C216250  17.730  14.935   6.949  0.2372  0.0724 -0.2115
 1149ERGO   ROH16251   8.487  16.276   5.607 -0.0149 -0.1015  0.0095
 1149ERGO    R116252   8.457  16.037   5.756  0.1664 -0.1018  0.0478
 1149ERGO    R216253   8.600  15.986   5.987 -0.0054  0.1759  0.2185
 1149ERGO    R316254   8.353  15.946   6.093 -0.0696 -0.1454 -0.0345
 1149ERGO    R416255   8.525  15.756   6.234  0.1224  0.3111  0.3865
 1149ERGO    R516256   8.340  15.710   6.128  0.3181 -0.1407  0.2090
 1149ERGO    C116257   8.249  15.585   6.476  0.1365  0.0882  0.2470
 1149ERGO    C216258   8.174  15.490   6.826  0.0431  0.3540 -0.0610
 1150ERGO   ROH16259  15.355   7.272   6.172  0.2398  0.2380 -0.0402
 1150ERGO    R116260  15.440   7.213   6.436  0.4879  0.2072 -0.1267
 1150ERGO    R216261  15.638   7.357   6.564  0.1246  0.6464 -0.0548
 1150ERGO    R316262  15.448   7.386   6.756  0.0902 -0.0844  0.0520
 1150ERGO    R416263  15.700   7.447   6.892 -0.0109  0.8457 -0.0807
 1150ERGO    R516264  15.551   7.302   6.955  0.5364  0.2540 -0.0103
 1150ERGO    C116265  15.557   7.527   7.263 -0.1221  0.2756  0.0044
 1150ERGO    C216266  15.555   7.412   7.587 -0.2131  0.3290  0.0221
 1151ERGO   ROH16267  12.932   9.973   7.914  0.0298 -0.0601  0.3056
 1151ERGO    R116268  13.213   9.949   7.916  0.0496  0.1466  0.3670
 1151ERGO    R216269  13.357   9.873   7.693  0.1074 -0.2556  0.5272
 1151ERGO    R316270  13.493  10.103   7.741 -0.0659 -0.0333  0.0167
 1151ERGO    R416271  13.683   9.932   7.595  0.1775 -0.3622  0.6925
 1151ERGO    R516272  13.717  10.031   7.787 -0.0716  0.2102  0.4609
 1151ERGO    C116273  14.001  10.183   7.582  0.0556 -0.2156  0.3096
 1151ERGO    C216274  14.074  10.316   7.271 -0.4100  0.1026 -0.0044
 1152ERGO   ROH16275   8.368   7.826   5.981  0.1172  0.0594 -0.0119
 1152ERGO    R116276   8.450   7.706   6.224 -0.0073 -0.2385 -0.1114
 1152ERGO    R216277   8.368   7.800   6.470  0.3018 -0.1901 -0.0198
 1152ERGO    R316278   8.287   7.543   6.506 -0.2159 -0.0529 -0.1225
 1152ERGO    R416279   8.288   7.659   6.776  0.2867 -0.2301 -0.0425
 1152ERGO    R516280   8.390   7.477   6.712 -0.1580 -0.4132 -0.2622
 1152ERGO    C116281   8.166   7.336   6.987 -0.2081 -0.1246 -0.1521
 1152ERGO    C216282   7.860   7.401   7.256  0.1836  0.0422  0.3005
 1153ERGO   ROH16283   8.856   6.902   5.703 -0.2975 -0.2169  0.0243
 1153ERGO    R116284   8.792   6.928   5.978 -0.2237 -0.1366  0.0333
 1153ERGO    R216285   8.643   6.739   6.115  0.0836 -0.2571  0.2035
 1153ERGO    R316286   8.857   6.740   6.282  0.1509  0.1309  0.1285
 1153ERGO    R416287   8.625   6.723   6.459  0.2266 -0.4032  0.2059
 1153ERGO    R516288   8.785   6.869   6.471 -0.0599 -0.0660  0.1930
 1153ERGO    C116289   8.815   6.713   6.817  0.3731 -0.1241  0.1369
 1153ERGO    C216290   8.762   6.850   7.194 -0.0240  0.0051 -0.0503
 1154ERGO   ROH16291  19.363   2.366   5.601  0.4173 -0.1291 -0.1170
 1154ERGO    R116292  19.416   2.495   5.848  0.2592  0.0033 -0.1510
 1154ERGO    R216293  19.232   2.502   6.054  0.1462  0.0731 -0.2552
 1154ERGO    R316294  19.438   2.397   6.198  0.0875  0.1826 -0.0876
 1154ERGO    R416295  19.258   2.513   6.399 -0.1320  0.1080 -0.2328
 1154ERGO    R516296  19.471   2.553   6.376 -0.1307  0.2123 -0.0681
 1154ERGO    C116297  19.466   2.421   6.734 -0.3492  0.2311 -0.0623
 1154ERGO    C216298  19.348   2.617   6.988 -0.2966 -0.2660 -0.4746
 1155ERGO   ROH16299  17.572  10.558   6.084 -0.3014  0.3166  0.2031
 1155ERGO    R116300  17.504  10.628   6.350 -0.1462  0.2084  0.2740
 1155ERGO    R216301  17.310  10.495   6.494 -0.1881  0.2584  0.2753
 1155ERGO    R316302  17.510  10.466   6.675 -0.1300  0.0070  0.1733
 1155ERGO    R416303  17.264  10.444   6.833 -0.0710  0.2046  0.2825
 1155ERGO    R516304  17.430  10.579   6.871  0.0785  0.0265  0.2449
 1155ERGO    C116305  17.425  10.387   7.200  0.0520 -0.0627  0.1908
 1155ERGO    C216306  17.207  10.296   7.457 -0.2823 -0.1926 -0.2563
 1156ERGO   ROH16307   4.967   4.321   6.043 -0.2557  0.1058  0.0605
 1156ERGO    R116308   5.025   4.173   6.277 -0.2470  0.1763  0.1032
 1156ERGO    R216309   4.832   4.108   6.464 -0.2932  0.0068 -0.0002
 1156ERGO    R316310   4.922   3.855   6.421 -0.0294  0.0871  0.0648
 1156ERGO    R416311   4.826   3.854   6.698 -0.4241 -0.0539 -0.0682
 1156ERGO    R516312   5.023   3.793   6.629 -0.2727  0.1199  0.1956
 1156ERGO    C116313   4.907   3.469   6.795 -0.2526 -0.0138 -0.0468
 1156ERGO    C216314   5.121   3.220   7.041 -0.0849  0.0749 -0.3522
 1157ERGO   ROH16315   3.431   9.301   5.791 -0.1592  0.3487 -0.2810
 1157ERGO    R116316   3.452   9.233   6.066 -0.3162  0.3705 -0.2624
 1157ERGO    R216317   3.692   9.159   6.182 -0.4503  0.0093 -0.2046
 1157ERGO    R316318   3.633   9.360   6.355 -0.1611  0.1466 -0.2587
 1157ERGO    R416319   3.833   9.198   6.495 -0.3552 -0.0778 -0.2359
 1157ERGO    R516320   3.637   9.256   6.571 -0.2713  0.2077 -0.2266
 1157ERGO    C116321   3.859   9.409   6.840 -0.0283  0.0004 -0.3049
 1157ERGO    C216322   3.808   9.344   7.263  0.0241  0.2881 -0.1176
 1158ERGO   ROH16323  17.167  17.327   6.004 -0.3383  0.0355 -0.0568
 1158ERGO    R116324  17.094  17.371   6.274 -0.3224 -0.0713 -0.0356
 1158ERGO    R216325  17.025  17.165   6.444 -0.0855 -0.1615 -0.0501
 1158ERGO    R316326  17.220  17.272   6.601 -0.1553  0.0065 -0.0745
 1158ERGO    R416327  17.035  17.143   6.789 -0.0532 -0.1097 -0.0469
 1158ERGO    R516328  17.103  17.350   6.796 -0.2069 -0.0540 -0.0784
 1158ERGO    C116329  17.224  17.230   7.137 -0.0999  0.0781 -0.0678
 1158ERGO    C216330  17.425  17.326   7.459 -0.1225  0.1827  0.3201
 1159ERGO   ROH16331   1.648   0.528   5.392 -0.2936 -0.0425  0.0237
 1159ERGO    R116332   1.805   0.430   5.606 -0.2458 -0.0486 -0.0139
 1159ERGO    R216333   1.907   0.595   5.803 -0.0500 -0.0264 -0.1289
 1159ERGO    R316334   1.782   0.421   5.969 -0.0750  0.1151  0.0025
 1159ERGO    R416335   1.965   0.570   6.143  0.0088  0.1565 -0.1245
 1159ERGO    R516336   1.952   0.354   6.124 -0.0681  0.1504  0.0084
 1159ERGO    C116337   1.880   0.392   6.496  0.0196  0.3958  0.0016
 1159ERGO    C216338   1.882   0.565   6.810 -0.0073 -0.1500 -0.0380
 1160ERGO   ROH16339  15.297  12.049   5.633  0.2534  0.0573  0.0429
 1160ERGO    R116340  15.220  12.172   5.876  0.0604 -0.0010  0.0125
 1160ERGO    R216341  15.312  12.421   5.953 -0.0014 -0.0195  0.1444
 1160ERGO    R316342  15.046  12.476   5.975 -0.0206 -0.0258 -0.0501
 1160ERGO    R416343  15.175  12.642   6.180 -0.1662  0.0130  0.0161
 1160ERGO    R516344  15.011  12.501   6.211 -0.1842  0.0103 -0.0760
 1160ERGO    C116345  14.847  12.823   6.334 -0.2802  0.0258 -0.2412
 1160ERGO    C216346  14.719  13.109   6.337 -0.1616  0.3749  0.2052
 1161ERGO   ROH16347  12.272   8.599   6.532 -0.2586  0.1070 -0.0711
 1161ERGO    R116348  12.194   8.543   6.798 -0.1713 -0.0846 -0.0835
 1161ERGO    R216349  12.172   8.740   6.992  0.0729 -0.2464  0.1175
 1161ERGO    R316350  11.921   8.640   7.019  0.0083 -0.0807  0.1390
 1161ERGO    R416351  11.953   8.821   7.246  0.0143  0.1613 -0.0556
 1161ERGO    R516352  11.893   8.612   7.255 -0.0998  0.2028  0.1610
 1161ERGO    C116353  11.590   8.774   7.420 -0.0803  0.5543 -0.1362
 1161ERGO    C216354  11.353   8.758   7.635 -0.2572 -0.0128  0.3134
 1162ERGO   ROH16355   7.864   2.338   5.414  0.0462  0.2202  0.0364
 1162ERGO    R116356   7.780   2.360   5.684  0.1369  0.1308  0.0681
 1162ERGO    R216357   7.920   2.505   5.873  0.1034  0.1952  0.0129
 1162ERGO    R316358   7.681   2.628   5.909  0.0329  0.0325  0.1508
 1162ERGO    R416359   7.848   2.726   6.128  0.3100  0.5558 -0.2251
 1162ERGO    R516360   7.651   2.634   6.146  0.3936  0.3846  0.2154
 1162ERGO    C116361   7.580   2.970   6.312  0.3642  0.6129 -0.2343
 1162ERGO    C216362   7.577   3.312   6.421 -0.0919 -0.0514 -0.1170
 1163ERGO   ROH16363  13.859  12.259   5.603  0.2346 -0.2497 -0.0779
 1163ERGO    R116364  14.020  12.266   5.836  0.0735 -0.1120  0.0325
 1163ERGO    R216365  13.991  12.461   6.031 -0.0558  0.0150 -0.1020
 1163ERGO    R316366  13.965  12.246   6.195 -0.1824  0.1139  0.0077
 1163ERGO    R416367  14.083  12.454   6.364  0.0726  0.0760 -0.1365
 1163ERGO    R516368  14.160  12.253   6.334 -0.1238 -0.0034 -0.0757
 1163ERGO    C116369  14.112  12.249   6.712  0.0283  0.2043 -0.0536
 1163ERGO    C216370  14.145  12.211   7.077 -0.1170  0.0952  0.2283
 1164ERGO   ROH16371  10.504  12.042   6.253  0.4626 -0.0521  0.1419
 1164ERGO    R116372  10.583  12.252   6.427  0.2736  0.0190  0.1448
 1164ERGO    R216373  10.608  12.513   6.342  0.2260  0.0097  0.1008
 1164ERGO    R316374  10.439  12.563   6.548  0.0764 -0.0072 -0.0164
 1164ERGO    R416375  10.586  12.814   6.511  0.2478 -0.0655  0.2382
 1164ERGO    R516376  10.565  12.702   6.697  0.0285 -0.1529  0.1645
 1164ERGO    C116377  10.414  13.035   6.804  0.1199 -0.1251  0.2083
 1164ERGO    C216378  10.382  13.257   6.803 -0.0701 -0.1715  0.0937
 1165ERGO   ROH16379  19.367  16.547   7.210  0.0488  0.2238  0.0383
 1165ERGO    R116380  19.581  16.362   7.200  0.0633  0.2174  0.3562
 1165ERGO    R216381  19.698  16.283   6.962 -0.0435 -0.3093  0.4676
 1165ERGO    R316382  19.926  16.363   7.086  0.0099  0.0021  0.1835
 1165ERGO    R416383  20.018  16.204   6.857 -0.0826 -0.3833  0.4024
 1165ERGO    R516384  20.074  16.175   7.066  0.0623  0.0127  0.4281
 1165ERGO    C116385  20.419  16.233   6.913 -0.0551 -0.1344  0.0977
 1165ERGO    C216386  20.605  16.100   6.770 -0.1103 -0.0257  0.3834
 1166ERGO   ROH16387  19.583  13.276   7.122  0.1292 -0.3254 -0.0064
 1166ERGO    R116388  19.771  13.487   7.134  0.0079 -0.2135 -0.0551
 1166ERGO    R216389  19.885  13.573   7.371 -0.0394 -0.0933 -0.0734
 1166ERGO    R316390  20.118  13.527   7.238 -0.0144  0.0090 -0.0651
 1166ERGO    R416391  20.192  13.702   7.462 -0.0734 -0.0702  0.0107
 1166ERGO    R516392  20.235  13.736   7.251 -0.0561  0.0250  0.0321
 1166ERGO    C116393  20.590  13.735   7.390 -0.0697  0.0394  0.0675
 1166ERGO    C216394  20.949  13.673   7.554  0.0177  0.2644  0.2624
 1167ERGO   ROH16395  15.430  15.757   5.781  0.0045  0.0002 -0.0735
 1167ERGO    R116396  15.434  15.638   6.037 -0.0168  0.3077  0.0733
 1167ERGO    R216397  15.595  15.422   6.098 -0.3564  0.0913  0.2071
 1167ERGO    R316398  15.680  15.583   6.300  0.0908  0.1924 -0.0471
 1167ERGO    R416399  15.818  15.328   6.345 -0.3699 -0.0447  0.1696
 1167ERGO    R516400  15.696  15.438   6.490 -0.0742  0.3831  0.1252
 1167ERGO    C116401  16.027  15.426   6.678  0.0420 -0.0290 -0.0909
 1167ERGO    C216402  16.244  15.378   6.885 -0.0291 -0.2780 -0.1388
 1168ERGO   ROH16403   9.526  16.044   5.704 -0.2353  0.0747  0.1774
 1168ERGO    R116404   9.683  16.128   5.923 -0.0060 -0.0527  0.0655
 1168ERGO    R216405   9.575  16.178   6.173  0.1683  0.2939  0.0759
 1168ERGO    R316406   9.764  16.000   6.255 -0.1035  0.0157  0.1162
 1168ERGO    R416407   9.706  16.160   6.493  0.2486  0.2659  0.0419
 1168ERGO    R516408   9.902  16.124   6.406  0.1637 -0.1235 -0.0071
 1168ERGO    C116409   9.959  15.982   6.755  0.0404 -0.0116  0.0598
 1168ERGO    C216410  10.062  15.731   6.889  0.2504  0.0414  0.0526
 1169ERGO   ROH16411  18.084  11.989   5.614 -0.2547  0.3461 -0.1006
 1169ERGO    R116412  17.947  12.044   5.856 -0.2042  0.1334 -0.0230
 1169ERGO    R216413  18.029  11.942   6.100  0.0556  0.2070 -0.0813
 1169ERGO    R316414  18.025  12.203   6.174 -0.2525  0.1947 -0.0404
 1169ERGO    R416415  18.135  12.062   6.406  0.0988  0.2955 -0.1299
 1169ERGO    R516416  17.965  12.198   6.406 -0.0953  0.0694  0.0031
 1169ERGO    C116417  18.192  12.377   6.654 -0.1652  0.3356 -0.1197
 1169ERGO    C216418  18.260  12.318   6.921 -0.0412  0.3509  0.1209
 1170ERGO   ROH16419   5.221   0.880   5.358  0.0304 -0.0505 -0.0504
 1170ERGO    R116420   5.070   0.690   5.504  0.0847 -0.1257 -0.0926
 1170ERGO    R216421   5.182   0.459   5.608  0.2315  0.0573  0.1570
 1170ERGO    R316422   5.076   0.551   5.841 -0.1088  0.0804 -0.0000
 1170ERGO    R416423   5.066   0.259   5.864  0.2352  0.0684  0.1679
 1170ERGO    R516424   4.899   0.397   5.890  0.0295 -0.1144 -0.0797
 1170ERGO    C116425   4.899   0.228   6.232 -0.0821  0.0965  0.0269
 1170ERGO    C216426   4.833  -0.059   6.367 -0.1991  0.2577  0.1528
 1171ERGO   ROH16427   9.102  14.445   6.598  0.0633  0.2501  0.1629
 1171ERGO    R116428   9.045  14.217   6.756 -0.1473  0.3511  0.2366
 1171ERGO    R216429   9.199  13.988   6.747 -0.5043  0.1068  0.1172
 1171ERGO    R316430   9.214  14.027   7.016 -0.2004  0.1167  0.1022
 1171ERGO    R416431   9.224  13.736   6.983 -0.3074  0.1132  0.1055
 1171ERGO    R516432   9.086  13.848   7.110 -0.1427  0.1528  0.2524
 1171ERGO    C116433   9.252  13.626   7.372  0.0929  0.1264  0.0845
 1171ERGO    C216434   9.606  13.519   7.511  0.2506  0.2021  0.0585
 1172ERGO   ROH16435   9.845   3.300   5.673  0.1170 -0.0109  0.0899
 1172ERGO    R116436   9.795   3.298   5.952 -0.0091  0.0240  0.0687
 1172ERGO    R216437   9.886   3.497   6.121 -0.1462  0.0846  0.0772
 1172ERGO    R316438   9.624   3.512   6.191 -0.1843  0.0156 -0.0484
 1172ERGO    R416439   9.761   3.698   6.372 -0.3146 -0.0160  0.0746
 1172ERGO    R516440   9.628   3.535   6.430 -0.3119 -0.0549 -0.0415
 1172ERGO    C116441   9.442   3.829   6.585 -0.4483 -0.1393 -0.0448
 1172ERGO    C216442   9.187   4.092   6.539 -0.2868 -0.1831 -0.1674
 1173ERGO   ROH16443  16.343  16.287   5.879  0.1573  0.0253 -0.2282
 1173ERGO    R116444  16.460  16.156   6.101 -0.0709 -0.0895 -0.1704
 1173ERGO    R216445  16.729  16.177   6.162 -0.0360 -0.4611 -0.1233
 1173ERGO    R316446  16.634  16.255   6.405  0.0164 -0.2537 -0.1700
 1173ERGO    R416447  16.902  16.153   6.460 -0.0462 -0.3294 -0.1080
 1173ERGO    R516448  16.718  16.091   6.558 -0.0577 -0.1755 -0.0585
 1173ERGO    C116449  16.915  16.212   6.861 -0.0028 -0.0580 -0.1429
 1173ERGO    C216450  17.201  16.190   7.144 -0.2862 -0.1558  0.0857
 1174ERGO   ROH16451  14.772  17.780   5.603 -0.4000  0.0070 -0.0275
 1174ERGO    R116452  14.774  17.702   5.875 -0.4178  0.1275  0.0056
 1174ERGO    R216453  14.890  17.856   6.072 -0.1992  0.0869 -0.1011
 1174ERGO    R316454  14.646  17.834   6.189 -0.1939  0.4096 -0.0142
 1174ERGO    R416455  14.830  17.884   6.411  0.0206 -0.1167 -0.0410
 1174ERGO    R516456  14.688  17.719   6.395 -0.2870  0.1353 -0.1352
 1174ERGO    C116457  14.566  17.880   6.718  0.1538  0.0678  0.0755
 1174ERGO    C216458  14.449  17.939   7.173 -0.1902  0.0660 -0.2204
 1175ERGO   ROH16459   2.508   5.020   5.931  0.0848 -0.0171 -0.0128
 1175ERGO    R116460   2.297   5.071   6.113  0.2008  0.2132  0.0626
 1175ERGO    R216461   2.099   4.886   6.167 -0.1977  0.5511 -0.1510
 1175ERGO    R316462   2.176   4.928   6.424 -0.0727  0.0813 -0.1028
 1175ERGO    R416463   1.885   4.895   6.438 -0.1163  0.5148 -0.0857
 1175ERGO    R516464   2.001   5.062   6.517  0.1586  0.2284  0.1214
 1175ERGO    C116465   1.832   4.940   6.837  0.0485  0.0525 -0.0024
 1175ERGO    C216466   1.830   5.059   7.126  0.3265  0.0968  0.2549
 1176ERGO   ROH16467   8.498  19.018   5.443 -0.0126  0.1520 -0.0493
 1176ERGO    R116468   8.468  19.172   5.679  0.0082  0.0948 -0.0095
 1176ERGO    R216469   8.242  19.158   5.837  0.0138  0.0743 -0.0080
 1176ERGO    R316470   8.423  19.106   6.034  0.0134  0.0102 -0.0235
 1176ERGO    R416471   8.162  19.102   6.169  0.0375  0.4144  0.0589
 1176ERGO    R516472   8.336  19.221   6.226  0.1976  0.2587 -0.0809
 1176ERGO    C116473   8.285  19.021   6.547  0.0510  0.5521  0.0833
 1176ERGO    C216474   8.191  18.957   6.929  0.1485  0.2101  0.2902
 1177ERGO   ROH16475  16.508  14.534   5.392  0.0788  0.3690 -0.0541
 1177ERGO    R116476  16.499  14.698   5.623  0.1159  0.2129  0.0594
 1177ERGO    R216477  16.286  14.695   5.799  0.0715  0.2090  0.0057
 1177ERGO    R316478  16.480  14.646   5.983  0.0004 -0.0297  0.0206
 1177ERGO    R416479  16.271  14.787   6.132  0.2433  0.4192 -0.0426
 1177ERGO    R516480  16.481  14.841   6.121  0.3438  0.0502 -0.0850
 1177ERGO    C116481  16.444  14.794   6.498  0.2763  0.3175 -0.0568
 1177ERGO    C216482  16.641  14.913   6.758  0.3532  0.0080 -0.1141
 1178ERGO   ROH16483   2.051   3.669   5.742  0.0782 -0.1576 -0.1985
 1178ERGO    R116484   2.145   3.540   5.975  0.0136 -0.2499 -0.2235
 1178ERGO    R216485   2.062   3.610   6.228  0.2837 -0.0419 -0.1889
 1178ERGO    R316486   2.000   3.346   6.247 -0.1375  0.0563 -0.0810
 1178ERGO    R416487   2.054   3.430   6.523  0.2848  0.0270 -0.1462
 1178ERGO    R516488   2.146   3.263   6.417 -0.0954 -0.1528 -0.2146
 1178ERGO    C116489   1.991   3.077   6.712 -0.1099  0.1593 -0.0202
 1178ERGO    C216490   1.912   2.971   7.065  0.2015 -0.2022 -0.0728
 1179ERGO   ROH16491  10.267   2.293   5.754  0.0546  0.0160  0.0374
 1179ERGO    R116492  10.143   2.419   5.975 -0.1845 -0.0614 -0.0488
 1179ERGO    R216493   9.896   2.341   6.071 -0.0491 -0.4649  0.0066
 1179ERGO    R316494  10.030   2.322   6.307  0.0047 -0.0528  0.0161
 1179ERGO    R416495   9.755   2.394   6.382 -0.1569 -0.6663 -0.0068
 1179ERGO    R516496   9.938   2.498   6.442 -0.3991 -0.2123 -0.0527
 1179ERGO    C116497   9.798   2.406   6.784 -0.1692 -0.3967 -0.0058
 1179ERGO    C216498   9.624   2.600   7.015 -0.3805 -0.0175  0.0883
 1180ERGO   ROH16499   1.055  16.146   5.541 -0.1202  0.2098 -0.2534
 1180ERGO    R116500   1.077  16.177   5.821 -0.0295 -0.0400 -0.2289
 1180ERGO    R216501   1.050  16.423   5.946  0.2545 -0.1018 -0.0209
 1180ERGO    R316502   0.863  16.291   6.092  0.1407 -0.0287 -0.1005
 1180ERGO    R416503   0.931  16.527   6.253  0.1599 -0.0772 -0.0658
 1180ERGO    R516504   0.934  16.319   6.319  0.0478 -0.0717 -0.0726
 1180ERGO    C116505   0.686  16.464   6.570 -0.0019  0.0055 -0.1667
 1180ERGO    C216506   0.618  16.712   6.867  0.2692  0.0416  0.0999
 1181ERGO   ROH16507  13.519  11.877   5.609  0.2118  0.1660 -0.0873
 1181ERGO    R116508  13.588  11.986   5.862  0.2413  0.3243 -0.1621
 1181ERGO    R216509  13.569  12.256   5.917 -0.3009  0.2989 -0.1529
 1181ERGO    R316510  13.418  12.169   6.126  0.1016 -0.0457  0.0100
 1181ERGO    R416511  13.531  12.424   6.217 -0.3201  0.1728 -0.0841
 1181ERGO    R516512  13.543  12.232   6.320  0.1880  0.1783 -0.1193
 1181ERGO    C116513  13.366  12.440   6.587  0.0465 -0.2242  0.1090
 1181ERGO    C216514  13.246  12.733   6.840 -0.2373  0.1151  0.2915
 1182ERGO   ROH16515   5.085  14.259   8.453 -0.0719  0.0759 -0.1807
 1182ERGO    R116516   5.242  14.432   8.293 -0.0968  0.0518 -0.2339
 1182ERGO    R216517   5.518  14.427   8.296 -0.0879  0.2108 -0.1028
 1182ERGO    R316518   5.488  14.396   8.027  0.0456 -0.0048 -0.0936
 1182ERGO    R416519   5.689  14.608   8.056 -0.3884  0.4206 -0.1627
 1182ERGO    R516520   5.505  14.618   7.939 -0.3808 -0.0186 -0.2187
 1182ERGO    C116521   5.760  14.684   7.664 -0.4378  0.3404 -0.1889
 1182ERGO    C216522   5.921  14.637   7.382 -0.0092 -0.1432  0.2282
 1183ERGO   ROH16523   8.727   5.277   5.815 -0.2181 -0.3724 -0.0308
 1183ERGO    R116524   8.780   5.280   6.093 -0.1750  0.0371 -0.0385
 1183ERGO    R216525   8.612   5.401   6.276 -0.5454 -0.3340 -0.1258
 1183ERGO    R316526   8.619   5.157   6.395  0.2563 -0.2359  0.0924
 1183ERGO    R416527   8.532   5.341   6.606 -0.6271 -0.3199 -0.1420
 1183ERGO    R516528   8.699   5.201   6.616 -0.0880  0.2814  0.1374
 1183ERGO    C116529   8.492   5.077   6.911  0.0780 -0.2195  0.0532
 1183ERGO    C216530   8.413   5.146   7.295 -0.2507 -0.0675  0.1030
 1184ERGO   ROH16531   1.795  15.577   5.434  0.0974  0.0919  0.0827
 1184ERGO    R116532   1.916  15.341   5.533  0.0257  0.0454  0.0599
 1184ERGO    R216533   1.936  15.286   5.804 -0.1252 -0.0578  0.0520
 1184ERGO    R316534   1.811  15.056   5.733 -0.1053 -0.0226 -0.1027
 1184ERGO    R416535   1.970  14.985   5.969 -0.0377 -0.1866 -0.1954
 1184ERGO    R516536   1.973  14.885   5.776 -0.0678 -0.0326 -0.2777
 1184ERGO    C116537   1.872  14.593   5.999  0.0318 -0.2285 -0.4847
 1184ERGO    C216538   1.715  14.443   6.203 -0.1606 -0.1660  0.2455
 1185ERGO   ROH16539   6.910   5.825   5.893  0.1592  0.1072  0.0534
 1185ERGO    R116540   6.906   5.846   6.175  0.0026  0.1314  0.0506
 1185ERGO    R216541   6.673   5.880   6.319 -0.0871  0.0465 -0.0748
 1185ERGO    R316542   6.762   5.660   6.452 -0.0647  0.0959 -0.0076
 1185ERGO    R416543   6.560   5.777   6.629  0.1028  0.2746  0.0736
 1185ERGO    R516544   6.765   5.727   6.682  0.1273  0.2367 -0.0474
 1185ERGO    C116545   6.577   5.511   6.935  0.2346  0.4539  0.2233
 1185ERGO    C216546   6.405   5.213   7.136  0.1041  0.1708 -0.0782
 1186ERGO   ROH16547   6.057  17.591   5.279 -0.1152  0.2374 -0.0124
 1186ERGO    R116548   6.036  17.679   5.547 -0.0568  0.0915  0.0412
 1186ERGO    R216549   6.224  17.618   5.740 -0.0220 -0.0262 -0.0293
 1186ERGO    R316550   6.230  17.887   5.774  0.0004 -0.0443  0.1179
 1186ERGO    R416551   6.273  17.777   6.042  0.1224 -0.1937  0.0378
 1186ERGO    R516552   6.121  17.923   5.984  0.0990 -0.1570  0.1889
 1186ERGO    C116553   6.307  18.123   6.250  0.2275 -0.3085  0.2151
 1186ERGO    C216554   6.553  18.202   6.370  0.1268 -0.1960 -0.4142
 1187ERGO   ROH16555  10.331  13.061   5.909 -0.3626 -0.0768 -0.1058
 1187ERGO    R116556  10.322  12.932   6.161 -0.1508 -0.1460 -0.1318
 1187ERGO    R216557  10.205  13.048   6.384  0.0404 -0.2044  0.0011
 1187ERGO    R316558  10.063  12.817   6.389  0.0391 -0.2026  0.0580
 1187ERGO    R416559   9.964  12.969   6.618 -0.0166 -0.1172 -0.0267
 1187ERGO    R516560  10.041  12.765   6.621 -0.0177 -0.1143  0.0712
 1187ERGO    C116561   9.690  12.705   6.760 -0.0510 -0.0648  0.0106
 1187ERGO    C216562   9.675  12.649   6.988 -0.5588  0.1644 -0.1484
 1188ERGO   ROH16563  18.767  11.387   6.018 -0.1030 -0.2444 -0.0755
 1188ERGO    R116564  18.703  11.294   6.277 -0.1029 -0.0565 -0.0061
 1188ERGO    R216565  18.860  11.112   6.413 -0.2116 -0.1172  0.0396
 1188ERGO    R316566  18.856  11.303   6.608  0.0052 -0.0109 -0.0567
 1188ERGO    R416567  18.895  11.050   6.752 -0.3910 -0.0041  0.0801
 1188ERGO    R516568  18.740  11.199   6.790 -0.1945  0.2390 -0.0343
 1188ERGO    C116569  18.912  11.192   7.131 -0.2920  0.1612  0.0133
 1188ERGO    C216570  18.950  11.451   7.503 -0.0419  0.1615  0.5956
 1189ERGO   ROH16571   5.248  11.800   5.827 -0.1778  0.1087 -0.0322
 1189ERGO    R116572   5.361  11.685   6.060 -0.2813  0.0380 -0.0163
 1189ERGO    R216573   5.529  11.826   6.229 -0.1225 -0.1006 -0.0560
 1189ERGO    R316574   5.349  11.749   6.418 -0.1923  0.1241 -0.0286
 1189ERGO    R416575   5.584  11.835   6.570 -0.0679 -0.1481 -0.0634
 1189ERGO    R516576   5.482  11.644   6.587 -0.2959 -0.0264 -0.0399
 1189ERGO    C116577   5.448  11.768   6.946 -0.1018  0.0354 -0.0420
 1189ERGO    C216578   5.276  11.773   7.345  0.0187  0.0079 -0.0657
 1190ERGO   ROH16579   0.888  12.031   5.731 -0.2584 -0.1699  0.2016
 1190ERGO    R116580   0.828  12.057   6.007 -0.1894 -0.0535  0.2067
 1190ERGO    R216581   1.001  11.975   6.206 -0.1840 -0.0705  0.1999
 1190ERGO    R316582   0.971  12.230   6.293 -0.0482 -0.0267  0.1196
 1190ERGO    R416583   1.077  12.084   6.524 -0.1136  0.0010  0.1583
 1190ERGO    R516584   0.897  12.207   6.520 -0.0475  0.0899  0.1288
 1190ERGO    C116585   1.094  12.388   6.792  0.0550  0.0838  0.0588
 1190ERGO    C216586   1.162  12.422   7.000 -0.2128 -0.1988 -0.2483
 1191ERGO   ROH16587  13.816   6.317   5.988 -0.1006 -0.0255 -0.1211
 1191ERGO    R116588  13.849   6.092   6.156  0.0618  0.1605  0.1025
 1191ERGO    R216589  13.858   6.112   6.431 -0.3460  0.4028  0.1038
 1191ERGO    R316590  13.657   5.929   6.419 -0.0212  0.0427 -0.0283
 1191ERGO    R416591  13.756   5.915   6.696 -0.3914  0.4797  0.1441
 1191ERGO    R516592  13.735   5.748   6.556  0.1000  0.3005  0.2591
 1191ERGO    C116593  13.508   5.628   6.839 -0.1128  0.1864  0.0436
 1191ERGO    C216594  13.501   5.580   7.119  0.1518  0.1467 -0.1646
 1192ERGO   ROH16595  18.289   2.385   5.659 -0.0454 -0.2350  0.0958
 1192ERGO    R116596  18.217   2.448   5.925 -0.0504 -0.1782  0.0816
 1192ERGO    R216597  18.338   2.330   6.144  0.0056 -0.0702  0.1124
 1192ERGO    R316598  18.383   2.587   6.218 -0.0789 -0.0312  0.0278
 1192ERGO    R416599  18.259   2.464   6.453 -0.2087  0.0583  0.0038
 1192ERGO    R516600  18.193   2.645   6.352 -0.1707  0.0029 -0.1178
 1192ERGO    C116601  18.255   2.784   6.702 -0.4128  0.1697 -0.1389
 1192ERGO    C216602  18.304   2.867   7.045 -0.0279 -0.1084  0.1310
 1193ERGO   ROH16603   3.374   4.561   5.880 -0.2158  0.2022 -0.1257
 1193ERGO    R116604   3.479   4.393   6.082 -0.0211  0.2999 -0.1441
 1193ERGO    R216605   3.422   4.428   6.350 -0.0936  0.1829 -0.1430
 1193ERGO    R316606   3.346   4.167   6.335  0.2367  0.0850 -0.1952
 1193ERGO    R416607   3.372   4.219   6.621 -0.3775  0.2348 -0.1527
 1193ERGO    R516608   3.468   4.059   6.510  0.0305  0.2960  0.0880
 1193ERGO    C116609   3.272   3.853   6.764 -0.2327  0.1731 -0.2074
 1193ERGO    C216610   3.258   3.470   6.877  0.0329  0.4436 -0.6935
 1194ERGO   ROH16611   5.879  15.485   5.379 -0.0312  0.2367  0.0163
 1194ERGO    R116612   5.958  15.323   5.597 -0.0920  0.1347 -0.0374
 1194ERGO    R216613   6.211  15.336   5.708 -0.0756 -0.0281 -0.0617
 1194ERGO    R316614   6.072  15.377   5.938 -0.0267 -0.0218 -0.0323
 1194ERGO    R416615   6.347  15.328   6.026 -0.0069 -0.0593 -0.0911
 1194ERGO    R516616   6.169  15.224   6.095 -0.0093 -0.0439 -0.0596
 1194ERGO    C116617   6.295  15.362   6.427  0.0789 -0.0716 -0.0806
 1194ERGO    C216618   6.286  15.439   6.837  0.2183 -0.4189  0.2957
 1195ERGO   ROH16619  10.267   4.509   6.020  0.1511 -0.0603  0.1786
 1195ERGO    R116620  10.271   4.579   6.294  0.1098 -0.0876  0.1857
 1195ERGO    R216621  10.049   4.675   6.426  0.1392  0.0753  0.1133
 1195ERGO    R316622  10.102   4.471   6.597 -0.0828  0.0188  0.1193
 1195ERGO    R416623   9.933   4.654   6.751  0.1315  0.2273  0.1215
 1195ERGO    R516624  10.128   4.577   6.810  0.0524  0.0049  0.1134
 1195ERGO    C116625   9.916   4.451   7.101 -0.0812  0.2627  0.1318
 1195ERGO    C216626   9.615   4.469   7.358  0.2705 -0.0846 -0.0790
 1196ERGO   ROH16627  16.692   8.790   5.992  0.0355  0.0834  0.0505
 1196ERGO    R116628  16.490   8.884   6.166 -0.0705 -0.1138  0.0388
 1196ERGO    R216629  16.406   8.742   6.387  0.1608 -0.1333  0.1225
 1196ERGO    R316630  16.465   8.973   6.518 -0.1310  0.0140  0.0019
 1196ERGO    R416631  16.265   8.841   6.687  0.2931 -0.3261  0.2501
 1196ERGO    R516632  16.256   9.044   6.610 -0.1729 -0.3563  0.2080
 1196ERGO    C116633  16.238   9.115   6.984  0.0960 -0.3001  0.2113
 1196ERGO    C216634  16.191   9.135   7.322  0.1496  0.0389  0.1011
 1197ERGO   ROH16635  14.792  13.845   5.592 -0.0343 -0.0279  0.1185
 1197ERGO    R116636  14.779  14.054   5.782 -0.0856 -0.1379  0.2397
 1197ERGO    R216637  14.894  14.036   6.033  0.1519 -0.1532  0.1384
 1197ERGO    R316638  15.015  14.267   5.959 -0.1458  0.0082  0.1431
 1197ERGO    R416639  15.064  14.246   6.247  0.3546 -0.2233  0.0469
 1197ERGO    R516640  14.976  14.416   6.142  0.0479 -0.1904  0.3476
 1197ERGO    C116641  15.277  14.586   6.303  0.1933 -0.1128 -0.0020
 1197ERGO    C216642  15.475  14.772   6.432 -0.0737 -0.1162 -0.2279
 1198ERGO   ROH16643   9.153  12.113   5.932 -0.2965  0.1231 -0.0669
 1198ERGO    R116644   9.169  12.145   6.213 -0.0704  0.0258 -0.0685
 1198ERGO    R216645   8.950  12.114   6.379  0.0032  0.2600  0.0590
 1198ERGO    R316646   9.113  11.937   6.506 -0.1404  0.0175 -0.0830
 1198ERGO    R416647   8.867  11.940   6.665  0.0607  0.6046  0.2929
 1198ERGO    R516648   9.070  11.973   6.738  0.2604  0.2637 -0.0258
 1198ERGO    C116649   8.971  11.672   6.951 -0.0406  0.5776  0.2959
 1198ERGO    C216650   8.762  11.513   7.158  0.1722  0.3234  0.3368
 1199ERGO   ROH16651   5.642   0.788   5.243 -0.3310 -0.2527  0.0572
 1199ERGO    R116652   5.661   0.869   5.514 -0.0532 -0.0709 -0.0118
 1199ERGO    R216653   5.501   0.762   5.713 -0.1447  0.3538  0.1584
 1199ERGO    R316654   5.740   0.712   5.832 -0.1624  0.0326  0.0669
 1199ERGO    R416655   5.545   0.698   6.050 -0.1019  0.2484  0.1327
 1199ERGO    R516656   5.725   0.820   6.045  0.0527  0.0213  0.0885
 1199ERGO    C116657   5.795   0.613   6.358 -0.0935 -0.1146  0.0319
 1199ERGO    C216658   5.681   0.361   6.630  0.0288  0.0542  0.2547
 1200ERGO   ROH16659  14.184  19.109   5.622  0.0684 -0.3369 -0.1246
 1200ERGO    R116660  14.128  19.181   5.890  0.2046 -0.0118 -0.1783
 1200ERGO    R216661  14.042  18.998   6.079 -0.1804  0.2995 -0.0335
 1200ERGO    R316662  14.255  19.093   6.220  0.0184 -0.0216 -0.1086
 1200ERGO    R416663  14.087  18.958   6.419 -0.1585  0.2983 -0.0371
 1200ERGO    R516664  14.161  19.163   6.429  0.1873  0.1817 -0.0993
 1200ERGO    C116665  14.313  19.024   6.749  0.0409 -0.0040 -0.1098
 1200ERGO    C216666  14.394  18.882   7.117  0.2250 -0.1715 -0.1793
 1201ERGO   ROH16667  15.334  17.742   5.449  0.1053 -0.1492 -0.0612
 1201ERGO    R116668  15.292  17.700   5.726  0.0712 -0.1181 -0.0620
 1201ERGO    R216669  15.481  17.581   5.888  0.0754 -0.0414 -0.0143
 1201ERGO    R316670  15.450  17.807   6.036 -0.0094 -0.0285 -0.0503
 1201ERGO    R416671  15.559  17.610   6.223  0.2646  0.0940 -0.0684
 1201ERGO    R516672  15.378  17.729   6.250  0.1843 -0.0388  0.0153
 1201ERGO    C116673  15.576  17.840   6.557  0.2953  0.1850 -0.1337
 1201ERGO    C216674  15.759  17.912   6.899 -0.2700  0.2920  0.3047
 1202ERGO   ROH16675  14.325  13.483   5.911 -0.2133  0.1213  0.1188
 1202ERGO    R116676  14.276  13.538   6.184 -0.2660 -0.0148  0.1368
 1202ERGO    R216677  14.114  13.378   6.342 -0.1053 -0.2264  0.0858
 1202ERGO    R316678  14.333  13.370   6.502 -0.0961 -0.0596  0.0844
 1202ERGO    R416679  14.107  13.325   6.683 -0.0622 -0.3342  0.0707
 1202ERGO    R516680  14.263  13.476   6.705 -0.2060 -0.1850  0.1162
 1202ERGO    C116681  14.310  13.286   7.032 -0.0287 -0.2405  0.0608
 1202ERGO    C216682  14.425  13.165   7.295  0.1569 -0.2644  0.1726
 1203ERGO   ROH16683  14.733  11.596   9.046  0.5422 -0.1124  0.1711
 1203ERGO    R116684  14.796  11.462   8.805  0.2945 -0.0944  0.0942
 1203ERGO    R216685  14.652  11.244   8.714  0.1363 -0.0212  0.1716
 1203ERGO    R316686  14.629  11.394   8.489  0.0107  0.0253  0.2143
 1203ERGO    R416687  14.651  11.118   8.392  0.1661  0.0577  0.1401
 1203ERGO    R516688  14.774  11.287   8.331  0.0555  0.1523  0.1650
 1203ERGO    C116689  14.628  11.185   7.993  0.0656  0.1474  0.1617
 1203ERGO    C216690  14.333  11.206   7.723  0.2022 -0.0494 -0.1074
 1204ERGO   ROH16691   4.650  13.601   5.359 -0.0894 -0.5619  0.3653
 1204ERGO    R116692   4.678  13.773   5.582  0.1578 -0.4118  0.2233
 1204ERGO    R216693   4.470  13.824   5.758  0.2072  0.0891  0.1457
 1204ERGO    R316694   4.650  13.743   5.944  0.0387 -0.0553  0.2489
 1204ERGO    R416695   4.414  13.821   6.099  0.0353  0.2245  0.1203
 1204ERGO    R516696   4.617  13.892   6.128  0.1006  0.0247  0.1992
 1204ERGO    C116697   4.550  13.742   6.472 -0.2230  0.1680  0.2024
 1204ERGO    C216698   4.551  13.867   6.737  0.2427 -0.3295  0.0550
 1205ERGO   ROH16699  16.634   4.601   5.857  0.1741 -0.2525 -0.0849
 1205ERGO    R116700  16.745   4.564   6.115  0.0681 -0.0918 -0.0150
 1205ERGO    R216701  16.757   4.766   6.303 -0.1035 -0.0032 -0.1010
 1205ERGO    R316702  16.628   4.585   6.459 -0.1020  0.0148 -0.0778
 1205ERGO    R416703  16.808   4.724   6.642 -0.0521 -0.0022 -0.1080
 1205ERGO    R516704  16.794   4.509   6.613 -0.0840 -0.0033 -0.1033
 1205ERGO    C116705  16.716   4.529   6.986 -0.0210  0.0152 -0.0905
 1205ERGO    C216706  16.789   4.706   7.309  0.1959  0.2579  0.1371
 1206ERGO   ROH16707  16.147  11.790   5.874  0.0917  0.3764 -0.3077
 1206ERGO    R116708  15.982  11.870   6.091  0.0792  0.3042 -0.2892
 1206ERGO    R216709  15.911  11.697   6.295 -0.0333  0.1998 -0.4115
 1206ERGO    R316710  16.014  11.893   6.452  0.0159  0.0574 -0.2665
 1206ERGO    R416711  15.789  11.785   6.606 -0.0100 -0.0017 -0.3452
 1206ERGO    R516712  15.823  11.994   6.555  0.0418  0.0284 -0.1904
 1206ERGO    C116713  15.816  12.020   6.935  0.0498 -0.2528 -0.1705
 1206ERGO    C216714  15.978  12.198   7.249  0.1324  0.1773  0.2826
 1207ERGO   ROH16715  18.313  16.626   5.761 -0.4373 -0.2440 -0.0825
 1207ERGO    R116716  18.302  16.653   6.042 -0.1716 -0.1624 -0.0761
 1207ERGO    R216717  18.257  16.896   6.167 -0.0279 -0.1170 -0.0981
 1207ERGO    R316718  18.056  16.760   6.288  0.0671 -0.0629  0.1220
 1207ERGO    R416719  18.073  17.013   6.435 -0.0661  0.1539 -0.2401
 1207ERGO    R516720  18.079  16.812   6.520  0.0607  0.2810  0.0454
 1207ERGO    C116721  17.776  16.952   6.705  0.0005  0.3624 -0.1161
 1207ERGO    C216722  17.618  17.312   6.913 -0.4097  0.2141  0.0030
 1208ERGO   ROH16723  10.504  16.700   5.847 -0.2376  0.0474  0.1917
 1208ERGO    R116724  10.681  16.580   6.032 -0.1834  0.0070  0.1127
 1208ERGO    R216725  10.931  16.685   6.088 -0.1881  0.0162  0.0909
 1208ERGO    R316726  10.842  16.676   6.344 -0.1246 -0.0812  0.1115
 1208ERGO    R416727  11.131  16.711   6.369 -0.1552  0.3300  0.0421
 1208ERGO    R516728  11.012  16.556   6.463  0.0774  0.1654  0.0875
 1208ERGO    C116729  11.164  16.718   6.773 -0.0763  0.4215  0.0329
 1208ERGO    C216730  11.339  16.847   7.007  0.0888 -0.1988 -0.0705
 1209ERGO   ROH16731  12.311  11.220   6.445  0.1326  0.1635  0.1997
 1209ERGO    R116732  12.229  11.038   6.646  0.0365  0.3248  0.3078
 1209ERGO    R216733  12.354  10.795   6.686 -0.3322  0.1137  0.1940
 1209ERGO    R316734  12.378  10.886   6.941  0.1004  0.1042  0.1650
 1209ERGO    R416735  12.467  10.607   6.953 -0.2875 -0.0351  0.0728
 1209ERGO    R516736  12.314  10.699   7.077 -0.0151  0.2023  0.2514
 1209ERGO    C116737  12.556  10.583   7.348  0.1447 -0.1307 -0.0248
 1209ERGO    C216738  12.568  10.302   7.657 -0.0322  0.0080 -0.0455
 1210ERGO   ROH16739   2.534   8.652   6.003  0.1515  0.1091  0.0194
 1210ERGO    R116740   2.691   8.606   6.234  0.0539  0.1420  0.0937
 1210ERGO    R216741   2.725   8.796   6.431 -0.0800  0.1499  0.1137
 1210ERGO    R316742   2.636   8.596   6.594 -0.1151  0.1282  0.0676
 1210ERGO    R416743   2.770   8.786   6.774 -0.1225  0.0777  0.1173
 1210ERGO    R516744   2.810   8.572   6.758 -0.1398  0.0807  0.0831
 1210ERGO    C116745   2.713   8.594   7.126 -0.1803  0.0154  0.0761
 1210ERGO    C216746   2.612   8.738   7.480 -0.1564 -0.4045 -0.1888
 1211ERGO   ROH16747   3.891   7.849   5.750 -0.0127 -0.2580 -0.1126
 1211ERGO    R116748   3.973   7.929   6.009 -0.0164 -0.2351 -0.1197
 1211ERGO    R216749   3.795   8.021   6.200 -0.0227 -0.2686 -0.1175
 1211ERGO    R316750   3.907   7.825   6.351  0.0250 -0.2384 -0.1110
 1211ERGO    R416751   3.772   7.999   6.544 -0.1433 -0.3327 -0.1281
 1211ERGO    R516752   3.981   7.937   6.549 -0.1063 -0.2264 -0.0627
 1211ERGO    C116753   3.864   7.803   6.886 -0.1688 -0.3415 -0.1281
 1211ERGO    C216754   3.681   7.541   7.097  0.0272  0.0120 -0.0408
 1212ERGO   ROH16755   4.635   6.947   5.863  0.3830 -0.2560  0.2286
 1212ERGO    R116756   4.693   7.177   6.016  0.3920 -0.1769  0.1060
 1212ERGO    R216757   4.583   7.222   6.266  0.2616  0.0414  0.0057
 1212ERGO    R316758   4.843   7.248   6.341  0.2285 -0.0185  0.1505
 1212ERGO    R416759   4.690   7.281   6.589  0.0890 -0.0484  0.0817
 1212ERGO    R516760   4.839   7.419   6.509  0.1600 -0.0507  0.1891
 1212ERGO    C116761   4.996   7.341   6.847 -0.0426 -0.1569  0.2618
 1212ERGO    C216762   5.143   7.195   7.052 -0.0372 -0.0418 -0.0982
 1213ERGO   ROH16763  14.807   6.133   5.898 -0.1181  0.0114 -0.2303
 1213ERGO    R116764  14.831   6.125   6.180 -0.0909  0.0138 -0.2321
 1213ERGO    R216765  15.050   6.230   6.314 -0.0825  0.0279 -0.2514
 1213ERGO    R316766  14.859   6.368   6.450 -0.0792  0.0171 -0.2373
 1213ERGO    R416767  15.104   6.409   6.604 -0.0829  0.0020 -0.2358
 1213ERGO    R516768  14.914   6.335   6.680 -0.0803 -0.0020 -0.2419
 1213ERGO    C116769  14.956   6.643   6.901 -0.0799 -0.0231 -0.2134
 1213ERGO    C216770  14.963   6.730   7.291  0.1721  0.1281  0.2011
 1214ERGO   ROH16771  10.128  17.978   6.037 -0.3733  0.0343 -0.1662
 1214ERGO    R116772  10.070  17.834   6.274 -0.2131  0.0218 -0.1331
 1214ERGO    R216773  10.009  17.959   6.513 -0.0584  0.0112 -0.0825
 1214ERGO    R316774   9.788  17.802   6.502 -0.0629  0.0078  0.0517
 1214ERGO    R416775   9.782  17.918   6.771  0.0938  0.0009  0.0509
 1214ERGO    R516776   9.772  17.707   6.721  0.0674  0.0054  0.0576
 1214ERGO    C116777   9.443  17.746   6.910  0.1783 -0.0082  0.2547
 1214ERGO    C216778   9.256  17.681   7.186 -0.2765  0.0909  0.0499
 1215ERGO   ROH16779  18.007   0.483   5.787 -0.0150 -0.1168  0.0994
 1215ERGO    R116780  17.963   0.541   6.061  0.0100  0.0134  0.0761
 1215ERGO    R216781  17.814   0.377   6.226 -0.0364  0.1314  0.1490
 1215ERGO    R316782  18.038   0.382   6.379 -0.0322  0.1262  0.1436
 1215ERGO    R416783  17.829   0.278   6.556  0.0433 -0.2160  0.0453
 1215ERGO    R516784  17.960   0.447   6.596 -0.0736 -0.1605  0.2208
 1215ERGO    C116785  18.048   0.225   6.893  0.0940 -0.4232 -0.0203
 1215ERGO    C216786  18.014   0.242   7.169  0.2816 -0.1070 -0.0699
 1216ERGO   ROH16787  11.180  15.325   5.494  0.0101 -0.0068  0.0464
 1216ERGO    R116788  11.128  15.276   5.768  0.0866 -0.0997  0.0449
 1216ERGO    R216789  11.276  15.096   5.918  0.2811  0.0224  0.0024
 1216ERGO    R316790  11.309  15.311   6.081  0.0864  0.0327  0.0312
 1216ERGO    R416791  11.284  15.083   6.263  0.2051 -0.0060  0.0032
 1216ERGO    R516792  11.167  15.266   6.269  0.0705 -0.0888 -0.0081
 1216ERGO    C116793  11.321  15.276   6.618 -0.0218 -0.0129  0.0308
 1216ERGO    C216794  11.359  15.203   7.045  0.1045 -0.1348 -0.1755
 1217ERGO   ROH16795   1.197   2.332   5.449  0.1197 -0.0499  0.2399
 1217ERGO    R116796   1.187   2.441   5.711  0.0239 -0.0404  0.2325
 1217ERGO    R216797   0.956   2.543   5.821 -0.0331 -0.1072  0.1718
 1217ERGO    R316798   1.012   2.368   6.021 -0.0273 -0.0793  0.1952
 1217ERGO    R416799   0.871   2.589   6.153 -0.2591 -0.1789  0.1261
 1217ERGO    R516800   1.065   2.507   6.209 -0.2315 -0.0482  0.2346
 1217ERGO    C116801   0.875   2.451   6.534 -0.3853 -0.1943  0.1215
 1217ERGO    C216802   0.880   2.611   6.911  0.1370 -0.1351 -0.1528
 1218ERGO   ROH16803  12.700  14.278   5.656  0.0138 -0.1280 -0.1367
 1218ERGO    R116804  12.798  14.118   5.868  0.1093 -0.0191 -0.0979
 1218ERGO    R216805  12.655  14.074   6.100  0.1265 -0.0656 -0.0991
 1218ERGO    R316806  12.696  13.813   6.038  0.3046 -0.0537 -0.0387
 1218ERGO    R416807  12.640  13.813   6.326  0.2772 -0.0241 -0.0394
 1218ERGO    R516808  12.813  13.725   6.227  0.3474  0.0669 -0.0055
 1218ERGO    C116809  12.670  13.416   6.399  0.5319  0.0112  0.0521
 1218ERGO    C216810  12.507  13.245   6.740 -0.2117 -0.1866 -0.2239
 1219ERGO   ROH16811   0.532  13.390   5.565 -0.0537 -0.0995 -0.0421
 1219ERGO    R116812   0.503  13.453   5.840 -0.0559 -0.0385 -0.0563
 1219ERGO    R216813   0.714  13.442   6.018 -0.0787 -0.0892 -0.0356
 1219ERGO    R316814   0.641  13.698   6.071  0.0173 -0.0504 -0.0861
 1219ERGO    R416815   0.811  13.622   6.296 -0.1471 -0.1336  0.0176
 1219ERGO    R516816   0.610  13.703   6.308 -0.1171 -0.0320 -0.1013
 1219ERGO    C116817   0.798  13.968   6.508 -0.0969 -0.1230  0.0012
 1219ERGO    C216818   0.852  14.011   6.877 -0.2509  0.0425 -0.0426
 1220ERGO   ROH16819   3.300   4.531   6.940 -0.0012  0.0368  0.1705
 1220ERGO    R116820   3.448   4.318   7.052  0.0651  0.0192  0.0530
 1220ERGO    R216821   3.380   4.201   7.293  0.1559 -0.0739  0.0372
 1220ERGO    R316822   3.383   3.972   7.146  0.1425 -0.0213 -0.0442
 1220ERGO    R416823   3.342   3.882   7.422  0.0046 -0.1105 -0.0967
 1220ERGO    R516824   3.497   3.813   7.285  0.0359 -0.1084 -0.0585
 1220ERGO    C116825   3.322   3.482   7.359 -0.0962 -0.0824 -0.2510
 1220ERGO    C216826   3.223   3.248   7.624 -0.1608  0.0961 -0.2859
 1221ERGO   ROH16827   4.947   1.467   5.554 -0.1220  0.0394  0.2413
 1221ERGO    R116828   4.959   1.602   5.802  0.1786  0.2715  0.1055
 1221ERGO    R216829   4.989   1.469   6.042 -0.0550  0.4516  0.2290
 1221ERGO    R316830   5.201   1.637   6.072  0.2899  0.0714  0.0375
 1221ERGO    R416831   5.155   1.526   6.340  0.0657  0.4218  0.1692
 1221ERGO    R516832   5.167   1.737   6.287  0.4849  0.3641 -0.0539
 1221ERGO    C116833   5.450   1.717   6.542  0.4598  0.0475 -0.0455
 1221ERGO    C216834   5.514   1.460   6.745 -0.0364  0.3742  0.3676
 1222ERGO   ROH16835  18.784   0.533   5.576 -0.0632 -0.1808  0.0716
 1222ERGO    R116836  18.996   0.477   5.754  0.0607 -0.3347 -0.1182
 1222ERGO    R216837  19.252   0.419   5.668  0.1161  0.1750 -0.3423
 1222ERGO    R316838  19.319   0.623   5.835 -0.0952 -0.1098  0.1099
 1222ERGO    R416839  19.558   0.454   5.824  0.2114  0.3362 -0.5612
 1222ERGO    R516840  19.454   0.520   6.004  0.2596 -0.3017 -0.2782
 1222ERGO    C116841  19.800   0.665   6.071  0.0684  0.1627 -0.2642
 1222ERGO    C216842  20.117   0.649   6.195  0.0558 -0.0108 -0.0518
 1223ERGO   ROH16843   8.295   2.301   5.635  0.0784 -0.1351  0.0345
 1223ERGO    R116844   8.410   2.234   5.886 -0.0668  0.1163  0.1725
 1223ERGO    R216845   8.668   2.137   5.910 -0.2241 -0.2804  0.3714
 1223ERGO    R316846   8.695   2.345   6.083  0.0979 -0.0013  0.0037
 1223ERGO    R416847   8.921   2.169   6.143 -0.3022 -0.3832  0.4708
 1223ERGO    R516848   8.775   2.244   6.285 -0.2449  0.1973  0.2473
 1223ERGO    C116849   9.095   2.382   6.441 -0.0453 -0.1811  0.1834
 1223ERGO    C216850   9.355   2.678   6.514  0.1712 -0.2474 -0.3047
 1224ERGO   ROH16851  13.299   9.893   6.235  0.1798 -0.1489  0.0051
 1224ERGO    R116852  13.320  10.151   6.348  0.0330 -0.1322 -0.0037
 1224ERGO    R216853  13.315  10.195   6.620  0.1682 -0.1434  0.0007
 1224ERGO    R316854  13.549  10.324   6.571  0.0308  0.0572 -0.1452
 1224ERGO    R416855  13.432  10.467   6.800  0.0062  0.0159 -0.1306
 1224ERGO    R516856  13.499  10.555   6.612 -0.1611  0.0257 -0.1886
 1224ERGO    C116857  13.720  10.746   6.858 -0.2172  0.2970 -0.3441
 1224ERGO    C216858  13.787  10.911   7.180 -0.0990  0.0507  0.1104
 1225ERGO   ROH16859  17.360   4.309   5.666 -0.0238  0.0133 -0.0184
 1225ERGO    R116860  17.346   4.277   5.946 -0.0265  0.0258 -0.0170
 1225ERGO    R216861  17.112   4.315   6.089 -0.0122  0.1012 -0.0122
 1225ERGO    R316862  17.165   4.064   6.180 -0.0858  0.0875 -0.0065
 1225ERGO    R416863  17.016   4.192   6.397  0.2115  0.2370  0.1148
 1225ERGO    R516864  17.209   4.094   6.413  0.1653  0.1146 -0.0552
 1225ERGO    C116865  17.009   3.885   6.662  0.2726  0.3033  0.1942
 1225ERGO    C216866  16.998   3.880   6.956  0.0467 -0.0973  0.0827
 1226ERGO   ROH16867   2.396   2.327   5.332  0.4533 -0.1234 -0.0136
 1226ERGO    R116868   2.478   2.247   5.591  0.2774  0.0010  0.0833
 1226ERGO    R216869   2.447   2.409   5.814  0.0187  0.0636  0.0094
 1226ERGO    R316870   2.318   2.192   5.914  0.0345  0.0375 -0.0292
 1226ERGO    R416871   2.476   2.294   6.138  0.1432 -0.0838 -0.0537
 1226ERGO    R516872   2.477   2.090   6.061  0.0830 -0.0484 -0.1425
 1226ERGO    C116873   2.372   2.022   6.421  0.2305 -0.1941 -0.1266
 1226ERGO    C216874   2.427   2.077   6.744 -0.0028 -0.2011  0.1200
 1227ERGO   ROH16875  17.958   1.410   5.776 -0.3828 -0.1361 -0.0415
 1227ERGO    R116876  17.762   1.441   5.977 -0.2146 -0.1133  0.1209
 1227ERGO    R216877  17.791   1.334   6.230  0.0956  0.1003  0.1791
 1227ERGO    R316878  17.744   1.590   6.309 -0.0014  0.1314  0.0263
 1227ERGO    R416879  17.817   1.448   6.555 -0.0072  0.2882  0.1233
 1227ERGO    R516880  17.637   1.568   6.522 -0.0401  0.2153  0.0179
 1227ERGO    C116881  17.788   1.755   6.818 -0.1585  0.4267 -0.0525
 1227ERGO    C216882  18.017   2.019   6.961 -0.1136  0.0007 -0.0594
 1228ERGO   ROH16883  19.034  17.522   5.827 -0.1546 -0.2262  0.2488
 1228ERGO    R116884  19.030  17.427   6.093 -0.0830 -0.1591  0.2748
 1228ERGO    R216885  19.239  17.284   6.203 -0.0027 -0.0327  0.2932
 1228ERGO    R316886  19.227  17.477   6.395 -0.0757  0.0136  0.2417
 1228ERGO    R416887  19.360  17.250   6.525  0.0832  0.1308  0.2788
 1228ERGO    R516888  19.184  17.356   6.598  0.0374  0.0469  0.2843
 1228ERGO    C116889  19.420  17.411   6.893  0.0649  0.2695  0.2221
 1228ERGO    C216890  19.642  17.217   7.094 -0.4804  0.3791  0.0942
 1229ERGO   ROH16891  19.310  13.525   5.714  0.0550  0.0106  0.0703
 1229ERGO    R116892  19.145  13.545   5.943  0.0326  0.0607  0.0492
 1229ERGO    R216893  19.129  13.345   6.132 -0.0369  0.0756  0.0550
 1229ERGO    R316894  19.193  13.546   6.304 -0.0120  0.0676  0.0560
 1229ERGO    R416895  18.966  13.411   6.430  0.0049  0.0553  0.0832
 1229ERGO    R516896  18.982  13.624   6.386 -0.0034  0.0605  0.0911
 1229ERGO    C116897  18.931  13.639   6.763  0.0524  0.0361  0.1005
 1229ERGO    C216898  18.667  13.835   6.955 -0.1509  0.1839  0.3254
 1230ERGO   ROH16899  19.225   9.367   5.736 -0.2154  0.0672  0.0006
 1230ERGO    R116900  19.108   9.353   5.993 -0.1501  0.0468  0.0299
 1230ERGO    R216901  19.164   9.150   6.172 -0.1869 -0.0281 -0.0406
 1230ERGO    R316902  19.225   9.357   6.338 -0.0515 -0.0986 -0.0016
 1230ERGO    R416903  19.177   9.130   6.517 -0.1159 -0.1199 -0.0485
 1230ERGO    R516904  19.082   9.326   6.527 -0.0213 -0.0782  0.0235
 1230ERGO    C116905  19.242   9.312   6.873  0.0531 -0.2395 -0.0166
 1230ERGO    C216906  19.205   9.547   7.124  0.2014  0.0620 -0.2108
 1231ERGO   ROH16907  11.584   9.236   6.330  0.3019  0.0675  0.2255
 1231ERGO    R116908  11.342   9.312   6.457  0.2497  0.1153  0.0971
 1231ERGO    R216909  11.162   9.128   6.557  0.1310  0.1524 -0.0583
 1231ERGO    R316910  11.193   9.270   6.786  0.0331  0.0866 -0.0020
 1231ERGO    R416911  10.919   9.166   6.800  0.0517  0.0042 -0.1112
 1231ERGO    R516912  10.980   9.374   6.821 -0.0083  0.0182 -0.0267
 1231ERGO    C116913  10.807   9.323   7.157 -0.0863 -0.1438 -0.0891
 1231ERGO    C216914  10.541   9.250   7.246  0.0535 -0.1994  0.3175
 1232ERGO   ROH16915  18.138  13.555   5.377 -0.0484 -0.0404 -0.0962
 1232ERGO    R116916  18.113  13.396   5.610  0.0405 -0.0182 -0.0724
 1232ERGO    R216917  18.210  13.476   5.856  0.0295  0.0569 -0.0959
 1232ERGO    R316918  17.955  13.427   5.936  0.0573 -0.0412 -0.0613
 1232ERGO    R416919  18.104  13.474   6.185  0.0266  0.2536 -0.0935
 1232ERGO    R516920  17.980  13.301   6.139  0.1363  0.1344  0.0425
 1232ERGO    C116921  17.803  13.427   6.452  0.0515  0.2760 -0.0596
 1232ERGO    C216922  17.598  13.475   6.824 -0.0584  0.0006  0.0252
 1233ERGO   ROH16923  16.004   2.713   5.787 -0.2742 -0.2415 -0.1665
 1233ERGO    R116924  15.921   2.689   6.057 -0.1356 -0.2170 -0.1208
 1233ERGO    R216925  15.846   2.447   6.169  0.0776 -0.2348 -0.0133
 1233ERGO    R316926  16.035   2.512   6.354  0.1197 -0.0521 -0.1174
 1233ERGO    R416927  15.821   2.382   6.507  0.2497 -0.0965  0.0278
 1233ERGO    R516928  15.909   2.578   6.546  0.1631 -0.0321 -0.0959
 1233ERGO    C116929  15.983   2.405   6.878  0.3895  0.1555 -0.0461
 1233ERGO    C216930  16.142   2.458   7.131  0.2830 -0.0427  0.0163
 1234ERGO   ROH16931   6.607   0.687   5.253 -0.2484 -0.2438  0.2354
 1234ERGO    R116932   6.694   0.858   5.462 -0.1334 -0.0040 -0.0025
 1234ERGO    R216933   6.601   0.836   5.721 -0.0085  0.3036  0.0743
 1234ERGO    R316934   6.866   0.819   5.780  0.0199  0.3556 -0.0372
 1234ERGO    R416935   6.741   0.930   6.022  0.0786  0.2042  0.0649
 1234ERGO    R516936   6.909   1.015   5.911  0.0100  0.3075  0.0386
 1234ERGO    C116937   7.071   0.970   6.254  0.1559  0.1952 -0.0453
 1234ERGO    C216938   7.234   1.045   6.563 -0.2529 -0.1945 -0.5286
 1235ERGO   ROH16939  12.490  15.164   5.528 -0.1639  0.1184  0.0017
 1235ERGO    R116940  12.482  14.904   5.640 -0.2157  0.0686 -0.1140
 1235ERGO    R216941  12.689  14.800   5.791 -0.1739 -0.0941 -0.2692
 1235ERGO    R316942  12.491  14.759   5.973 -0.0968 -0.0855 -0.1850
 1235ERGO    R416943  12.711  14.586   6.062 -0.1040 -0.1491 -0.3191
 1235ERGO    R516944  12.505  14.525   6.024 -0.1300 -0.0937 -0.2336
 1235ERGO    C116945  12.539  14.423   6.390  0.0091 -0.1729 -0.2690
 1235ERGO    C216946  12.542  14.315   6.744  0.2407  0.1532  0.1084
 1236ERGO   ROH16947  19.178   4.314   5.714  0.0713 -0.0703 -0.0806
 1236ERGO    R116948  19.145   4.404   5.980  0.0204 -0.0197 -0.1038
 1236ERGO    R216949  18.914   4.360   6.125 -0.0154  0.0260 -0.1464
 1236ERGO    R316950  19.086   4.252   6.306 -0.0639  0.0435 -0.0892
 1236ERGO    R416951  18.820   4.174   6.401 -0.0854  0.0078 -0.1819
 1236ERGO    R516952  18.975   4.276   6.516 -0.1383  0.0242 -0.1266
 1236ERGO    C116953  18.928   3.964   6.731 -0.1715  0.0135 -0.1490
 1236ERGO    C216954  19.107   3.737   6.834  0.0988 -0.3347  0.0816
 1237ERGO   ROH16955   6.223   5.990   5.852 -0.0470  0.0078 -0.1621
 1237ERGO    R116956   6.245   5.954   6.132 -0.1103 -0.2226 -0.1848
 1237ERGO    R216957   6.252   6.165   6.309  0.1883 -0.3518 -0.0342
 1237ERGO    R316958   6.046   6.033   6.426 -0.0124 -0.1388 -0.1404
 1237ERGO    R416959   6.142   6.218   6.632  0.2226 -0.3957 -0.0155
 1237ERGO    R516960   6.116   6.002   6.653 -0.0799 -0.3756 -0.1495
 1237ERGO    C116961   5.884   6.124   6.930  0.0541 -0.2214 -0.1043
 1237ERGO    C216962   5.690   6.282   7.294 -0.0643  0.0843 -0.1342
 1238ERGO   ROH16963  17.886   8.847   5.994 -0.0753 -0.1411  0.1081
 1238ERGO    R116964  17.937   9.029   6.205  0.1371 -0.1236  0.0450
 1238ERGO    R216965  17.807   9.016   6.449 -0.0179  0.2224 -0.0087
 1238ERGO    R316966  18.060   9.009   6.547 -0.0704 -0.1793  0.1163
 1238ERGO    R416967  17.896   9.107   6.770 -0.0307  0.0035  0.0583
 1238ERGO    R516968  18.074   9.203   6.688  0.1520 -0.2374  0.1726
 1238ERGO    C116969  18.186   9.155   7.049 -0.0872 -0.5009  0.2147
 1238ERGO    C216970  18.308   9.208   7.263 -0.1549 -0.0842  0.0868
 1239ERGO   ROH16971   9.280  18.148   5.722  0.0308  0.0639  0.0208
 1239ERGO    R116972   9.206  18.069   5.984 -0.0734  0.1201  0.0100
 1239ERGO    R216973   9.391  18.003   6.178 -0.1509 -0.0376  0.0430
 1239ERGO    R316974   9.259  18.192   6.322 -0.0187  0.0745  0.0154
 1239ERGO    R416975   9.332  17.987   6.519 -0.3045 -0.0092  0.0171
 1239ERGO    R516976   9.133  18.068   6.483 -0.2047  0.1903 -0.0484
 1239ERGO    C116977   9.174  18.156   6.851 -0.2699  0.1127 -0.0238
 1239ERGO    C216978   9.083  18.420   7.067  0.0012  0.0810  0.3877
 1240ERGO   ROH16979  18.494   7.985   6.082 -0.0299 -0.0397  0.0526
 1240ERGO    R116980  18.552   7.978   6.359  0.0218  0.2480  0.0530
 1240ERGO    R216981  18.514   8.196   6.525 -0.4547  0.2693 -0.0657
 1240ERGO    R316982  18.366   8.019   6.669 -0.0463  0.0049  0.0457
 1240ERGO    R416983  18.458   8.218   6.865 -0.3129  0.2108 -0.0381
 1240ERGO    R516984  18.482   8.002   6.878  0.1043  0.2542 -0.0150
 1240ERGO    C116985  18.286   8.066   7.199  0.1530 -0.0714  0.0826
 1240ERGO    C216986  18.009   7.997   7.477 -0.1777  0.1859 -0.1216
 1241ERGO   ROH16987   1.686  16.799   5.259 -0.1124  0.0534 -0.1638
 1241ERGO    R116988   1.746  16.730   5.527 -0.2159  0.0334 -0.1448
 1241ERGO    R216989   1.982  16.806   5.650 -0.1081 -0.2630 -0.1574
 1241ERGO    R316990   1.813  16.908   5.837  0.0247  0.0219 -0.1882
 1241ERGO    R416991   2.052  16.828   5.988 -0.0504 -0.1764 -0.1750
 1241ERGO    R516992   1.846  16.769   6.029 -0.1155  0.0774 -0.1235
 1241ERGO    C116993   1.934  16.937   6.360  0.1078  0.1417 -0.2140
 1241ERGO    C216994   1.929  16.955   6.715 -0.2745 -0.0674  0.2807
 1242ERGO   ROH16995   5.292   5.164   5.789 -0.0914  0.0610  0.0293
 1242ERGO    R116996   5.469   5.245   5.995  0.1075 -0.0867 -0.0812
 1242ERGO    R216997   5.410   5.215   6.263  0.1703  0.1234 -0.0464
 1242ERGO    R316998   5.649   5.085   6.267 -0.0020 -0.2090 -0.0778
 1242ERGO    R416999   5.587   5.135   6.549  0.3087  0.3051 -0.0790
 1242ERGO    R517000   5.770   5.190   6.445  0.3042 -0.1020 -0.3346
 1242ERGO    C117001   5.914   4.968   6.720  0.2275  0.0989 -0.1275
 1242ERGO    C217002   6.133   4.851   6.966 -0.2438  0.0630 -0.3179
 1243ERGO   ROH17003  17.996  15.938   5.888  0.3481 -0.0501 -0.1240
 1243ERGO    R117004  18.084  15.764   6.094  0.0867  0.0653  0.0898
 1243ERGO    R217005  18.342  15.667   6.107 -0.0223 -0.2041  0.2788
 1243ERGO    R317006  18.334  15.772   6.358  0.0032  0.0654  0.1706
 1243ERGO    R417007  18.536  15.561   6.373 -0.1451 -0.0718  0.4237
 1243ERGO    R517008  18.363  15.583   6.503 -0.1580  0.1881  0.3726
 1243ERGO    C117009  18.642  15.597   6.763 -0.1927  0.2584  0.4066
 1243ERGO    C217010  18.894  15.648   6.912 -0.2023  0.0117  0.3440
 1244ERGO   ROH17011   7.881  16.970   5.310  0.1428  0.0768  0.0516
 1244ERGO    R117012   7.895  17.029   5.587  0.0530  0.1497  0.0431
 1244ERGO    R217013   7.675  17.109   5.733 -0.0334  0.0579 -0.0135
 1244ERGO    R317014   7.744  16.900   5.892  0.0629  0.1274  0.0340
 1244ERGO    R417015   7.639  17.103   6.077 -0.1142  0.0546 -0.0228
 1244ERGO    R517016   7.833  17.003   6.090 -0.0628  0.1932  0.0438
 1244ERGO    C117017   7.683  16.903   6.426 -0.0708  0.1177  0.0164
 1244ERGO    C217018   7.485  16.878   6.746 -0.0949 -0.2304 -0.3634
 1245ERGO   ROH17019  13.812  16.629   5.659 -0.1607  0.0429 -0.0675
 1245ERGO    R117020  13.766  16.573   5.932 -0.2062  0.0250 -0.0788
 1245ERGO    R217021  13.775  16.317   6.035 -0.0970  0.0328 -0.0707
 1245ERGO    R317022  13.954  16.427   6.208 -0.2036  0.1323 -0.0223
 1245ERGO    R417023  13.785  16.254   6.375  0.0736 -0.2611 -0.1265
 1245ERGO    R517024  13.827  16.466   6.408 -0.2137 -0.2229  0.0496
 1245ERGO    C117025  13.959  16.322   6.735  0.0729 -0.3386 -0.1136
 1245ERGO    C217026  13.946  16.252   7.083  0.2013  0.0944  0.2098
 1246ERGO   ROH17027   8.717  17.236   5.793 -0.2029  0.1369 -0.2394
 1246ERGO    R117028   8.838  17.475   5.885 -0.1842  0.1093 -0.1919
 1246ERGO    R217029   8.693  17.704   5.938 -0.1661  0.1100 -0.1458
 1246ERGO    R317030   8.816  17.686   6.180 -0.1670  0.0521 -0.1496
 1246ERGO    R417031   8.632  17.914   6.206 -0.2637 -0.0349 -0.0526
 1246ERGO    R517032   8.847  17.914   6.248 -0.2646  0.0359 -0.0460
 1246ERGO    C117033   8.712  18.020   6.589 -0.3212 -0.1734 -0.0019
 1246ERGO    C217034   8.675  18.132   6.933 -0.0464  0.0448 -0.4715
 1247ERGO   ROH17035  15.263   8.232   6.168  0.1437  0.1611  0.1702
 1247ERGO    R117036  15.143   8.188   6.421  0.0678  0.0125  0.1095
 1247ERGO    R217037  14.946   8.354   6.523  0.1896  0.0799  0.2405
 1247ERGO    R317038  14.808   8.121   6.546 -0.0102  0.1691 -0.0122
 1247ERGO    R417039  14.681   8.302   6.738  0.0129  0.1288  0.0373
 1247ERGO    R517040  14.759   8.103   6.780 -0.1703  0.0364 -0.0546
 1247ERGO    C117041  14.396   8.054   6.885 -0.2775  0.2410 -0.3183
 1247ERGO    C217042  14.063   8.046   7.059  0.3960 -0.3540  0.0481
 1248ERGO   ROH17043  11.137  14.127   5.777 -0.2180 -0.2522 -0.0027
 1248ERGO    R117044  11.099  14.078   6.053 -0.0165 -0.1000  0.0539
 1248ERGO    R217045  11.301  14.110   6.238  0.0868  0.1106 -0.0965
 1248ERGO    R317046  11.119  14.270   6.361  0.0916  0.0990 -0.0732
 1248ERGO    R417047  11.294  14.175   6.578 -0.0025 -0.0783 -0.0606
 1248ERGO    R517048  11.076  14.161   6.570 -0.0105 -0.0096 -0.1451
 1248ERGO    C117049  11.118  14.364   6.891 -0.0499 -0.1993 -0.0178
 1248ERGO    C217050  11.292  14.397   7.311  0.0218 -0.0999 -0.0804
 1249ERGO   ROH17051  11.507  16.785   5.595  0.1013 -0.2893  0.0176
 1249ERGO    R117052  11.529  16.977   5.802  0.0422 -0.2019 -0.0575
 1249ERGO    R217053  11.323  17.031   5.977  0.0001 -0.1413 -0.1284
 1249ERGO    R317054  11.512  16.979   6.165 -0.0407 -0.0494 -0.0604
 1249ERGO    R417055  11.308  17.137   6.306 -0.1808 -0.1591 -0.1296
 1249ERGO    R517056  11.522  17.179   6.296 -0.1962 -0.0457 -0.0489
 1249ERGO    C117057  11.477  17.149   6.674 -0.3244 -0.0830 -0.0665
 1249ERGO    C217058  11.262  17.283   6.983 -0.0254 -0.0725 -0.0667
 1250ERGO   ROH17059  12.532  12.178   5.912  0.0059  0.1075  0.1153
 1250ERGO    R117060  12.486  12.257   6.180  0.1744  0.1267  0.1395
 1250ERGO    R217061  12.343  12.103   6.359  0.1242  0.2265  0.1865
 1250ERGO    R317062  12.567  12.130   6.511  0.2072  0.0425  0.0995
 1250ERGO    R417063  12.355  12.061   6.702  0.1957  0.3248  0.1960
 1250ERGO    R517064  12.489  12.232   6.713  0.3815  0.1906  0.0942
 1250ERGO    C117065  12.572  12.062   7.044  0.3152  0.2092  0.1198
 1250ERGO    C217066  12.737  11.710   7.257 -0.0783  0.0363 -0.2056
 1251ERGO   ROH17067   6.335   4.885   5.815 -0.0677  0.0077 -0.1238
 1251ERGO    R117068   6.389   4.790   6.076 -0.1402  0.0368 -0.0977
 1251ERGO    R217069   6.380   4.522   6.141 -0.2136  0.0473 -0.0560
 1251ERGO    R317070   6.632   4.570   6.232 -0.2203  0.0061 -0.0162
 1251ERGO    R417071   6.598   4.279   6.256 -0.1758 -0.0188 -0.2631
 1251ERGO    R517072   6.659   4.416   6.414 -0.1956 -0.1450 -0.1466
 1251ERGO    C117073   6.961   4.183   6.409 -0.1602 -0.0959 -0.3463
 1251ERGO    C217074   7.219   4.179   6.467  0.2442 -0.1304 -0.1732
 1252ERGO   ROH17075  17.247  13.624   5.639 -0.2672 -0.2736 -0.0730
 1252ERGO    R117076  17.228  13.456   5.867 -0.1977 -0.2320 -0.0351
 1252ERGO    R217077  17.335  13.201   5.873 -0.1567 -0.2189 -0.0046
 1252ERGO    R317078  17.460  13.295   6.096 -0.1270 -0.1507 -0.0508
 1252ERGO    R417079  17.449  13.004   6.133 -0.1886 -0.1267  0.0793
 1252ERGO    R517080  17.378  13.155   6.273 -0.1472 -0.0521  0.0141
 1252ERGO    C117081  17.634  12.976   6.493 -0.1792 -0.0091  0.0847
 1252ERGO    C217082  17.792  13.013   6.721  0.0201 -0.3744  0.0756
 1253ERGO   ROH17083   6.955   6.870   5.817 -0.1315 -0.0583  0.0280
 1253ERGO    R117084   7.035   6.769   6.069 -0.0451  0.0286  0.0380
 1253ERGO    R217085   7.214   6.902   6.234 -0.1512  0.1981  0.0349
 1253ERGO    R317086   7.014   6.876   6.416 -0.1398  0.0447  0.0242
 1253ERGO    R417087   7.257   6.872   6.576 -0.1668  0.1785  0.0340
 1253ERGO    R517088   7.099   6.724   6.579 -0.0633  0.0844  0.0083
 1253ERGO    C117089   7.094   6.831   6.945 -0.1652  0.0233  0.0234
 1253ERGO    C217090   7.117   6.819   7.202  0.1831  0.3365 -0.0544
 1254ERGO   ROH17091  16.642  12.683   5.716  0.2157 -0.2120 -0.0418
 1254ERGO    R117092  16.527  12.619   5.967  0.1696 -0.0368 -0.0169
 1254ERGO    R217093  16.667  12.485   6.165  0.0910 -0.0139  0.0523
 1254ERGO    R317094  16.593  12.698   6.316  0.1893  0.0937 -0.0490
 1254ERGO    R417095  16.724  12.515   6.504 -0.2345 -0.0618  0.1153
 1254ERGO    R517096  16.526  12.602   6.525 -0.1573  0.1894 -0.1085
 1254ERGO    C117097  16.689  12.733   6.844 -0.3317  0.0113  0.0568
 1254ERGO    C217098  16.849  12.907   7.050  0.0353 -0.2271 -0.1037
 1255ERGO   ROH17099  16.699  19.056   5.536  0.0728  0.0882  0.0284
 1255ERGO    R117100  16.576  19.174   5.762 -0.0749  0.1364 -0.0751
 1255ERGO    R217101  16.307  19.147   5.817 -0.0561 -0.1071 -0.0832
 1255ERGO    R317102  16.397  19.058   6.057  0.0191  0.1724 -0.0039
 1255ERGO    R417103  16.117  19.128   6.105 -0.0992 -0.2181 -0.1184
 1255ERGO    R517104  16.290  19.199   6.217 -0.2323  0.1096 -0.1154
 1255ERGO    C117105  16.092  19.033   6.498 -0.0537 -0.0202 -0.0645
 1255ERGO    C217106  15.772  18.980   6.590  0.2014  0.0334  0.0722
 1256ERGO   ROH17107  15.350  18.813   5.242  0.0812  0.2392  0.0543
 1256ERGO    R117108  15.182  18.774   5.467  0.0279  0.1253 -0.0043
 1256ERGO    R217109  15.270  18.653   5.699  0.0289  0.1846  0.0256
 1256ERGO    R317110  15.177  18.881   5.815 -0.1667  0.1221 -0.0046
 1256ERGO    R417111  15.306  18.734   6.033 -0.1031  0.2255  0.0304
 1256ERGO    R517112  15.102  18.811   6.031 -0.1626  0.0744 -0.0176
 1256ERGO    C117113  15.239  18.994   6.336 -0.3637  0.1905  0.0049
 1256ERGO    C217114  15.229  19.158   6.603 -0.0530  0.1714  0.0907
 1257ERGO   ROH17115   9.130  17.189   6.111  0.0119  0.2027 -0.0488
 1257ERGO    R117116   8.902  17.108   6.257  0.0412  0.0808 -0.0705
 1257ERGO    R217117   8.763  17.280   6.423 -0.0009 -0.0239 -0.0005
 1257ERGO    R317118   8.551  17.201   6.272  0.0134 -0.0274 -0.0195
 1257ERGO    R417119   8.431  17.329   6.506 -0.0064  0.0873 -0.0847
 1257ERGO    R517120   8.387  17.129   6.431 -0.0377  0.0675 -0.0248
 1257ERGO    C117121   8.039  17.283   6.413  0.0038  0.1486 -0.1516
 1257ERGO    C217122   7.576  17.355   6.478  0.2095 -0.3704 -0.3357
 1258ERGO   ROH17123  12.010  10.481   6.086  0.1927 -0.0802  0.0082
 1258ERGO    R117124  11.971  10.626   6.326  0.1691  0.0055 -0.0459
 1258ERGO    R217125  11.778  10.558   6.512  0.0785  0.1344 -0.0865
 1258ERGO    R317126  11.989  10.556   6.683  0.0237  0.0999 -0.0202
 1258ERGO    R417127  11.753  10.554   6.856 -0.0265 -0.0164 -0.0956
 1258ERGO    R517128  11.919  10.695   6.865 -0.0563  0.0081  0.0169
 1258ERGO    C117129  11.937  10.550   7.218 -0.1392 -0.1364 -0.0385
 1258ERGO    C217130  12.027  10.541   7.543  0.0060 -0.1070 -0.1562
 1259ERGO   ROH17131  13.877  15.327   5.477  0.4516 -0.3036  0.0342
 1259ERGO    R117132  13.924  15.554   5.639  0.5404 -0.2460 -0.0724
 1259ERGO    R217133  13.734  15.656   5.812  0.4579  0.1083 -0.3637
 1259ERGO    R317134  13.933  15.628   5.995  0.2146 -0.0073 -0.1079
 1259ERGO    R417135  13.731  15.793   6.129  0.1778  0.2177 -0.4099
 1259ERGO    R517136  13.942  15.840   6.105  0.2584  0.0273 -0.1694
 1259ERGO    C117137  13.917  15.847   6.485 -0.2136  0.1729 -0.1968
 1259ERGO    C217138  13.959  15.818   6.824  0.3008 -0.1402 -0.4356
 1260ERGO   ROH17139   0.740  18.892   5.626  0.1446 -0.2992  0.1224
 1260ERGO    R117140   0.935  18.952   5.822  0.1613 -0.1925  0.0745
 1260ERGO    R217141   1.001  19.211   5.891  0.0896 -0.1537  0.0069
 1260ERGO    R317142   0.943  19.125   6.142  0.1623 -0.1197  0.0352
 1260ERGO    R417143   1.100  19.369   6.183  0.1083 -0.0718 -0.0441
 1260ERGO    R517144   1.140  19.173   6.269  0.1754 -0.0443 -0.0139
 1260ERGO    C117145   1.103  19.379   6.588  0.1876  0.0078 -0.0472
 1260ERGO    C217146   1.046  19.522   6.864 -0.1963 -0.0835  0.1510
 1261ERGO   ROH17147   6.226   3.790   5.675  0.0508 -0.0373  0.0835
 1261ERGO    R117148   6.179   3.949   5.904 -0.0847  0.0445  0.0003
 1261ERGO    R217149   6.014   3.868   6.111 -0.0273  0.0174  0.0372
 1261ERGO    R317150   6.234   3.919   6.263 -0.0709  0.2722  0.0183
 1261ERGO    R417151   6.007   3.962   6.444 -0.1010 -0.2341  0.1086
 1261ERGO    R517152   6.168   4.102   6.403 -0.3415  0.0664  0.1684
 1261ERGO    C117153   6.209   4.064   6.780 -0.1849 -0.1414  0.1324
 1261ERGO    C217154   6.333   3.983   6.972 -0.3250 -0.0896  0.1470
 1262ERGO   ROH17155   1.398   3.962   6.054  0.2110 -0.0203 -0.2866
 1262ERGO    R117156   1.435   3.913   6.331 -0.0747  0.0352 -0.2347
 1262ERGO    R217157   1.661   3.788   6.431 -0.2625 -0.1203  0.0073
 1262ERGO    R317158   1.676   4.010   6.586 -0.2193 -0.0819 -0.0518
 1262ERGO    R417159   1.839   3.811   6.726 -0.2107 -0.0596 -0.0288
 1262ERGO    R517160   1.674   3.926   6.810 -0.1878 -0.0255 -0.0302
 1262ERGO    C117161   1.956   4.033   7.044 -0.1400  0.0118 -0.1051
 1262ERGO    C217162   2.067   4.288   7.316 -0.0164  0.2214 -0.2619
 1263ERGO   ROH17163  19.114   7.137   6.220  0.0470  0.1159  0.1395
 1263ERGO    R117164  19.046   7.173   6.493  0.0205  0.1776  0.1264
 1263ERGO    R217165  19.175   7.040   6.698 -0.1448  0.0517  0.1593
 1263ERGO    R317166  19.212   7.292   6.794  0.0699  0.0193  0.1604
 1263ERGO    R417167  19.222   7.120   7.031 -0.2911  0.0344  0.1832
 1263ERGO    R517168  19.095   7.294   7.002 -0.0740  0.1737  0.0755
 1263ERGO    C117169  19.284   7.402   7.315 -0.1747 -0.0062  0.1983
 1263ERGO    C217170  19.530   7.690   7.583 -0.0026  0.1638  0.3062
 1264ERGO   ROH17171  10.304  18.562   6.097 -0.1402 -0.1363 -0.0300
 1264ERGO    R117172  10.213  18.386   6.299 -0.0773 -0.2579 -0.1059
 1264ERGO    R217173  10.381  18.212   6.432 -0.0004 -0.2028 -0.1316
 1264ERGO    R317174  10.280  18.333   6.653 -0.1160 -0.3358 -0.1099
 1264ERGO    R417175  10.468  18.134   6.757  0.2462 -0.0298 -0.1529
 1264ERGO    R517176  10.259  18.156   6.813  0.2240 -0.3570 -0.0798
 1264ERGO    C117177  10.424  18.202   7.154  0.2814 -0.0536 -0.1449
 1264ERGO    C217178  10.478  18.046   7.452  0.0331  0.1011  0.2674
 1265ERGO   ROH17179   7.062  11.801   5.665 -0.1562  0.1351  0.0921
 1265ERGO    R117180   7.158  11.769   5.929 -0.0506  0.0091  0.0396
 1265ERGO    R217181   7.032  11.881   6.148  0.1669  0.1020  0.1195
 1265ERGO    R317182   7.035  11.625   6.240 -0.0301  0.0859  0.0840
 1265ERGO    R417183   6.939  11.784   6.467  0.1052  0.1345  0.1113
 1265ERGO    R517184   7.106  11.644   6.468 -0.0030  0.0008  0.0842
 1265ERGO    C117185   6.888  11.488   6.738 -0.1157  0.1382  0.0732
 1265ERGO    C217186   6.954  11.499   7.105  0.0747 -0.4779 -0.0620
 1266ERGO   ROH17187  13.459  16.985   5.625  0.1337  0.2146 -0.0977
 1266ERGO    R117188  13.528  17.000   5.899  0.0968  0.1222 -0.0843
 1266ERGO    R217189  13.340  16.982   6.101  0.0817 -0.0218 -0.1175
 1266ERGO    R317190  13.502  16.783   6.190  0.1342 -0.0067 -0.1744
 1266ERGO    R417191  13.406  16.916   6.433 -0.0946 -0.2444 -0.1229
 1266ERGO    R517192  13.614  16.879   6.379 -0.0349 -0.0891 -0.0258
 1266ERGO    C117193  13.597  16.691   6.711 -0.1479 -0.3599 -0.1795
 1266ERGO    C217194  13.510  16.510   6.990  0.1282  0.1802  0.2831
 1267ERGO   ROH17195  12.746   0.279   5.798  0.2636  0.0501 -0.0885
 1267ERGO    R117196  12.835   0.323   6.063  0.1490  0.0652 -0.0519
 1267ERGO    R217197  12.776   0.150   6.270  0.1704  0.0077 -0.0947
 1267ERGO    R317198  13.046   0.149   6.303  0.1608  0.1489 -0.0009
 1267ERGO    R417199  12.940   0.049   6.557  0.1282 -0.1031 -0.1089
 1267ERGO    R517200  13.079   0.215   6.530  0.0382  0.0032  0.0614
 1267ERGO    C117201  13.289  -0.010   6.755  0.0946 -0.0350 -0.0292
 1267ERGO    C217202  13.353  -0.257   6.942  0.0933  0.1684  0.1073
 1268ERGO   ROH17203   3.675  11.447   7.089 -0.2405 -0.0496  0.0159
 1268ERGO    R117204   3.920  11.345   6.989 -0.2671  0.0040 -0.1055
 1268ERGO    R217205   4.155  11.359   7.132 -0.1836  0.1178 -0.2503
 1268ERGO    R317206   4.160  11.090   7.087 -0.1244  0.1074 -0.1831
 1268ERGO    R417207   4.443  11.169   7.100 -0.1421  0.1839 -0.2718
 1268ERGO    R517208   4.346  11.058   6.939 -0.1524  0.1177 -0.2199
 1268ERGO    C117209   4.615  10.807   7.040 -0.0625  0.2126 -0.2212
 1268ERGO    C217210   5.038  10.692   7.039  0.0198 -0.1052  0.0312
 1269ERGO   ROH17211  12.954  16.082   5.538  0.1801  0.0274  0.0374
 1269ERGO    R117212  12.862  16.237   5.756  0.4256  0.1673  0.0451
 1269ERGO    R217213  12.654  16.156   5.919  0.1703  0.5685 -0.0711
 1269ERGO    R317214  12.836  16.197   6.117  0.1835  0.1081  0.0239
 1269ERGO    R417215  12.575  16.213   6.251  0.1467  0.5192 -0.0679
 1269ERGO    R517216  12.734  16.362   6.258  0.4354  0.2240  0.0807
 1269ERGO    C117217  12.700  16.285   6.630  0.1453  0.0580  0.0231
 1269ERGO    C217218  12.592  16.436   6.976 -0.2965  0.0564 -0.2946
 1270ERGO   ROH17219  10.382  14.589   5.481 -0.0991 -0.2072  0.0023
 1270ERGO    R117220  10.402  14.447   5.725  0.0567 -0.2252 -0.0197
 1270ERGO    R217221  10.644  14.380   5.839  0.1336  0.0044 -0.0398
 1270ERGO    R317222  10.541  14.507   6.056  0.0108 -0.1310 -0.0178
 1270ERGO    R417223  10.728  14.309   6.167  0.2389  0.0673 -0.0524
 1270ERGO    R517224  10.518  14.334   6.220  0.2165 -0.1719 -0.0315
 1270ERGO    C117225  10.679  14.387   6.562  0.1849 -0.0232 -0.0391
 1270ERGO    C217226  10.592  14.264   6.945 -0.2154 -0.0207 -0.0082
 1271ERGO   ROH17227   1.656  10.626   5.803  0.1493  0.0633 -0.2036
 1271ERGO    R117228   1.845  10.529   5.991  0.1287  0.0412 -0.1959
 1271ERGO    R217229   2.071  10.671   6.062  0.0315  0.1086 -0.0302
 1271ERGO    R317230   1.975  10.636   6.313 -0.0375 -0.0922 -0.0816
 1271ERGO    R417231   2.258  10.703   6.350 -0.1148  0.1920  0.0581
 1271ERGO    R517232   2.155  10.529   6.431  0.0313  0.0465 -0.0530
 1271ERGO    C117233   2.278  10.688   6.755 -0.2647  0.0521  0.0612
 1271ERGO    C217234   2.528  10.721   7.053  0.1953 -0.1796  0.1665
 1272ERGO   ROH17235   0.717   5.324   5.862 -0.1365 -0.0043  0.0382
 1272ERGO    R117236   0.793   5.120   6.043 -0.2454 -0.0588  0.0224
 1272ERGO    R217237   0.979   5.160   6.243 -0.0947 -0.2204 -0.0849
 1272ERGO    R317238   0.780   5.068   6.403 -0.1043  0.0015  0.0374
 1272ERGO    R417239   1.013   5.085   6.579 -0.0220 -0.0868 -0.0606
 1272ERGO    R517240   0.887   4.910   6.547 -0.1647 -0.0109  0.0702
 1272ERGO    C117241   0.845   4.953   6.924  0.0113  0.1994  0.0684
 1272ERGO    C217242   0.850   5.100   7.235  0.0362  0.2837  0.0026
 1273ERGO   ROH17243   0.844  14.451   6.353 -0.0942 -0.0263  0.0789
 1273ERGO    R117244   1.008  14.566   6.554  0.0150 -0.0159 -0.0146
 1273ERGO    R217245   0.918  14.609   6.812  0.1109  0.1210 -0.0026
 1273ERGO    R317246   1.139  14.465   6.878  0.0712  0.0545 -0.0154
 1273ERGO    R417247   1.186  14.730   6.994  0.1493  0.0324  0.0001
 1273ERGO    R517248   1.320  14.621   6.861  0.1155  0.0031 -0.0084
 1273ERGO    C117249   1.548  14.664   7.163  0.1344 -0.0815 -0.0104
 1273ERGO    C217250   1.805  14.633   7.397 -0.1342  0.1459  0.0003
 1274ERGO   ROH17251   7.724  15.457   5.521 -0.1232 -0.1299  0.0886
 1274ERGO    R117252   7.695  15.674   5.699 -0.0598 -0.0796  0.0388
 1274ERGO    R217253   7.663  15.640   5.972 -0.1435 -0.0102  0.0405
 1274ERGO    R317254   7.877  15.808   5.985 -0.0628 -0.1142  0.0564
 1274ERGO    R417255   7.790  15.776   6.263 -0.2720  0.1483  0.0230
 1274ERGO    R517256   7.819  15.964   6.157 -0.0985  0.0507 -0.1041
 1274ERGO    C117257   8.064  16.013   6.445 -0.2712  0.1429  0.0278
 1274ERGO    C217258   8.308  16.131   6.626 -0.2874 -0.1841 -0.1070
 1275ERGO   ROH17259  19.304   8.415   5.665 -0.2468  0.1457  0.1931
 1275ERGO    R117260  19.349   8.255   5.894 -0.3925  0.1080  0.1974
 1275ERGO    R217261  19.596   8.238   6.018 -0.3589 -0.2441  0.1013
 1275ERGO    R317262  19.454   8.310   6.238 -0.1680  0.0053  0.1464
 1275ERGO    R417263  19.691   8.177   6.344 -0.1473  0.0051  0.0887
 1275ERGO    R517264  19.484   8.129   6.391 -0.1311  0.1287  0.2838
 1275ERGO    C117265  19.613   8.209   6.741  0.1551  0.3844  0.1238
 1275ERGO    C217266  19.833   8.364   7.116 -0.0081  0.0331  0.0616
 1276ERGO   ROH17267  15.813   9.845   5.919  0.3276 -0.0219 -0.0638
 1276ERGO    R117268  15.903   9.955   6.164  0.2405 -0.0271 -0.0278
 1276ERGO    R217269  15.914  10.228   6.209  0.2507 -0.0233 -0.0260
 1276ERGO    R317270  15.763  10.165   6.426  0.1537 -0.0085 -0.0899
 1276ERGO    R417271  15.908  10.407   6.504 -0.0313  0.1028 -0.1055
 1276ERGO    R517272  15.903  10.218   6.613  0.0071  0.1509 -0.0271
 1276ERGO    C117273  15.764  10.452   6.880 -0.2866  0.1901 -0.2118
 1276ERGO    C217274  15.703  10.787   6.936  0.0939 -0.2238 -0.4015
 1277ERGO   ROH17275  15.043  10.661   5.901 -0.0180 -0.0883  0.0043
 1277ERGO    R117276  15.027  10.421   6.049 -0.1515 -0.1649 -0.1307
 1277ERGO    R217277  14.925  10.410   6.306  0.1383 -0.1907 -0.0109
 1277ERGO    R317278  14.764  10.219   6.199 -0.2409  0.0829  0.0515
 1277ERGO    R417279  14.774  10.157   6.486  0.0799 -0.1532 -0.0074
 1277ERGO    R517280  14.818  10.020   6.322 -0.3075 -0.0820 -0.1814
 1277ERGO    C117281  14.534   9.830   6.491 -0.3101  0.1255  0.0531
 1277ERGO    C217282  14.245   9.887   6.737 -0.1747  0.0536  0.1286
 1278ERGO   ROH17283   3.600  17.355   5.093  0.2030  0.0462  0.2120
 1278ERGO    R117284   3.748  17.286   5.325  0.1414 -0.0506  0.2236
 1278ERGO    R217285   3.751  17.444   5.552  0.2217 -0.0568  0.2273
 1278ERGO    R317286   3.675  17.214   5.674  0.0671 -0.0107  0.2161
 1278ERGO    R417287   3.776  17.381   5.891  0.1811 -0.0895  0.2241
 1278ERGO    R517288   3.840  17.179   5.844  0.0441 -0.1293  0.2141
 1278ERGO    C117289   3.720  17.128   6.202  0.0124 -0.0655  0.2117
 1278ERGO    C217290   3.438  16.855   6.468 -0.0018 -0.0432  0.2512
 1279ERGO   ROH17291  13.345  11.037   6.125 -0.0838 -0.1569  0.1853
 1279ERGO    R117292  13.420  11.170   6.363  0.0573 -0.1050  0.1123
 1279ERGO    R217293  13.613  11.071   6.535  0.1230 -0.0909  0.0412
 1279ERGO    R317294  13.723  11.317   6.500  0.1508 -0.1184 -0.0754
 1279ERGO    R417295  13.799  11.240   6.772 -0.0523  0.0965  0.0490
 1279ERGO    R517296  13.699  11.424   6.712 -0.0091  0.0532 -0.1750
 1279ERGO    C117297  14.011  11.570   6.877 -0.1282  0.1799 -0.0560
 1279ERGO    C217298  14.063  11.733   6.948 -0.0022  0.2326 -0.0442
 1280ERGO   ROH17299  17.530   7.520   5.992 -0.0067 -0.0908 -0.0237
 1280ERGO    R117300  17.511   7.476   6.271 -0.0519  0.1102  0.0067
 1280ERGO    R217301  17.715   7.359   6.417 -0.2395 -0.1793  0.0463
 1280ERGO    R317302  17.691   7.584   6.568  0.1913 -0.0359 -0.0846
 1280ERGO    R417303  17.776   7.376   6.757 -0.3114 -0.1230  0.0566
 1280ERGO    R517304  17.602   7.507   6.776 -0.0461  0.2656 -0.0679
 1280ERGO    C117305  17.789   7.597   7.096  0.0515  0.0444 -0.0604
 1280ERGO    C217306  17.694   7.635   7.386 -0.2454  0.6981  0.1145
 1281ERGO   ROH17307  19.552   7.342   6.082 -0.1850 -0.1008 -0.0427
 1281ERGO    R117308  19.761   7.475   6.217 -0.2330  0.0982 -0.1606
 1281ERGO    R217309  19.722   7.709   6.359 -0.3920  0.0207 -0.0686
 1281ERGO    R317310  19.838   7.568   6.560 -0.0887  0.0895 -0.1914
 1281ERGO    R417311  19.855   7.848   6.646 -0.3723  0.0727 -0.1028
 1281ERGO    R517312  20.020   7.706   6.632 -0.2096  0.2803 -0.2583
 1281ERGO    C117313  20.042   7.796   7.002 -0.0760  0.1676 -0.2380
 1281ERGO    C217314  19.896   7.881   7.332  0.2840 -0.3905  0.2289
 1282ERGO   ROH17315  16.874  19.530   5.826 -0.0861 -0.0088  0.2487
 1282ERGO    R117316  17.126  19.479   5.945 -0.0057  0.1760  0.1664
 1282ERGO    R217317  17.270  19.674   6.080 -0.1837  0.2443  0.2810
 1282ERGO    R317318  17.267  19.490   6.280  0.0350  0.0940  0.1487
 1282ERGO    R417319  17.450  19.697   6.374 -0.2950  0.2794  0.3458
 1282ERGO    R517320  17.492  19.484   6.360  0.0162  0.3561  0.2029
 1282ERGO    C117321  17.552  19.538   6.732 -0.1544  0.1591  0.2594
 1282ERGO    C217322  17.626  19.501   7.008 -0.3813  0.2305  0.0793
 1283ERGO   ROH17323   7.654   9.858   5.764 -0.2108 -0.0222 -0.0831
 1283ERGO    R117324   7.772   9.953   6.003 -0.3282  0.1350 -0.0855
 1283ERGO    R217325   7.631   9.973   6.240 -0.3237 -0.1665 -0.0499
 1283ERGO    R317326   7.835   9.822   6.337 -0.0302  0.1662 -0.1278
 1283ERGO    R417327   7.717   9.948   6.574 -0.3979 -0.3172 -0.0418
 1283ERGO    R517328   7.927   9.953   6.515 -0.3769  0.1910  0.0384
 1283ERGO    C117329   7.958   9.791   6.860 -0.1656 -0.0926 -0.1102
 1283ERGO    C217330   7.863   9.932   7.163  0.2247  0.0498  0.0827
 1284ERGO   ROH17331  15.053   3.496   5.571  0.2109 -0.0935 -0.1004
 1284ERGO    R117332  15.093   3.317   5.786 -0.1091 -0.1024 -0.0447
 1284ERGO    R217333  15.295   3.350   5.972 -0.0095 -0.4346 -0.0898
 1284ERGO    R317334  15.090   3.336   6.150 -0.0175  0.0317 -0.0498
 1284ERGO    R417335  15.331   3.348   6.315  0.0777 -0.6964 -0.0977
 1284ERGO    R517336  15.174   3.198   6.327 -0.3364 -0.2900 -0.1353
 1284ERGO    C117337  15.160   3.334   6.683  0.1209 -0.4111 -0.0648
 1284ERGO    C217338  15.065   3.169   7.020 -0.1022  0.1106 -0.0217
 1285ERGO   ROH17339   3.354   4.872   6.585 -0.0120  0.1312 -0.0686
 1285ERGO    R117340   3.125   4.940   6.737  0.0320  0.0589  0.0305
 1285ERGO    R217341   3.122   4.932   7.013  0.1968  0.1885  0.0342
 1285ERGO    R317342   3.038   5.190   6.986  0.0168  0.1243 -0.0385
 1285ERGO    R417343   2.979   5.120   7.265  0.4325  0.2799  0.1025
 1285ERGO    R517344   2.839   5.201   7.119  0.1840  0.0989  0.2274
 1285ERGO    C117345   2.817   5.471   7.387  0.4007  0.2729  0.0740
 1285ERGO    C217346   2.889   5.522   7.787 -0.0744 -0.0263  0.0255
 1286ERGO   ROH17347   3.783  14.098   7.052  0.1203 -0.1413  0.0110
 1286ERGO    R117348   3.840  14.314   7.227  0.0982 -0.1474  0.0269
 1286ERGO    R217349   3.651  14.421   7.398  0.0492 -0.0931 -0.0561
 1286ERGO    R317350   3.839  14.369   7.587 -0.0428 -0.1349  0.0241
 1286ERGO    R417351   3.660  14.562   7.713  0.0313  0.0113 -0.1022
 1286ERGO    R517352   3.876  14.579   7.695  0.0449 -0.1206 -0.0379
 1286ERGO    C117353   3.842  14.595   8.074 -0.0654  0.0328 -0.0537
 1286ERGO    C217354   3.738  14.680   8.344  0.1512  0.0390 -0.1016
 1287ERGO   ROH17355  17.088  11.580   5.838 -0.3095  0.2281 -0.2366
 1287ERGO    R117356  17.159  11.760   6.045 -0.1913  0.0692 -0.1374
 1287ERGO    R217357  17.017  11.992   6.096 -0.0322  0.1389 -0.0185
 1287ERGO    R317358  17.004  11.889   6.348 -0.1102  0.0161 -0.0717
 1287ERGO    R417359  16.927  12.169   6.379  0.1660  0.0850  0.0807
 1287ERGO    R517360  17.083  12.065   6.489  0.0779 -0.1300  0.0143
 1287ERGO    C117361  16.862  12.176   6.779  0.2082 -0.0617  0.0885
 1287ERGO    C217362  16.720  12.193   6.975  0.1366 -0.2380 -0.2046
 1288ERGO   ROH17363  12.099  15.723   5.791  0.3307 -0.0353 -0.3609
 1288ERGO    R117364  12.129  15.825   6.053  0.2016  0.0051 -0.3619
 1288ERGO    R217365  12.092  15.670   6.279 -0.0112  0.0666 -0.3552
 1288ERGO    R317366  12.342  15.757   6.340 -0.0135 -0.0250 -0.2067
 1288ERGO    R417367  12.195  15.767   6.594 -0.1839  0.0920 -0.3049
 1288ERGO    R517368  12.306  15.931   6.502 -0.0516  0.0270 -0.2682
 1288ERGO    C117369  12.489  15.906   6.835 -0.2867  0.0208 -0.1362
 1288ERGO    C217370  12.690  15.628   6.915  0.2661 -0.4696 -0.2121
 1289ERGO   ROH17371   9.984   8.803   5.964 -0.0802 -0.1926 -0.1074
 1289ERGO    R117372   9.800   8.819   6.178 -0.1719 -0.0627 -0.1951
 1289ERGO    R217373   9.872   8.908   6.430 -0.2294 -0.1127 -0.1655
 1289ERGO    R317374   9.666   9.081   6.392 -0.0943  0.0326 -0.2597
 1289ERGO    R417375   9.746   9.120   6.672 -0.2954 -0.1508 -0.1654
 1289ERGO    R517376   9.545   9.075   6.599 -0.2696  0.0045 -0.3564
 1289ERGO    C117377   9.479   9.405   6.778 -0.2068 -0.0367 -0.2536
 1289ERGO    C217378   9.413   9.475   7.066  0.2235 -0.1774  0.3605
 1290ERGO   ROH17379   7.554   0.242   5.206  0.1701  0.1454  0.0094
 1290ERGO    R117380   7.592   0.136   5.466  0.0408  0.1490  0.0278
 1290ERGO    R217381   7.595   0.293   5.693 -0.1536  0.1359  0.0253
 1290ERGO    R317382   7.402   0.120   5.775 -0.1464  0.0700 -0.0850
 1290ERGO    R417383   7.540   0.200   6.021 -0.4419  0.3131  0.0332
 1290ERGO    R517384   7.505  -0.003   5.952 -0.2475  0.2371  0.1086
 1290ERGO    C117385   7.327  -0.017   6.290 -0.6029  0.3544 -0.0657
 1290ERGO    C217386   6.982  -0.122   6.349  0.0484 -0.0574  0.0869
 1291ERGO   ROH17387   0.568   6.671   5.816 -0.0555  0.0805  0.1501
 1291ERGO    R117388   0.705   6.558   6.037  0.1396 -0.0906 -0.0522
 1291ERGO    R217389   0.580   6.506   6.278  0.4257  0.0547  0.1378
 1291ERGO    R317390   0.679   6.256   6.237  0.0655 -0.0669 -0.0279
 1291ERGO    R417391   0.679   6.289   6.529  0.3577 -0.1628 -0.0208
 1291ERGO    R517392   0.848   6.231   6.405  0.1769 -0.3480 -0.1802
 1291ERGO    C117393   0.828   5.929   6.637 -0.0200 -0.4036 -0.2688
 1291ERGO    C217394   0.929   5.856   6.940 -0.1446 -0.4312  0.1804
 1292ERGO   ROH17395   2.626  18.614   5.461  0.1296 -0.0722 -0.1588
 1292ERGO    R117396   2.879  18.603   5.588  0.1436  0.0896 -0.1729
 1292ERGO    R217397   2.972  18.806   5.751 -0.0756  0.0497  0.0004
 1292ERGO    R317398   3.003  18.604   5.930  0.1479 -0.0753 -0.1721
 1292ERGO    R417399   3.157  18.828   6.042 -0.2052  0.0566  0.0837
 1292ERGO    R517400   3.230  18.625   6.005  0.0993  0.1850 -0.0782
 1292ERGO    C117401   3.293  18.651   6.380 -0.0707 -0.0568 -0.0296
 1292ERGO    C217402   3.328  18.603   6.697  0.0981 -0.1314  0.5363
 1293ERGO   ROH17403   2.836  13.238   5.257  0.0135  0.1859  0.1685
 1293ERGO    R117404   2.868  13.219   5.538  0.0839  0.1131  0.1568
 1293ERGO    R217405   2.956  12.988   5.662  0.1392  0.0853  0.0760
 1293ERGO    R317406   3.142  13.155   5.768  0.1473  0.0776  0.0707
 1293ERGO    R417407   3.118  12.938   5.963 -0.0239  0.1986  0.1828
 1293ERGO    R517408   3.098  13.151   6.004  0.0333  0.2271  0.0518
 1293ERGO    C117409   3.387  13.066   6.238 -0.1113  0.2571  0.2400
 1293ERGO    C217410   3.678  13.067   6.436 -0.2604 -0.1000 -0.0650
 1294ERGO   ROH17411   4.013   5.163   5.572 -0.0641 -0.2239 -0.0298
 1294ERGO    R117412   3.991   5.115   5.850 -0.0929 -0.1054 -0.0111
 1294ERGO    R217413   4.194   5.000   5.998 -0.1482 -0.1397  0.0387
 1294ERGO    R317414   4.165   5.222   6.152 -0.0520 -0.0654 -0.0487
 1294ERGO    R417415   4.373   5.066   6.286 -0.1150 -0.0999  0.0092
 1294ERGO    R517416   4.190   5.143   6.376 -0.0813  0.0130 -0.0175
 1294ERGO    C117417   4.449   5.313   6.599 -0.0055 -0.0070 -0.0901
 1294ERGO    C217418   4.562   5.365   6.893  0.3561  0.0700 -0.3887
 1295ERGO   ROH17419  15.670  13.169   5.447  0.2097 -0.1160  0.0583
 1295ERGO    R117420  15.694  13.301   5.696  0.1249  0.0561 -0.0234
 1295ERGO    R217421  15.653  13.172   5.937 -0.0529  0.2444  0.0502
 1295ERGO    R317422  15.901  13.269   5.994 -0.0457  0.1922  0.1116
 1295ERGO    R417423  15.776  13.225   6.256 -0.1177  0.2291  0.0785
 1295ERGO    R517424  15.867  13.410   6.184 -0.0599  0.2053  0.0974
 1295ERGO    C117425  16.080  13.347   6.494 -0.1489  0.1711  0.1527
 1295ERGO    C217426  15.983  13.451   6.852 -0.1980  0.2456  0.1401
 1296ERGO   ROH17427  13.980   3.491   5.932 -0.2047 -0.1322 -0.0430
 1296ERGO    R117428  14.140   3.489   6.166 -0.1066 -0.0054 -0.1082
 1296ERGO    R217429  14.087   3.651   6.384 -0.0992  0.0086 -0.1186
 1296ERGO    R317430  14.092   3.415   6.519  0.0785  0.0366 -0.0724
 1296ERGO    R417431  14.114   3.620   6.727 -0.1228  0.0998 -0.1080
 1296ERGO    R517432  14.249   3.451   6.696  0.0249  0.2035 -0.0559
 1296ERGO    C117433  14.135   3.381   7.054  0.0303  0.1792 -0.0584
 1296ERGO    C217434  13.873   3.228   7.299 -0.0932 -0.3768  0.3363
 1297ERGO   ROH17435  15.976   8.380   7.526 -0.2313 -0.1290 -0.1259
 1297ERGO    R117436  15.897   8.651   7.552 -0.1331 -0.0991 -0.1395
 1297ERGO    R217437  15.691   8.760   7.404 -0.1257 -0.0458 -0.1073
 1297ERGO    R317438  15.596   8.831   7.649 -0.0509  0.0168 -0.0956
 1297ERGO    R417439  15.553   9.068   7.481  0.1038  0.0546 -0.0886
 1297ERGO    R517440  15.658   9.061   7.673  0.1195 -0.0260 -0.0975
 1297ERGO    C117441  15.384   9.313   7.756  0.3075  0.1719 -0.0668
 1297ERGO    C217442  15.014   9.478   7.656 -0.1601 -0.0390  0.1418
 1298ERGO   ROH17443  16.212   4.337   5.714 -0.0038 -0.0357  0.2047
 1298ERGO    R117444  16.166   4.148   5.920  0.1934 -0.0538  0.2340
 1298ERGO    R217445  16.063   3.897   5.871 -0.0545  0.0238  0.3322
 1298ERGO    R317446  16.286   3.815   6.004  0.1073 -0.1543 -0.0363
 1298ERGO    R417447  16.130   3.570   5.963 -0.0866 -0.0515  0.0949
 1298ERGO    R517448  16.207   3.645   6.153  0.2417 -0.1729  0.0124
 1298ERGO    C117449  16.377   3.303   6.142  0.0466 -0.2624 -0.3891
 1298ERGO    C217450  16.445   2.967   6.020 -0.1272  0.2985 -0.0477
 1299ERGO   ROH17451   4.382   0.583   5.453 -0.3044  0.0187 -0.0312
 1299ERGO    R117452   4.452   0.590   5.727 -0.0407 -0.0403 -0.0944
 1299ERGO    R217453   4.267   0.553   5.929  0.1051  0.1621  0.0798
 1299ERGO    R317454   4.441   0.360   6.009 -0.0181 -0.0169 -0.0741
 1299ERGO    R417455   4.225   0.353   6.208  0.0706  0.0978  0.0291
 1299ERGO    R517456   4.438   0.373   6.248  0.1107 -0.0987 -0.0668
 1299ERGO    C117457   4.364   0.055   6.445 -0.0651 -0.1077 -0.1449
 1299ERGO    C217458   4.252  -0.085   6.747  0.1001 -0.0911  0.2458
 1300ERGO   ROH17459  19.138  15.046   5.489 -0.1930  0.0857 -0.0326
 1300ERGO    R117460  19.096  15.048   5.769 -0.0887  0.0571 -0.0163
 1300ERGO    R217461  18.920  14.875   5.894 -0.0469  0.0486  0.0308
 1300ERGO    R317462  19.138  14.813   6.044  0.0079  0.0268 -0.0566
 1300ERGO    R417463  18.910  14.760   6.219  0.0728  0.0343  0.0303
 1300ERGO    R517464  19.081  14.887   6.264  0.0991  0.0205 -0.0305
 1300ERGO    C117465  19.108  14.636   6.550  0.1938  0.0054 -0.0521
 1300ERGO    C217466  18.895  14.494   6.763  0.0730 -0.1876  0.1263
 1301ERGO   ROH17467  13.382   8.943   6.361  0.1306 -0.0045  0.2105
 1301ERGO    R117468  13.419   9.207   6.456  0.1974 -0.0294  0.2524
 1301ERGO    R217469  13.218   9.396   6.451  0.3587  0.1348 -0.0838
 1301ERGO    R317470  13.275   9.418   6.716 -0.0487  0.1071  0.0126
 1301ERGO    R417471  13.197   9.689   6.634  0.5010  0.2206 -0.2022
 1301ERGO    R517472  13.381   9.631   6.736  0.2539 -0.0447  0.1252
 1301ERGO    C117473  13.239   9.879   6.989  0.2013  0.2444 -0.1806
 1301ERGO    C217474  13.230  10.023   7.230  0.2768 -0.0399 -0.0563
 1302ERGO   ROH17475  10.772  18.398   6.390 -0.0680  0.0407  0.2723
 1302ERGO    R117476  10.925  18.269   6.590 -0.0984 -0.0546  0.2340
 1302ERGO    R217477  10.963  17.996   6.595  0.0602 -0.0381 -0.0019
 1302ERGO    R317478  11.226  18.065   6.603  0.0176  0.1127  0.2018
 1302ERGO    R417479  11.187  17.895   6.839  0.0568 -0.3818 -0.1351
 1302ERGO    R517480  11.272  18.095   6.836 -0.0648 -0.3152  0.2820
 1302ERGO    C117481  11.563  17.901   6.988  0.0150 -0.4405 -0.0214
 1302ERGO    C217482  11.708  17.735   7.279  0.0713 -0.1596  0.0242
 1303ERGO   ROH17483  13.865  14.281   5.732  0.0783  0.2266 -0.0905
 1303ERGO    R117484  13.740  14.211   5.976  0.1255  0.1326 -0.0937
 1303ERGO    R217485  13.839  14.288   6.221  0.1254  0.1085 -0.0897
 1303ERGO    R317486  13.588  14.388   6.256  0.0964  0.0210 -0.0373
 1303ERGO    R417487  13.702  14.377   6.526  0.2157  0.2005 -0.0747
 1303ERGO    R517488  13.513  14.289   6.461  0.2225  0.0877  0.0443
 1303ERGO    C117489  13.387  14.522   6.736  0.2409  0.1719 -0.0168
 1303ERGO    C217490  13.420  14.693   7.041  0.1785  0.2864  0.0097
 1304ERGO   ROH17491   3.507  14.969   5.702 -0.0124 -0.3550 -0.0045
 1304ERGO    R117492   3.541  14.828   5.945 -0.0894 -0.2159  0.0880
 1304ERGO    R217493   3.783  14.815   6.077 -0.0915 -0.2843  0.0798
 1304ERGO    R317494   3.637  14.909   6.286 -0.0171 -0.0522  0.0308
 1304ERGO    R417495   3.883  14.805   6.407 -0.0472 -0.0921  0.0732
 1304ERGO    R517496   3.679  14.753   6.463 -0.0716  0.0526  0.1414
 1304ERGO    C117497   3.805  14.888   6.796  0.0483  0.2378  0.0233
 1304ERGO    C217498   3.751  14.848   7.087  0.2679  0.1086 -0.0271
 1305ERGO   ROH17499  18.364  10.019   5.971  0.0640 -0.2130  0.1516
 1305ERGO    R117500  18.365   9.986   6.252  0.0671 -0.0580  0.1709
 1305ERGO    R217501  18.555  10.102   6.416  0.0744  0.0249  0.1038
 1305ERGO    R317502  18.337  10.201   6.544  0.0803  0.1052  0.0530
 1305ERGO    R417503  18.548  10.196   6.748 -0.0308 -0.1877  0.1640
 1305ERGO    R517504  18.350  10.107   6.764 -0.1081 -0.0498 -0.0004
 1305ERGO    C117505  18.339  10.345   7.062 -0.0867 -0.2363  0.1514
 1305ERGO    C217506  18.419  10.336   7.375  0.4116 -0.1353  0.4270
 1306ERGO   ROH17507   8.612  19.556   5.411 -0.0022  0.0536  0.0302
 1306ERGO    R117508   8.498  19.704   5.623 -0.0322 -0.0276  0.0708
 1306ERGO    R217509   8.438  19.591   5.868  0.0616 -0.0896  0.0669
 1306ERGO    R317510   8.592  19.794   5.963 -0.0121 -0.0329  0.0659
 1306ERGO    R417511   8.463  19.679   6.201  0.0247 -0.0648  0.0635
 1306ERGO    R517512   8.461  19.889   6.140 -0.0465 -0.0705  0.0579
 1306ERGO    C117513   8.622  19.922   6.484 -0.0660  0.0029  0.0607
 1306ERGO    C217514   8.674  20.019   6.755  0.1804 -0.2324  0.3126
 1307ERGO   ROH17515   6.530   6.993   5.933  0.1223  0.1169 -0.0155
 1307ERGO    R117516   6.639   7.014   6.194  0.0393  0.1861  0.0147
 1307ERGO    R217517   6.536   7.184   6.385 -0.1854  0.0491  0.0217
 1307ERGO    R317518   6.523   6.957   6.534  0.0140  0.0073 -0.0239
 1307ERGO    R417519   6.540   7.173   6.731  0.2274 -0.0506  0.0178
 1307ERGO    R517520   6.670   6.998   6.719  0.2304 -0.0332 -0.1846
 1307ERGO    C117521   6.531   6.952   7.071  0.6549 -0.1479 -0.0272
 1307ERGO    C217522   6.679   6.876   7.392  0.3532  0.2161  0.2958
 1308ERGO   ROH17523   4.552   1.618   5.801 -0.1471  0.2926  0.1588
 1308ERGO    R117524   4.473   1.527   6.058 -0.1060  0.1778  0.1320
 1308ERGO    R217525   4.519   1.269   6.144 -0.1048  0.1311  0.0053
 1308ERGO    R317526   4.639   1.394   6.354 -0.0581  0.0303  0.0387
 1308ERGO    R417527   4.539   1.141   6.465 -0.2006  0.0699 -0.0130
 1308ERGO    R517528   4.499   1.342   6.542 -0.1001  0.0746  0.0165
 1308ERGO    C117529   4.664   1.185   6.848 -0.2125 -0.0604  0.0076
 1308ERGO    C217530   4.719   0.901   7.035  0.1663  0.3872  0.0990
 1309ERGO   ROH17531  19.188  15.607   5.629  0.1014 -0.0776  0.0176
 1309ERGO    R117532  19.354  15.434   5.779 -0.0332 -0.1916  0.0400
 1309ERGO    R217533  19.465  15.507   6.022  0.1047 -0.2125 -0.0084
 1309ERGO    R317534  19.345  15.280   6.109 -0.1105 -0.0590  0.0991
 1309ERGO    R417535  19.577  15.311   6.284  0.0224 -0.2972 -0.0384
 1309ERGO    R517536  19.526  15.135   6.168 -0.2471 -0.2587  0.0233
 1309ERGO    C117537  19.528  14.984   6.518 -0.2280 -0.2024  0.0451
 1309ERGO    C217538  19.530  14.786   6.747  0.1064  0.3889 -0.1294
 1310ERGO   ROH17539  16.495  17.773   5.812 -0.2675  0.0471  0.0678
 1310ERGO    R117540  16.568  17.709   6.078 -0.1752 -0.0295  0.0255
 1310ERGO    R217541  16.830  17.667   6.154 -0.1479 -0.0693 -0.0797
 1310ERGO    R317542  16.774  17.859   6.338 -0.0698 -0.1131 -0.0104
 1310ERGO    R417543  16.913  17.650   6.489 -0.1386 -0.2118 -0.0892
 1310ERGO    R517544  16.719  17.737   6.536 -0.1029 -0.1591 -0.0501
 1310ERGO    C117545  16.908  17.820   6.857 -0.0596 -0.3356 -0.0297
 1310ERGO    C217546  17.012  17.953   7.177 -0.1814  0.1499 -0.2303
 1311ERGO   ROH17547   1.745   4.991   5.917 -0.0111 -0.0680 -0.1503
 1311ERGO    R117548   1.861   5.239   5.992  0.1069 -0.1357 -0.1114
 1311ERGO    R217549   1.712   5.471   6.019  0.2406 -0.0492 -0.1981
 1311ERGO    R317550   1.825   5.475   6.266  0.1278 -0.0915 -0.1429
 1311ERGO    R417551   1.692   5.734   6.241  0.0242 -0.1234 -0.1248
 1311ERGO    R517552   1.901   5.700   6.293  0.0253 -0.0602 -0.0398
 1311ERGO    C117553   1.787   5.892   6.602 -0.2078 -0.2063 -0.0303
 1311ERGO    C217554   1.867   6.016   6.927 -0.1885  0.0689  0.0026
 1312ERGO   ROH17555   3.387  15.280   5.284 -0.0935 -0.2906 -0.0337
 1312ERGO    R117556   3.244  15.387   5.503 -0.0988 -0.1620 -0.0993
 1312ERGO    R217557   2.992  15.301   5.573 -0.0580 -0.1971  0.0085
 1312ERGO    R317558   3.107  15.262   5.816 -0.0064  0.0425  0.0247
 1312ERGO    R417559   2.834  15.354   5.876  0.0304  0.1657 -0.0041
 1312ERGO    R517560   3.020  15.440   5.952  0.0669  0.2091 -0.1440
 1312ERGO    C117561   2.851  15.349   6.281  0.1304  0.6020  0.0037
 1312ERGO    C217562   2.585  15.501   6.422  0.2052  0.3990 -0.0957
 1313ERGO   ROH17563   7.883   6.191   5.678  0.2661  0.1468  0.0101
 1313ERGO    R117564   7.737   6.144   5.916  0.2053 -0.0387 -0.0639
 1313ERGO    R217565   7.839   5.995   6.125  0.2554  0.0219 -0.0547
 1313ERGO    R317566   7.779   6.217   6.270 -0.0263 -0.0659 -0.0276
 1313ERGO    R417567   7.878   6.023   6.467  0.7118  0.1806 -0.1122
 1313ERGO    R517568   7.689   6.131   6.475  0.4636 -0.2327  0.1387
 1313ERGO    C117569   7.845   6.249   6.803  0.7132  0.1906 -0.1201
 1313ERGO    C217570   7.883   6.377   7.121 -0.1272  0.1392 -0.0765
 1314ERGO   ROH17571  18.406   6.546   5.786  0.0064 -0.0691 -0.0492
 1314ERGO    R117572  18.282   6.413   6.003 -0.0126 -0.0987 -0.0785
 1314ERGO    R217573  18.053   6.508   6.125  0.0048 -0.0905 -0.0558
 1314ERGO    R317574  17.959   6.260   6.070 -0.0362 -0.0635 -0.1096
 1314ERGO    R417575  17.844   6.326   6.331 -0.0619 -0.0809 -0.1140
 1314ERGO    R517576  17.958   6.147   6.281 -0.0887 -0.0968 -0.1258
 1314ERGO    C117577  17.634   5.986   6.398 -0.1392 -0.0500 -0.1984
 1314ERGO    C217578  17.325   6.053   6.474  0.2320 -0.2634  0.1187
 1315ERGO   ROH17579  13.021   7.495   6.181  0.0472 -0.0483 -0.0841
 1315ERGO    R117580  13.157   7.591   6.410  0.0900 -0.0313 -0.1168
 1315ERGO    R217581  13.064   7.803   6.561  0.1117 -0.0296 -0.1086
 1315ERGO    R317582  13.085   7.625   6.765  0.1625 -0.0174 -0.1027
 1315ERGO    R417583  13.004   7.876   6.893 -0.0975 -0.0798 -0.1338
 1315ERGO    R517584  13.176   7.753   6.946 -0.0200  0.0554 -0.0588
 1315ERGO    C117585  12.989   7.751   7.279 -0.1717 -0.0976 -0.1429
 1315ERGO    C217586  12.815   7.547   7.504 -0.0444 -0.2756 -0.0301
 1316ERGO   ROH17587   0.164   4.010   5.734 -0.0024 -0.1447  0.0208
 1316ERGO    R117588   0.236   3.741   5.786  0.2604 -0.0916 -0.0500
 1316ERGO    R217589   0.475   3.671   5.905  0.2031  0.1331  0.2160
 1316ERGO    R317590   0.313   3.540   6.079  0.1298 -0.1653 -0.0668
 1316ERGO    R417591   0.586   3.467   6.161  0.1127  0.1480  0.2674
 1316ERGO    R517592   0.423   3.330   6.115  0.3510 -0.0424 -0.0241
 1316ERGO    C117593   0.498   3.225   6.474 -0.0088 -0.1234  0.0317
 1316ERGO    C217594   0.679   2.911   6.612 -0.0141 -0.1234 -0.0322
 1317ERGO   ROH17595   6.058   9.990   6.119 -0.4738  0.1304 -0.0401
 1317ERGO    R117596   6.129   9.990   6.393 -0.2520  0.0439 -0.0946
 1317ERGO    R217597   6.051  10.191   6.567 -0.0225  0.0474  0.0125
 1317ERGO    R317598   5.953   9.982   6.711 -0.0015  0.0615  0.0461
 1317ERGO    R417599   5.907  10.218   6.880  0.1041  0.0600  0.0696
 1317ERGO    R517600   6.011  10.035   6.938  0.0942  0.0434  0.0240
 1317ERGO    C117601   5.732  10.039   7.198  0.1975  0.0806  0.1343
 1317ERGO    C217602   5.571   9.907   7.410 -0.3594 -0.0940 -0.0934
 1318ERGO   ROH17603  12.556  10.274   6.242  0.0378 -0.0417  0.1273
 1318ERGO    R117604  12.379  10.326   6.457  0.0545  0.0443  0.1195
 1318ERGO    R217605  12.214  10.132   6.564 -0.0554  0.1307  0.1000
 1318ERGO    R317606  12.334  10.204   6.797 -0.0315  0.0540  0.1125
 1318ERGO    R417607  12.102  10.046   6.880 -0.0196  0.0134  0.0816
 1318ERGO    R517608  12.153  10.247   6.948 -0.0195 -0.0056  0.1472
 1318ERGO    C117609  12.150  10.063   7.282  0.0235 -0.1268  0.0827
 1318ERGO    C217610  12.119   9.961   7.553 -0.0984 -0.1007  0.0806
 1319ERGO   ROH17611   9.454   6.073   5.922 -0.0204 -0.2270 -0.0221
 1319ERGO    R117612   9.436   6.096   6.204  0.0442 -0.1515 -0.0240
 1319ERGO    R217613   9.265   5.940   6.355 -0.0727  0.0335  0.0346
 1319ERGO    R317614   9.492   5.879   6.491 -0.1053 -0.1433  0.0132
 1319ERGO    R417615   9.300   5.959   6.698 -0.0014  0.1031  0.0239
 1319ERGO    R517616   9.500   6.041   6.668  0.0757 -0.0944 -0.0350
 1319ERGO    C117617   9.534   5.914   7.026  0.0096 -0.0223 -0.0024
 1319ERGO    C217618   9.578   5.920   7.321  0.1720 -0.3222 -0.0853
 1320ERGO   ROH17619   3.686   1.789   5.505  0.2547  0.0801 -0.0812
 1320ERGO    R117620   3.540   1.887   5.726  0.1231  0.0583 -0.1567
 1320ERGO    R217621   3.612   1.833   5.987 -0.1749 -0.1831 -0.1133
 1320ERGO    R317622   3.604   2.104   6.011  0.0429 -0.1893  0.0523
 1320ERGO    R417623   3.510   2.003   6.271 -0.3328 -0.2686 -0.1177
 1320ERGO    R517624   3.407   2.146   6.142 -0.0615 -0.0942 -0.1390
 1320ERGO    C117625   3.444   2.357   6.458 -0.2203 -0.3241  0.0352
 1320ERGO    C217626   3.222   2.590   6.720  0.2065 -0.0174 -0.0311
 1321ERGO   ROH17627  11.857   4.444   5.712 -0.2776  0.3895 -0.0744
 1321ERGO    R117628  11.827   4.332   5.970 -0.4525  0.1939 -0.1763
 1321ERGO    R217629  11.979   4.413   6.185 -0.1529 -0.3937 -0.1452
 1321ERGO    R317630  11.736   4.450   6.301 -0.0285  0.0953 -0.0173
 1321ERGO    R417631  11.911   4.361   6.520 -0.1512 -0.5954 -0.1753
 1321ERGO    R517632  11.720   4.273   6.462 -0.4104 -0.0551 -0.2083
 1321ERGO    C117633  11.643   4.365   6.824 -0.0335 -0.2539 -0.0727
 1321ERGO    C217634  11.756   4.396   7.220 -0.0141 -0.0095 -0.3517
 1322ERGO   ROH17635   5.096   5.604   5.847  0.2004 -0.1185  0.0964
 1322ERGO    R117636   5.210   5.635   6.105  0.0149  0.3156  0.1364
 1322ERGO    R217637   5.117   5.820   6.287 -0.5347  0.2083 -0.0091
 1322ERGO    R317638   5.097   5.603   6.449 -0.0729  0.2364  0.0994
 1322ERGO    R417639   5.062   5.831   6.628 -0.3395  0.2520  0.0216
 1322ERGO    R517640   5.205   5.669   6.652 -0.0534  0.4975  0.0042
 1322ERGO    C117641   5.011   5.634   6.979  0.2078  0.3037  0.1414
 1322ERGO    C217642   4.820   5.671   7.226  0.2866 -0.0800 -0.2971
 1323ERGO   ROH17643   5.552  17.992   7.380 -0.2460 -0.3844 -0.1729
 1323ERGO    R117644   5.821  17.934   7.445 -0.1552 -0.0953 -0.2716
 1323ERGO    R217645   5.906  17.680   7.514  0.0524  0.0771  0.1584
 1323ERGO    R317646   6.085  17.720   7.313 -0.1389 -0.1977 -0.0736
 1323ERGO    R417647   6.173  17.473   7.442  0.0887  0.0743  0.3004
 1323ERGO    R517648   6.294  17.650   7.405 -0.0260  0.0687 -0.1245
 1323ERGO    C117649   6.496  17.390   7.211 -0.0696 -0.1850  0.1653
 1323ERGO    C217650   6.592  17.197   6.948  0.2368 -0.1428  0.4995
 1324ERGO   ROH17651  14.298   4.996   5.958 -0.2025 -0.2810 -0.0523
 1324ERGO    R117652  14.435   4.924   6.195  0.0075 -0.1803 -0.1409
 1324ERGO    R217653  14.315   4.780   6.398  0.1335  0.0508  0.0995
 1324ERGO    R317654  14.528   4.614   6.363 -0.0031 -0.1088 -0.0002
 1324ERGO    R417655  14.434   4.558   6.635  0.1324  0.0302  0.0818
 1324ERGO    R517656  14.637   4.612   6.577  0.1361 -0.1261 -0.0680
 1324ERGO    C117657  14.703   4.273   6.740  0.0035 -0.1316 -0.0222
 1324ERGO    C217658  14.695   3.989   6.745 -0.2180 -0.1532 -0.2515
 1325ERGO   ROH17659   3.115   3.534   5.853 -0.1070 -0.0651 -0.1298
 1325ERGO    R117660   3.033   3.350   6.052  0.1292 -0.1380 -0.0961
 1325ERGO    R217661   3.212   3.211   6.209  0.3146  0.2981  0.0966
 1325ERGO    R317662   3.067   3.318   6.413 -0.0447  0.1144 -0.0546
 1325ERGO    R417663   3.132   3.046   6.502  0.0996  0.1518 -0.0426
 1325ERGO    R517664   2.933   3.136   6.492  0.0233 -0.0322 -0.2681
 1325ERGO    C117665   2.948   3.050   6.864 -0.3629 -0.1058 -0.2656
 1325ERGO    C217666   2.973   3.059   7.219 -0.3036 -0.1474  0.1592
 1326ERGO   ROH17667   4.214   3.192   5.800 -0.0988 -0.0881  0.0618
 1326ERGO    R117668   4.303   3.095   6.051 -0.0297 -0.0954  0.0347
 1326ERGO    R217669   4.516   3.208   6.187  0.0187 -0.1096 -0.0278
 1326ERGO    R317670   4.336   3.226   6.389  0.0799 -0.0993  0.0261
 1326ERGO    R417671   4.595   3.270   6.517  0.1064  0.0686 -0.0814
 1326ERGO    R517672   4.444   3.124   6.576  0.1885  0.0290  0.0341
 1326ERGO    C117673   4.470   3.324   6.899  0.2149  0.1821 -0.0621
 1326ERGO    C217674   4.585   3.427   7.231 -0.1795  0.0296  0.2286
 1327ERGO   ROH17675  11.059   5.079   5.705  0.0512 -0.2897  0.0832
 1327ERGO    R117676  10.981   5.166   5.963  0.0496 -0.1552  0.0381
 1327ERGO    R217677  11.079   5.051   6.195 -0.0872 -0.1544  0.0960
 1327ERGO    R317678  11.146   5.307   6.255  0.0796 -0.1813  0.0344
 1327ERGO    R417679  11.080   5.185   6.513 -0.1225 -0.0465  0.0514
 1327ERGO    R517680  10.995   5.368   6.431  0.0480 -0.0084 -0.0489
 1327ERGO    C117681  11.143   5.504   6.755  0.0139 -0.0090 -0.0325
 1327ERGO    C217682  11.130   5.658   7.033  0.2818 -0.0740  0.5261
 1328ERGO   ROH17683   7.220  17.533   5.288 -0.0765 -0.2777 -0.0636
 1328ERGO    R117684   7.149  17.483   5.557  0.0038 -0.3148 -0.0482
 1328ERGO    R217685   7.336  17.419   5.751  0.0894 -0.1395 -0.0652
 1328ERGO    R317686   7.224  17.629   5.882 -0.0727 -0.2199 -0.0741
 1328ERGO    R417687   7.322  17.454   6.094  0.0542 -0.1335 -0.0680
 1328ERGO    R517688   7.120  17.532   6.074 -0.0021 -0.2883 -0.0736
 1328ERGO    C117689   7.209  17.672   6.417 -0.1185 -0.2053 -0.0779
 1328ERGO    C217690   7.264  17.769   6.642 -0.0619 -0.1423 -0.1572
 1329ERGO   ROH17691   1.997  13.476   5.514  0.0433  0.3257  0.0131
 1329ERGO    R117692   2.147  13.448   5.753  0.0608  0.2725 -0.0027
 1329ERGO    R217693   2.280  13.660   5.871  0.0660  0.2513  0.0409
 1329ERGO    R317694   2.136  13.587   6.090  0.0778  0.1943  0.0286
 1329ERGO    R417695   2.356  13.748   6.196 -0.0237  0.3081  0.0462
 1329ERGO    R517696   2.301  13.547   6.259  0.0717  0.2889  0.0519
 1329ERGO    C117697   2.266  13.732   6.591 -0.0649  0.2875  0.0377
 1329ERGO    C217698   2.176  14.101   6.863 -0.0335  0.1222  0.0389
 1330ERGO   ROH17699  18.956  12.620   5.587  0.1075  0.1716  0.0306
 1330ERGO    R117700  18.908  12.504   5.841  0.0446  0.3920  0.1209
 1330ERGO    R217701  19.072  12.310   5.949 -0.2873  0.0848  0.0814
 1330ERGO    R317702  19.083  12.483   6.159  0.2429  0.1655  0.0011
 1330ERGO    R417703  19.124  12.219   6.278 -0.5131  0.0689  0.1147
 1330ERGO    R517704  18.976  12.366   6.338 -0.0901  0.5479  0.0688
 1330ERGO    C117705  19.165  12.328   6.667 -0.1467  0.1355  0.0587
 1330ERGO    C217706  19.193  12.134   7.048 -0.1251 -0.0128  0.1040
 1331ERGO   ROH17707  10.089  15.839   5.799  0.2372  0.1980  0.3163
 1331ERGO    R117708  10.190  15.717   6.034  0.0431  0.0086  0.3047
 1331ERGO    R217709  10.038  15.685   6.262 -0.0772  0.0269  0.2279
 1331ERGO    R317710  10.110  15.425   6.235 -0.2770 -0.0210  0.1413
 1331ERGO    R417711   9.973  15.437   6.494  0.1890  0.1107  0.3957
 1331ERGO    R517712  10.172  15.357   6.456  0.0819 -0.0134  0.0499
 1331ERGO    C117713  10.003  15.048   6.604  0.1565  0.1146  0.4121
 1331ERGO    C217714   9.902  14.754   6.740 -0.0749  0.4225 -0.1089
 1332ERGO   ROH17715  10.919   4.009   5.849 -0.0692  0.0185 -0.1474
 1332ERGO    R117716  10.773   3.914   6.072 -0.0942  0.0089 -0.1676
 1332ERGO    R217717  10.848   3.690   6.215 -0.0012  0.1133 -0.0511
 1332ERGO    R317718  10.836   3.861   6.426 -0.1961  0.1889 -0.1211
 1332ERGO    R417719  10.750   3.603   6.535  0.1923  0.1056  0.0066
 1332ERGO    R517720  10.642   3.791   6.549 -0.0745 -0.0371 -0.0507
 1332ERGO    C117721  10.683   3.712   6.920  0.1219  0.1722 -0.0255
 1332ERGO    C217722  10.816   3.711   7.236 -0.0624 -0.1183  0.1385
 1333ERGO   ROH17723  14.573  15.121   5.938  0.0759 -0.0557 -0.2382
 1333ERGO    R117724  14.666  14.897   6.083  0.1153  0.0747 -0.0615
 1333ERGO    R217725  14.853  14.918   6.285 -0.0484  0.2942  0.0626
 1333ERGO    R317726  14.664  14.788   6.430 -0.0656  0.2377 -0.0073
 1333ERGO    R417727  14.919  14.700   6.546 -0.0666  0.2884  0.0637
 1333ERGO    R517728  14.759  14.572   6.472 -0.0197  0.2529 -0.0001
 1333ERGO    C117729  14.779  14.451   6.833 -0.0932  0.2320 -0.0012
 1333ERGO    C217730  14.641  14.169   7.063 -0.3064  0.1752  0.0176
 1334ERGO   ROH17731  13.305  13.243   5.802 -0.2008 -0.0340 -0.2061
 1334ERGO    R117732  13.336  13.322   6.072 -0.0543 -0.2767 -0.1480
 1334ERGO    R217733  13.263  13.573   6.163  0.3807 -0.2049  0.0328
 1334ERGO    R317734  13.117  13.430   6.342  0.1340 -0.0859 -0.0690
 1334ERGO    R417735  13.165  13.688   6.473  0.4177 -0.1910  0.0390
 1334ERGO    R517736  13.209  13.490   6.555  0.1380 -0.2789 -0.0147
 1334ERGO    C117737  12.971  13.621   6.823  0.2076 -0.0712 -0.0530
 1334ERGO    C217738  12.580  13.792   6.898  0.0485 -0.1740  0.0880
 1335ERGO   ROH17739  13.440   6.524   6.016  0.0470  0.2273  0.0206
 1335ERGO    R117740  13.490   6.482   6.292  0.1184  0.1396 -0.0046
 1335ERGO    R217741  13.297   6.522   6.486  0.2084  0.2161  0.0729
 1335ERGO    R317742  13.360   6.266   6.555  0.0788  0.1630 -0.0057
 1335ERGO    R417743  13.316   6.404   6.810  0.1074  0.0933  0.0343
 1335ERGO    R517744  13.492   6.289   6.753  0.0607  0.0310  0.0210
 1335ERGO    C117745  13.385   6.096   7.064 -0.0730 -0.0280 -0.0619
 1335ERGO    C217746  13.362   6.100   7.399 -0.3323  0.3686 -0.1258
 1336ERGO   ROH17747   6.120   1.729   5.345 -0.3392  0.0490 -0.1052
 1336ERGO    R117748   6.243   1.750   5.599 -0.2135 -0.1264 -0.1502
 1336ERGO    R217749   6.202   1.965   5.767  0.2108 -0.0301 -0.1631
 1336ERGO    R317750   6.132   1.772   5.945 -0.0590  0.1083 -0.1125
 1336ERGO    R417751   6.298   1.958   6.099  0.2012 -0.0717 -0.1606
 1336ERGO    R517752   6.327   1.743   6.081 -0.0938 -0.1233 -0.1047
 1336ERGO    C117753   6.288   1.772   6.459 -0.0577  0.0340 -0.1118
 1336ERGO    C217754   6.360   1.600   6.750  0.0291  0.1582  0.2878
 1337ERGO   ROH17755  12.846  18.488   5.577 -0.1763 -0.0362  0.1224
 1337ERGO    R117756  12.852  18.290   5.779 -0.0146 -0.0574  0.1016
 1337ERGO    R217757  12.964  18.040   5.739  0.0435 -0.0298  0.0187
 1337ERGO    R317758  13.107  18.106   5.961  0.1370  0.0026 -0.0529
 1337ERGO    R417759  13.106  17.813   5.958  0.0729  0.0174  0.0463
 1337ERGO    R517760  13.044  17.941   6.123  0.1650  0.0759  0.0216
 1337ERGO    C117761  13.322  17.742   6.293  0.1775  0.0753 -0.0050
 1337ERGO    C217762  13.396  17.440   6.332  0.2966  0.0617 -0.0603
 1338ERGO   ROH17763   2.062   6.623   5.815  0.1097 -0.1219  0.0095
 1338ERGO    R117764   2.079   6.616   6.097 -0.0861 -0.1019  0.0236
 1338ERGO    R217765   2.244   6.784   6.240  0.0687 -0.3132  0.1034
 1338ERGO    R317766   2.014   6.845   6.372  0.0632  0.0415 -0.0601
 1338ERGO    R417767   2.222   7.000   6.510  0.2293 -0.3766  0.1683
 1338ERGO    R517768   2.080   6.863   6.602 -0.0914 -0.1658  0.0009
 1338ERGO    C117769   1.994   7.183   6.790  0.3176 -0.0807  0.0526
 1338ERGO    C217770   1.951   7.402   6.936  0.1474  0.0506  0.1894
 1339ERGO   ROH17771  16.169   8.003   6.134  0.1054  0.0614 -0.1836
 1339ERGO    R117772  16.337   7.845   6.299  0.0796  0.0508 -0.1686
 1339ERGO    R217773  16.561   7.947   6.425  0.0235  0.0567 -0.0801
 1339ERGO    R317774  16.441   7.846   6.647 -0.0242 -0.0123 -0.1358
 1339ERGO    R417775  16.724   7.778   6.679  0.0485  0.3443  0.0998
 1339ERGO    R517776  16.555   7.641   6.689  0.2029  0.1375  0.0182
 1339ERGO    C117777  16.706   7.586   7.035  0.0184  0.4471  0.1524
 1339ERGO    C217778  16.677   7.494   7.289 -0.2295  0.0895 -0.2806
 1340ERGO   ROH17779  17.434  18.275   5.841 -0.1578  0.0909  0.0167
 1340ERGO    R117780  17.511  18.434   6.062 -0.0945  0.0694  0.0113
 1340ERGO    R217781  17.365  18.442   6.297 -0.0593  0.0901  0.0349
 1340ERGO    R317782  17.604  18.377   6.409 -0.0552  0.0391 -0.0045
 1340ERGO    R417783  17.465  18.534   6.615 -0.1089 -0.1848  0.1318
 1340ERGO    R517784  17.665  18.571   6.536 -0.1110 -0.0647  0.1841
 1340ERGO    C117785  17.747  18.526   6.906 -0.1338 -0.3928  0.1513
 1340ERGO    C217786  17.767  18.564   7.277  0.2330  0.0023  0.1359
 1341ERGO   ROH17787   9.801  15.485   5.910 -0.1091  0.1604  0.1401
 1341ERGO    R117788   9.665  15.271   6.036 -0.2008  0.2111  0.1283
 1341ERGO    R217789   9.798  15.071   6.175 -0.2541 -0.0450 -0.1750
 1341ERGO    R317790   9.629  15.144   6.375  0.0508 -0.0077  0.0771
 1341ERGO    R417791   9.638  14.852   6.388 -0.2902 -0.0361 -0.1926
 1341ERGO    R517792   9.459  14.975   6.374 -0.1602  0.1994  0.1112
 1341ERGO    C117793   9.387  14.792   6.701 -0.0250  0.0042  0.0339
 1341ERGO    C217794   9.258  14.766   7.036 -0.0611 -0.0318  0.1275
 1342ERGO   ROH17795  13.003   2.674   5.716 -0.2048 -0.2031 -0.0211
 1342ERGO    R117796  13.047   2.548   5.967  0.0156 -0.1645 -0.0375
 1342ERGO    R217797  13.271   2.598   6.121 -0.0204  0.1372 -0.0735
 1342ERGO    R317798  13.086   2.655   6.312 -0.0710 -0.1333 -0.0375
 1342ERGO    R417799  13.280   2.482   6.447  0.2287  0.1733 -0.0658
 1342ERGO    R517800  13.064   2.453   6.438  0.2686 -0.1607 -0.0161
 1342ERGO    C117801  13.111   2.469   6.816  0.3263 -0.0596 -0.0276
 1342ERGO    C217802  13.243   2.234   7.079  0.0190 -0.0758  0.0231
 1343ERGO   ROH17803   8.524   3.294   5.701 -0.0088  0.1092  0.0381
 1343ERGO    R117804   8.537   3.182   5.961 -0.1897  0.0727  0.0322
 1343ERGO    R217805   8.703   3.283   6.158 -0.0690 -0.1680  0.0537
 1343ERGO    R317806   8.471   3.295   6.300 -0.0694  0.1423  0.0341
 1343ERGO    R417807   8.681   3.349   6.497  0.0078 -0.2474  0.0746
 1343ERGO    R517808   8.525   3.198   6.511 -0.2342 -0.0179  0.0077
 1343ERGO    C117809   8.451   3.398   6.827  0.0522 -0.0024  0.0683
 1343ERGO    C217810   8.325   3.579   6.981 -0.1199  0.1128 -0.3674
 1344ERGO   ROH17811   4.660  12.766   5.418 -0.0953  0.0468  0.0259
 1344ERGO    R117812   4.540  12.710   5.668 -0.0413 -0.0345  0.0344
 1344ERGO    R217813   4.570  12.467   5.796  0.0332 -0.0578 -0.0229
 1344ERGO    R317814   4.654  12.623   6.002  0.0349 -0.0835 -0.0046
 1344ERGO    R417815   4.583  12.367   6.127  0.0795 -0.1106 -0.0408
 1344ERGO    R517816   4.510  12.564   6.184  0.0619 -0.1309  0.0000
 1344ERGO    C117817   4.670  12.455   6.513  0.1079 -0.1654 -0.0342
 1344ERGO    C217818   4.563  12.269   6.761 -0.0268 -0.0174 -0.1496
 1345W        W17819  19.174  10.729   3.214  0.0251  0.1482  0.2362
 1346W        W17820  17.002  13.029  12.120 -0.2968  0.3736 -0.0770
 1347W        W17821   0.341   4.804  11.462  0.2966 -0.3074 -0.1558
 1348W        W17822   9.485   3.343  10.411  0.0304  0.3885 -0.0303
 1349W        W17823  17.975   4.882   4.514  0.3988  0.1620  0.3106
 1350W        W17824   5.080   7.989  13.394 -0.3156 -0.1582  0.0253
 1351W        W17825   0.403   7.845   1.231  0.0116  0.1041 -0.3040
 1352W        W17826   9.599  18.746   3.978 -0.3289  0.1628 -0.0832
 1353W        W17827  15.838  16.760  13.468 -0.0728 -0.4213 -0.0222
 1354W        W17828  15.142  12.505   3.148 -0.2447  0.0249  0.1777
 1355W        W17829  16.094   3.992   2.532 -0.0893  0.0746  0.0297
 1356W        W17830   6.956  10.262  12.243 -0.1670 -0.1506  0.2805
 1357W        W17831  12.897   2.854   3.941  0.1126 -0.1365 -0.1982
 1358W        W17832  18.634   0.722  14.580 -0.0416 -0.1007  0.1828
 1359W        W17833   2.046  11.117  13.259 -0.1277 -0.0316  0.2495
 1360W        W17834  10.437   2.634   3.865  0.2231 -0.0419 -0.4763
 1361W        W17835   2.099  13.885   1.733  0.1768  0.1997 -0.0331
 1362W        W17836   2.721  17.083   8.865  0.3760 -0.1779  0.0644
 1363W        W17837   4.464  12.854  14.565  0.3337 -0.0557 -0.0111
 1364W        W17838  19.341   5.180  12.913  0.0737  0.0282  0.1261
 1365W        W17839  11.229  14.751   4.994 -0.3792  0.2467  0.2544
 1366W        W17840  10.784  14.293  14.496 -0.0514  0.1609 -0.0237
 1367W        W17841  17.594   2.508   0.044 -0.1272  0.0132 -0.3987
 1368W        W17842   8.432   4.366   1.839 -0.2000 -0.0076 -0.1855
 1369W        W17843   2.003  17.396   2.968 -0.2834  0.0986  0.1800
 1370W        W17844  19.485  18.746  11.913  0.1497  0.0379 -0.2094
 1371W        W17845   5.567   8.298   9.167 -0.1821 -0.2223 -0.0155
 1372W        W17846  15.387   9.077   6.146  0.0936 -0.2182 -0.1573
 1373W        W17847   4.123  17.470   4.102 -0.0746  0.0065  0.0514
 1374W        W17848   1.107  17.003   2.813  0.3636  0.2559 -0.1895
 1375W        W17849   3.043   3.269  11.099  0.0550 -0.0114  0.1650
 1376W        W17850  15.771   9.829  11.386 -0.0810  0.1579 -0.2151
 1377W        W17851  13.874  18.338   3.186  0.0810  0.1214 -0.2380
 1378W        W17852  14.742   4.001  11.562  0.4147 -0.2153 -0.0264
 1379W        W17853  15.961   2.882  13.141 -0.3265  0.0479 -0.4181
 1380W        W17854  16.734  14.650  14.452 -0.3723  0.0661 -0.2345
 1381W        W17855  16.212  18.618  12.997 -0.0826 -0.4071 -0.1323
 1382W        W17856   4.821   1.660   0.605  0.3128  0.3048 -0.4557
 1383W        W17857  13.302   5.308   0.809 -0.0980 -0.0209  0.0124
 1384W        W17858  17.220   1.468  12.374  0.0935 -0.0980  0.0807
 1385W        W17859  14.668   1.089  13.710  0.0136  0.2923  0.0512
 1386W        W17860   4.284   7.128   2.101  0.0805 -0.2548  0.0934
 1387W        W17861   3.453   8.154   3.362  0.1765 -0.1792 -0.3116
 1388W        W17862  11.939  16.511  11.175 -0.4571  0.1085  0.0710
 1389W        W17863   6.239   4.382  10.988 -0.2373  0.2870 -0.0828
 1390W        W17864   7.029   2.731   2.157 -0.0310  0.2982 -0.1168
 1391W        W17865  18.588   4.851   3.046 -0.0143 -0.0442  0.2146
 1392W        W17866   9.589   6.983   0.295  0.0019  0.0788 -0.0526
 1393W        W17867   0.160   6.338   1.359 -0.1159  0.0300  0.4986
 1394W        W17868   9.759  12.982  14.360  0.0017  0.0038 -0.3488
 1395W        W17869  18.895  17.082   2.668  0.1741  0.2876 -0.2402
 1396W        W17870   9.835   3.387   3.958  0.0762 -0.0779  0.3758
 1397W        W17871   2.140   1.263  10.850 -0.0743 -0.0597 -0.1365
 1398W        W17872   4.038   4.437  14.377  0.1658 -0.1479 -0.3039
 1399W        W17873  10.526  18.234  11.980 -0.3027 -0.0395 -0.1448
 1400W        W17874   3.971  13.892  12.158 -0.1592  0.0685 -0.2119
 1401W        W17875   7.895   8.482   2.091  0.1651 -0.1349  0.4056
 1402W        W17876  11.288  13.393   4.345 -0.0936  0.1976 -0.0329
 1403W        W17877  11.143  11.272   2.140 -0.0343 -0.1283  0.0902
 1404W        W17878   8.803  10.026  14.389  0.1696  0.0952 -0.0661
 1405W        W17879  18.095   8.727  14.464 -0.1843 -0.2808 -0.0985
 1406W        W17880   9.228  17.339  12.899 -0.0131 -0.2724  0.1351
 1407W        W17881  10.851  18.617   0.672  0.0409 -0.2440 -0.1212
 1408W        W17882  18.679  16.397   3.208 -0.1017 -0.1689 -0.0372
 1409W        W17883   1.721  12.945  12.026  0.2244 -0.1099 -0.0224
 1410W        W17884   9.747  14.037  10.352  0.3052 -0.1348  0.0784
 1411W        W17885  15.265   7.801   3.123 -0.0997 -0.1146 -0.2342
 1412W        W17886  10.040   4.901  11.580  0.0816 -0.2737  0.3822
 1413W        W17887   8.237   1.108   4.438  0.0203 -0.1372  0.3094
 1414W        W17888  12.757   0.787  11.794 -0.1624 -0.1771 -0.0907
 1415W        W17889   5.952   3.037   0.771 -0.0213 -0.1114  0.1200
 1416W        W17890   3.461  10.121  12.665 -0.0120 -0.3787  0.2729
 1417W        W17891  15.989  11.755  12.494  0.1934  0.1061  0.0143
 1418W        W17892  13.794  16.226   0.655  0.1280 -0.0980 -0.0557
 1419W        W17893  16.810   6.620  10.317 -0.1191  0.1216 -0.0438
 1420W        W17894  11.475  10.331  13.131 -0.1442  0.0160 -0.1167
 1421W        W17895   7.830  14.119   2.383 -0.0385 -0.0171 -0.0904
 1422W        W17896   2.128  15.946   0.538 -0.4310 -0.2247  0.4453
 1423W        W17897   2.077   1.251   1.875 -0.1232  0.2943 -0.0010
 1424W        W17898   7.036   7.485   2.802  0.1325 -0.0815 -0.0290
 1425W        W17899   5.992   1.033   1.629  0.0322  0.0466  0.0267
 1426W        W17900   4.285   9.985   2.190 -0.2892  0.2925  0.3220
 1427W        W17901   3.149   0.508  13.768 -0.1083  0.1787 -0.0755
 1428W        W17902  10.034  10.785   5.046 -0.2221 -0.0739  0.0032
 1429W        W17903  19.247   1.522  10.514 -0.0447 -0.0765  0.1374
 1430W        W17904  12.826  11.003   9.644 -0.3052  0.2480  0.2758
 1431W        W17905   6.459  10.683  13.424  0.1902 -0.2070 -0.0274
 1432W        W17906   5.790  18.771   3.448  0.0023 -0.3500 -0.0324
 1433W        W17907  19.415   5.315   2.093  0.1100  0.2163 -0.0756
 1434W        W17908   0.583  10.341   0.179 -0.2187 -0.0383  0.0373
 1435W        W17909  18.219   4.278  12.549 -0.1674  0.2452  0.4223
 1436W        W17910  13.305   3.104   0.961  0.0213  0.3446 -0.0548
 1437W        W17911   7.399  15.802   2.856  0.4789  0.2195 -0.3112
 1438W        W17912  13.974  16.574   2.543 -0.2487  0.0987 -0.2447
 1439W        W17913  15.724  13.583  13.184 -0.0865  0.2497 -0.0147
 1440W        W17914  13.118  12.271  12.072 -0.1375 -0.3604 -0.1193
 1441W        W17915  13.485  12.149   0.488  0.1975  0.0492  0.1667
 1442W        W17916   3.205   2.412   3.324  0.2937  0.2210 -0.0109
 1443W        W17917   8.013   8.998  12.212 -0.2829 -0.0313  0.1573
 1444W        W17918   7.946   2.040   4.110  0.0802  0.0863  0.0866
 1445W        W17919  17.757   8.436   5.751 -0.0289 -0.0309  0.0208
 1446W        W17920   4.410   8.375   1.986 -0.1950  0.1720 -0.1537
 1447W        W17921   1.895  13.439   0.338  0.2843 -0.0070  0.4282
 1448W        W17922  10.130   1.941   4.613 -0.2117 -0.0363  0.0832
 1449W        W17923   3.454   2.438  10.904 -0.1912 -0.2383  0.0768
 1450W        W17924   4.872   1.667   2.067 -0.2477  0.3476 -0.0216
 1451W        W17925  15.363  10.231   4.853  0.0400  0.3377  0.2197
 1452W        W17926   9.549  10.082   4.605 -0.3602  0.2762 -0.0888
 1453W        W17927   4.572  16.002   9.823 -0.0333 -0.2694 -0.2422
 1454W        W17928  15.878   8.375  13.853  0.1860 -0.1809  0.1621
 1455W        W17929   0.918  15.493  11.737 -0.0308 -0.1594 -0.1374
 1456W        W17930   1.530   5.593  12.063  0.2121 -0.0578  0.1119
 1457W        W17931  15.848  11.483   2.436  0.3554  0.0513 -0.2943
 1458W        W17932   2.313  12.867  11.199 -0.1292  0.1069 -0.2402
 1459W        W17933  11.151   9.308   5.212  0.1046 -0.2294 -0.1179
 1460W        W17934  10.954   6.886   4.269  0.2870 -0.1359  0.1788
 1461W        W17935   2.542   0.957   2.017  0.2728  0.0000  0.0848
 1462W        W17936  12.420   8.623   3.729  0.2451 -0.0702 -0.2026
 1463W        W17937   5.933   7.817  14.068  0.1239 -0.0362 -0.1807
 1464W        W17938  10.804  18.739   0.159  0.2137 -0.0775  0.1024
 1465W        W17939  16.674   8.340  13.202 -0.0628 -0.4601 -0.1543
 1466W        W17940  18.289  10.375   4.195  0.2648 -0.0037  0.2081
 1467W        W17941   8.825  19.298   0.695 -0.2988  0.0244 -0.1465
 1468W        W17942   9.153   1.313   4.652  0.0669 -0.2033 -0.1359
 1469W        W17943   6.990  13.017  11.789  0.0860 -0.3198  0.0365
 1470W        W17944  18.156   9.466  12.584  0.2570 -0.1940  0.1818
 1471W        W17945   4.157   7.403  13.644 -0.2091  0.2303 -0.1071
 1472W        W17946   0.153  17.153   1.807 -0.1003  0.3061 -0.0310
 1473W        W17947  16.540  13.047  13.764 -0.0001  0.1585  0.2915
 1474W        W17948  16.849   1.139   5.611  0.0602 -0.0481 -0.0210
 1475W        W17949   1.443  17.976   1.721 -0.1120  0.0351 -0.3819
 1476W        W17950   8.258  16.445  14.087 -0.2952  0.3497 -0.0386
 1477W        W17951  16.133   6.600  10.763  0.0104 -0.0324  0.1233
 1478W        W17952  13.531   1.304   0.824  0.1040 -0.1568 -0.2636
 1479W        W17953   7.182  15.063  13.248  0.1361 -0.1404 -0.0961
 1480W        W17954  11.564   3.054   4.306  0.0814  0.0419 -0.3063
 1481W        W17955  11.529   4.972  12.706  0.1992 -0.1501  0.1791
 1482W        W17956  19.403   1.672   4.251  0.0165  0.3586 -0.3506
 1483W        W17957   8.758  16.362  14.046  0.0022  0.4210  0.4130
 1484W        W17958  10.506  16.142   5.642 -0.0882 -0.0874  0.1773
 1485W        W17959  16.523   9.764   5.503 -0.1815  0.1881 -0.1184
 1486W        W17960   0.927   6.255   2.268  0.3729 -0.2239  0.3453
 1487W        W17961   7.832   9.068   1.246  0.0267 -0.1966  0.3074
 1488W        W17962   3.244  17.946  13.695 -0.2337  0.1443 -0.0797
 1489W        W17963  18.894  13.715   0.204 -0.2092  0.0380  0.1155
 1490W        W17964   3.625  14.608   2.083  0.0183  0.2039  0.2102
 1491W        W17965  15.058  14.331   3.448  0.1133 -0.0929 -0.4076
 1492W        W17966   5.096   3.112   0.544  0.1906 -0.2409  0.2014
 1493W        W17967  18.023   2.638  12.987 -0.0056  0.2220  0.2120
 1494W        W17968   8.002  13.761   1.444 -0.2560 -0.1340 -0.3188
 1495W        W17969   7.695   6.183   3.249  0.5079  0.1977  0.1940
 1496W        W17970  17.423  14.295   0.309  0.0526  0.0171 -0.1066
 1497W        W17971   0.435  14.874   3.839 -0.0420  0.2329 -0.1886
 1498W        W17972   8.099   6.700   3.489  0.3579 -0.3863  0.1258
 1499W        W17973  12.159   8.122  13.009 -0.1001  0.0054 -0.0408
 1500W        W17974  15.900   0.352   3.126 -0.0933 -0.0835 -0.0411
 1501W        W17975  15.587  10.639   0.145 -0.0480  0.2100 -0.0246
 1502W        W17976   0.725   9.283  13.740 -0.4647 -0.1168  0.2839
 1503W        W17977  13.030   6.007   2.677 -0.0329  0.1936 -0.3256
 1504W        W17978  10.963   9.620  10.876 -0.0905 -0.2507 -0.2829
 1505W        W17979   5.119  17.773  14.306  0.2828 -0.2858  0.0306
 1506W        W17980   8.066  16.770  12.928  0.0853 -0.0468  0.3138
 1507W        W17981   4.043   4.236   1.180  0.2133 -0.1852 -0.1369
 1508W        W17982   4.152   9.853  14.569 -0.1616 -0.0808 -0.0423
 1509W        W17983  10.308  18.732  14.145  0.1859  0.2842 -0.2247
 1510W        W17984   0.902   0.403  10.787  0.0520  0.0934  0.3155
 1511W        W17985   7.969   2.037  13.788  0.4009  0.0937 -0.0690
 1512W        W17986  18.218   6.838  14.301  0.0623 -0.0158  0.2156
 1513W        W17987   4.515   2.368   9.287 -0.1650  0.1022 -0.2953
 1514W        W17988   6.898  13.946   9.847 -0.1315 -0.0754 -0.0422
 1515W        W17989   0.746   3.754  13.734  0.3208 -0.0752  0.4648
 1516W        W17990   3.758   0.878   1.821  0.2549 -0.1187 -0.0879
 1517W        W17991  19.027   1.041   2.154 -0.0578 -0.1083 -0.0255
 1518W        W17992   5.939   2.187   3.601  0.0616  0.1718 -0.0148
 1519W        W17993   4.430  11.339  11.482 -0.2645  0.0861 -0.0908
 1520W        W17994  10.293  13.323   2.730 -0.2659 -0.2426 -0.2000
 1521W        W17995   5.581  18.876   2.977 -0.0437 -0.1121 -0.0523
 1522W        W17996   9.864  18.006   4.565 -0.2305  0.2128  0.1512
 1523W        W17997   5.757  17.552   4.583 -0.0176 -0.0185  0.1676
 1524W        W17998   6.304   1.696  10.714 -0.4454  0.1681 -0.1987
 1525W        W17999   5.777  14.754   1.894  0.2957 -0.0422  0.0383
 1526W        W18000  11.739  11.438  14.284 -0.2222  0.1712  0.1614
 1527W        W18001   2.492   2.704  11.707  0.3698  0.0393 -0.0344
 1528W        W18002  16.105   9.600  13.088 -0.0231  0.0839 -0.1449
 1529W        W18003   0.481  12.855   1.595 -0.0694 -0.2141  0.0710
 1530W        W18004   6.735  18.987  10.711 -0.2371  0.0233  0.6155
 1531W        W18005  13.437   5.668   5.140  0.1081  0.2638  0.0107
 1532W        W18006   9.415  17.044   0.597 -0.0514  0.0132 -0.0386
 1533W        W18007  17.081   4.181  12.446 -0.1183 -0.0293  0.2261
 1534W        W18008   6.670   7.784   3.014 -0.3865  0.1085  0.2896
 1535W        W18009  13.769   8.717   4.633 -0.0695 -0.2394 -0.2977
 1536W        W18010  12.686   8.228  11.395  0.4451 -0.2227  0.1396
 1537W        W18011   4.721  18.342  11.474 -0.1524  0.0810 -0.2395
 1538W        W18012  11.014  12.373   5.387  0.3381 -0.1004 -0.1925
 1539W        W18013   3.140  11.757  13.826 -0.0273  0.2517  0.3918
 1540W        W18014  17.384   2.626   2.503  0.2970  0.1561  0.3669
 1541W        W18015  10.185   9.816   1.554  0.1575 -0.0265 -0.0845
 1542W        W18016  11.026  12.078   4.930  0.1036 -0.0287 -0.2617
 1543W        W18017  14.881  10.268   3.727 -0.5645 -0.0892  0.0396
 1544W        W18018  12.579   8.893  12.953 -0.3553  0.3367 -0.2145
 1545W        W18019  11.708   8.731   2.197  0.0928 -0.1894  0.0254
 1546W        W18020   8.081   9.477   1.563 -0.1791 -0.0679 -0.0106
 1547W        W18021   8.775  18.423   4.783 -0.0137 -0.0517 -0.0017
 1548W        W18022  13.339   3.263  13.655 -0.0982 -0.1808 -0.2030
 1549W        W18023   3.294  17.651   3.331 -0.1820 -0.2593  0.1423
 1550W        W18024   4.417   9.611   1.167 -0.2547  0.1551 -0.2064
 1551W        W18025  19.509   2.029   1.795 -0.0508 -0.0125  0.1525
 1552W        W18026  10.257  18.551  12.703 -0.2193  0.1361 -0.4232
 1553W        W18027   5.265  15.468  11.749  0.1978 -0.2968  0.1742
 1554W        W18028  15.635  14.498  13.217 -0.2308 -0.0588 -0.0337
 1555W        W18029  16.590   4.224   1.954 -0.1406  0.1307 -0.1121
 1556W        W18030  19.407  14.007  10.137  0.0542 -0.3898 -0.0704
 1557W        W18031  18.717   9.114  13.253  0.2547 -0.1977 -0.1107
 1558W        W18032  18.105   8.979  12.366 -0.0888  0.0420 -0.1893
 1559W        W18033  18.567   7.509  13.736  0.0277 -0.1262 -0.2257
 1560W        W18034   0.354  17.128  13.273  0.1336 -0.0027 -0.1654
 1561W        W18035  11.620  17.609   1.218  0.0930 -0.1452 -0.0331
 1562W        W18036   3.629   4.485   5.258 -0.0773  0.2533  0.1199
 1563W        W18037   3.672  14.019   0.799 -0.0322 -0.0437 -0.0255
 1564W        W18038   2.072   2.884  13.645  0.0261  0.2026 -0.0019
 1565W        W18039   6.585   3.200   4.714 -0.2985  0.2779 -0.0884
 1566W        W18040  16.568   3.745  13.068  0.0324 -0.2463 -0.2932
 1567W        W18041  11.217   5.348  12.814  0.0311  0.1473 -0.1916
 1568W        W18042   6.537   4.400  14.101  0.0123  0.0529  0.1187
 1569W        W18043  17.237   9.500   3.782 -0.0615 -0.1898 -0.2553
 1570W        W18044   3.393  14.056   4.465  0.1981  0.0420 -0.1940
 1571W        W18045  15.714   5.249   4.018  0.3629  0.1600  0.1188
 1572W        W18046  14.412   9.940  14.679  0.0394 -0.0940  0.2052
 1573W        W18047   0.189  18.250  12.097  0.0234 -0.1245 -0.0013
 1574W        W18048   1.645  10.996  12.420 -0.3377 -0.2736  0.0361
 1575W        W18049   7.682  11.047   2.283  0.1844 -0.3249 -0.0565
 1576W        W18050   2.615  13.111   3.969 -0.1146  0.2661 -0.2778
 1577W        W18051   1.276  15.725   0.185 -0.0838 -0.0959 -0.0497
 1578W        W18052   9.397  15.395   3.199  0.0668  0.1338  0.0344
 1579W        W18053   8.102   7.083   4.418  0.0226 -0.0756  0.1556
 1580W        W18054  15.732   8.821   1.141 -0.0077 -0.0392 -0.1505
 1581W        W18055   8.733  13.538   1.879 -0.3256 -0.1668  0.1621
 1582W        W18056   1.086  13.135   9.059 -0.2349  0.4133  0.3733
 1583W        W18057  18.961  18.147  11.365 -0.1623  0.1715 -0.1264
 1584W        W18058   8.538   9.213   0.130  0.4263 -0.1057  0.0296
 1585W        W18059  11.706   1.953  10.862 -0.1299  0.4862 -0.3293
 1586W        W18060   2.601  16.255   0.062 -0.1439 -0.0324  0.1359
 1587W        W18061   0.948   7.256   5.332  0.1164  0.1447  0.5645
 1588W        W18062   2.064  19.203  12.674  0.0139 -0.1504  0.2495
 1589W        W18063  18.385   3.068  12.349  0.2649  0.2049 -0.0549
 1590W        W18064   8.842   6.306   0.339 -0.4810 -0.2936  0.0169
 1591W        W18065  10.869   4.306   3.481  0.2223  0.1934  0.1363
 1592W        W18066  12.240   9.446   2.487 -0.0968 -0.1165 -0.0867
 1593W        W18067   3.340   7.311   2.389  0.0320  0.1897 -0.3524
 1594W        W18068  16.853  10.434  14.204 -0.0353 -0.0955  0.0747
 1595W        W18069  12.042  16.949   4.796 -0.3788  0.3983  0.3631
 1596W        W18070   1.128   3.081   3.709 -0.1542  0.0999 -0.0061
 1597W        W18071   6.250  10.025  13.003 -0.0112  0.4625  0.0819
 1598W        W18072  16.840  12.956   3.572 -0.0524 -0.0582  0.1315
 1599W        W18073  15.471  16.739   5.135  0.1522  0.0535 -0.0293
 1600W        W18074   0.961   0.490   1.272  0.1354 -0.0194  0.1358
 1601W        W18075   1.593  17.125  11.165 -0.3304  0.0936  0.2184
 1602W        W18076   4.881   8.999   4.792 -0.0139 -0.3875  0.1483
 1603W        W18077   8.013   5.995  10.682 -0.0283 -0.0898 -0.1899
 1604W        W18078  15.981  17.063  10.192 -0.0575  0.0926  0.1513
 1605W        W18079   8.944   0.973   0.108  0.0506  0.4297 -0.2232
 1606W        W18080  16.596  11.095  11.069 -0.1040  0.1640  0.2348
 1607W        W18081  10.829   2.286  10.496 -0.3466  0.1201  0.1051
 1608W        W18082   8.932   3.762  11.340  0.2632 -0.0815 -0.1050
 1609W        W18083   4.559   7.058  11.605  0.3082  0.2794 -0.2648
 1610W        W18084   6.098   3.702   0.779 -0.0335  0.1138  0.3035
 1611W        W18085   2.995  12.973  12.686  0.0252  0.1223  0.2625
 1612W        W18086  13.680  13.772  12.608  0.2601  0.0726 -0.0302
 1613W        W18087   6.157  18.038  12.727 -0.1647 -0.0886  0.2101
 1614W        W18088  11.777   9.596   2.443  0.0564  0.3322 -0.0553
 1615W        W18089   2.795   5.932   2.732  0.3111 -0.2316 -0.0160
 1616W        W18090  11.614  13.501   0.080  0.2233 -0.0423 -0.0985
 1617W        W18091   7.779   8.702   0.342  0.0206 -0.2298  0.4158
 1618W        W18092  13.306  18.546   3.982  0.0676  0.0141  0.3588
 1619W        W18093  15.369  15.783   3.618 -0.1951  0.1783  0.2004
 1620W        W18094   2.266   8.303   0.651 -0.0916 -0.3169 -0.1343
 1621W        W18095   1.727  17.032   3.188 -0.2930  0.1118  0.0814
 1622W        W18096   0.213   7.783  10.753  0.1878 -0.1557 -0.0505
 1623W        W18097   2.659  18.467  12.990 -0.5633  0.0161  0.1086
 1624W        W18098  17.709  10.738   3.659  0.0517 -0.1008 -0.0683
 1625W        W18099   9.146  18.682  12.472 -0.0207  0.3324 -0.0074
 1626W        W18100   7.022  16.362  11.453  0.0812 -0.0921  0.6987
 1627W        W18101  16.240   9.893   5.121  0.0052 -0.1413 -0.2797
 1628W        W18102   3.473   2.153   9.893  0.3946  0.0216 -0.1288
 1629W        W18103  16.189   0.924   0.818  0.1808  0.1860 -0.0238
 1630W        W18104  16.958  17.423   4.593  0.5306 -0.3812 -0.0426
 1631W        W18105  18.473   6.336   0.821 -0.2436 -0.0357  0.0159
 1632W        W18106  11.025   6.381   0.414 -0.2323 -0.1173 -0.1488
 1633W        W18107   1.088   8.079  11.074  0.0281  0.1224 -0.2132
 1634W        W18108   2.719  16.478  14.033  0.0655 -0.2200  0.3416
 1635W        W18109   1.118   1.353   0.585  0.0183  0.3509 -0.0126
 1636W        W18110  18.497  18.199   3.213 -0.0400 -0.0380 -0.0976
 1637W        W18111   7.361  10.863   1.556 -0.2874  0.1784  0.2920
 1638W        W18112   8.079  17.338   4.131  0.1692 -0.3286 -0.2688
 1639W        W18113   0.808   8.558  11.782 -0.2234 -0.0660 -0.0486
 1640W        W18114   4.928  16.276   3.902  0.2032  0.0702  0.1095
 1641W        W18115  18.667   2.657   2.186 -0.1424 -0.1602  0.3065
 1642W        W18116   5.898  14.430   2.220 -0.1181 -0.0216 -0.1032
 1643W        W18117  12.437   1.807  12.523  0.2555 -0.0587 -0.3242
 1644W        W18118   6.924  14.791  13.814  0.1160  0.0841  0.1439
 1645W        W18119  17.696   4.365   2.809 -0.2335 -0.1433 -0.1055
 1646W        W18120   1.294  14.919  10.351  0.1367 -0.1549 -0.1809
 1647W        W18121  19.040   4.184   0.315 -0.1618 -0.2114 -0.1053
 1648W        W18122   5.036  17.147   4.370  0.0770 -0.2138 -0.0668
 1649W        W18123  17.653   7.407   2.719 -0.1979 -0.1892 -0.1912
 1650W        W18124  15.059  19.412  12.465  0.1952 -0.0164  0.3880
 1651W        W18125  13.404   8.227   2.228  0.1772 -0.0151 -0.0588
 1652W        W18126   7.066   8.511   1.562  0.0602 -0.1671 -0.1438
 1653W        W18127  13.169   2.874  11.241  0.1199 -0.1349  0.0937
 1654W        W18128   5.354  15.828   0.086  0.4951  0.0405  0.0536
 1655W        W18129   6.589  12.095   2.635  0.2302 -0.0470 -0.0019
 1656W        W18130  16.804   3.706   4.629 -0.2892  0.0829  0.2364
 1657W        W18131  18.489   3.556  12.781 -0.2553  0.1270 -0.1151
 1658W        W18132   4.070   7.507  12.916  0.0449 -0.0175 -0.1118
 1659W        W18133  13.529   9.080   1.337 -0.2226  0.1175 -0.2931
 1660W        W18134   6.999   2.866  10.850 -0.0702 -0.2421  0.1258
 1661W        W18135   2.043  18.467  14.334  0.2892 -0.4181  0.0583
 1662W        W18136   1.363   8.298   1.977 -0.0314 -0.1455 -0.3602
 1663W        W18137   5.771  12.206  12.507 -0.1159 -0.1219  0.1238
 1664W        W18138  14.022   8.805   2.046 -0.1813  0.2314  0.3785
 1665W        W18139  12.522  13.483   4.081 -0.1809 -0.0257  0.3171
 1666W        W18140  12.100   8.432  12.657  0.0397 -0.2114  0.1730
 1667W        W18141  18.098   8.455   1.449  0.4729  0.0073 -0.0019
 1668W        W18142   4.366   3.119   1.160 -0.2013  0.1011  0.3123
 1669W        W18143   2.376  12.645  11.705 -0.0848 -0.0908 -0.0245
 1670W        W18144  10.515   2.154  12.069  0.0922  0.0344  0.0721
 1671W        W18145  11.762   6.198  14.458  0.0201  0.0285  0.1045
 1672W        W18146   9.335  15.113   2.074  0.0898 -0.1817  0.0127
 1673W        W18147   2.128   8.579   9.953  0.0523  0.2939  0.0893
 1674W        W18148   8.894  13.526   0.603  0.0917 -0.2003 -0.0418
 1675W        W18149  13.475  12.809   2.443  0.1663 -0.4118  0.0162
 1676W        W18150  12.691  13.139  11.327 -0.1499  0.1561 -0.0260
 1677W        W18151   2.959  15.907   5.137  0.1630 -0.0303  0.0803
 1678W        W18152  15.559  12.117   0.417 -0.0720  0.0178 -0.1389
 1679W        W18153  13.451   3.654  11.783  0.1908 -0.3103 -0.0805
 1680W        W18154  16.721  16.197   9.538 -0.1167  0.3778 -0.0276
 1681W        W18155  16.452   0.155   4.455 -0.1440  0.3532  0.0552
 1682W        W18156  10.631   1.598   2.747  0.2493 -0.1579  0.0035
 1683W        W18157   9.081   3.772   5.049  0.1989 -0.2433 -0.1685
 1684W        W18158  14.259  10.099   4.847 -0.2305 -0.2634 -0.1357
 1685W        W18159   6.054  10.289  13.400  0.1228  0.0663  0.0555
 1686W        W18160   6.428   3.278   2.674  0.1175  0.0411  0.0443
 1687W        W18161   2.248  11.382  11.763 -0.1492 -0.1017 -0.0325
 1688W        W18162  16.602  17.520   3.091  0.0308  0.2051  0.2615
 1689W        W18163   2.064   8.781   0.681 -0.1760  0.0472 -0.1509
 1690W        W18164  10.377   8.998   3.005  0.2639  0.0614 -0.1803
 1691W        W18165  17.520   0.189  13.340 -0.2479 -0.0832  0.1086
 1692W        W18166  17.991   3.950   0.545  0.2609 -0.3257  0.0849
 1693W        W18167  17.345  15.406  11.962 -0.2256 -0.0747 -0.0792
 1694W        W18168  10.547   7.731   1.130  0.1236  0.0492  0.4353
 1695W        W18169  18.627   4.152  11.066  0.2094  0.0366  0.2601
 1696W        W18170  11.679   2.941  13.873  0.1049 -0.0893  0.1631
 1697W        W18171  16.615  12.342   4.231 -0.0045  0.1641 -0.2007
 1698W        W18172  16.125   8.128   4.750  0.0057 -0.1184  0.0146
 1699W        W18173  14.193   0.440  11.196  0.0152  0.0436  0.2888
 1700W        W18174  15.599  11.082   0.351 -0.0084  0.2513  0.2296
 1701W        W18175  11.716   7.900   0.079  0.1169 -0.0922  0.1672
 1702W        W18176   2.174   3.334  13.500  0.4481 -0.2824  0.0300
 1703W        W18177  15.174  17.737   4.989 -0.2081 -0.2340 -0.0611
 1704W        W18178   2.307  13.112  13.533 -0.0025 -0.3778  0.0376
 1705W        W18179  15.378   4.070   1.174  0.1779 -0.1105  0.0243
 1706W        W18180   5.820  12.765  12.576 -0.0323 -0.1398 -0.1948
 1707W        W18181   7.843   3.652   1.632  0.2328  0.0887 -0.0414
 1708W        W18182  16.685  12.878   4.067 -0.0759 -0.0051  0.0585
 1709W        W18183   8.518  18.739  10.962 -0.1457  0.1101  0.0361
 1710W        W18184  12.878  10.101  11.778  0.1129  0.0007  0.1846
 1711W        W18185  18.195   7.938   1.796  0.1961  0.0677 -0.0930
 1712W        W18186  11.512  12.225  10.761 -0.0812 -0.3187 -0.0425
 1713W        W18187   6.830   0.329   2.479  0.3059 -0.1872 -0.1847
 1714W        W18188   0.281   1.449   1.384  0.2532 -0.0286  0.0658
 1715W        W18189   8.406   1.477   4.790  0.0109 -0.0012 -0.0685
 1716W        W18190   8.634   5.937  11.692  0.0153 -0.1950  0.0955
 1717W        W18191  16.400  10.047  12.177  0.0954  0.0096 -0.3220
 1718W        W18192  14.706  11.026   2.143 -0.2867  0.2636  0.2080
 1719W        W18193   4.760  10.961  13.496  0.1048 -0.1359 -0.0229
 1720W        W18194   5.775  18.248   0.079 -0.2675 -0.0590  0.0659
 1721W        W18195   6.905  17.160  13.302 -0.1266 -0.3075 -0.0741
 1722W        W18196   2.955  11.359  10.300 -0.3559  0.0315  0.1879
 1723W        W18197   7.902  16.982   0.200  0.0806  0.0347  0.2150
 1724W        W18198   1.705   5.414   2.578 -0.1204  0.2852 -0.2530
 1725W        W18199  12.931   9.392  12.869  0.2221 -0.0551  0.0924
 1726W        W18200   8.498  18.286  10.275  0.1803 -0.1964 -0.2314
 1727W        W18201   8.557   1.014  11.593 -0.0361  0.2007  0.1726
 1728W        W18202  15.371  18.740   4.691  0.1276  0.1339  0.2817
 1729W        W18203   3.001  17.258   9.866  0.3119 -0.1880  0.1870
 1730W        W18204  19.332  18.239  12.875  0.2052 -0.1142 -0.1075
 1731W        W18205  15.196  12.763  12.631 -0.0751 -0.0851 -0.0163
 1732W        W18206  19.519   3.561  13.018  0.1334  0.0722 -0.1691
 1733W        W18207   4.498   6.672   0.400 -0.0768  0.1398  0.0240
 1734W        W18208   7.995   7.746   0.908 -0.2261  0.0090  0.1701
 1735W        W18209   9.303  11.241   0.305  0.0274  0.1849 -0.1991
 1736W        W18210   6.913   5.290  11.845 -0.4632  0.1253 -0.2262
 1737W        W18211   5.574   5.046   1.544  0.1568  0.2207  0.0171
 1738W        W18212   6.432   8.177   3.211 -0.2832 -0.0504 -0.3631
 1739W        W18213   2.705  19.041   3.829 -0.0701  0.1026  0.1355
 1740W        W18214  16.941   9.099   1.257  0.0236 -0.1800 -0.1175
 1741W        W18215   4.540   8.686   4.630 -0.2122 -0.3304  0.1760
 1742W        W18216  14.557   6.438   4.610  0.2671 -0.2809 -0.0033
 1743W        W18217   0.261   4.083   1.254 -0.0672  0.1195  0.0967
 1744W        W18218   2.286  15.673   3.912  0.3511  0.1117  0.1004
 1745W        W18219  11.750   8.206  12.402 -0.2249 -0.1159  0.2003
 1746W        W18220   2.921  13.028  10.109  0.1957 -0.0449 -0.0023
 1747W        W18221   6.511   6.819   4.721 -0.0295  0.3137  0.1532
 1748W        W18222  13.110  15.342   5.051  0.0656 -0.0369 -0.1698
 1749W        W18223   6.630   1.022   3.854 -0.1198  0.1695 -0.3695
 1750W        W18224  10.986   1.933   1.414  0.0430  0.2202  0.1570
 1751W        W18225  13.396   8.230   0.886 -0.1943 -0.1503  0.1165
 1752W        W18226  14.990   6.159   3.749  0.2324  0.2294  0.1983
 1753W        W18227   0.046   7.387  12.263 -0.0801  0.2693 -0.0606
 1754W        W18228  11.054   7.958  12.875 -0.1644  0.0543 -0.1534
 1755W        W18229   0.121  13.431  14.462  0.1422  0.2771  0.0726
 1756W        W18230  15.873  14.044   2.793  0.4122  0.0367 -0.2415
 1757W        W18231   7.395  13.312   2.773 -0.0910 -0.1334 -0.0093
 1758W        W18232  12.871  12.784  13.030  0.1090 -0.1272 -0.2555
 1759W        W18233   1.495   6.845  12.747 -0.1567  0.0622 -0.1226
 1760W        W18234  18.136  10.009   2.595  0.1790  0.1882 -0.3245
 1761W        W18235   5.241  10.153   1.457  0.0607 -0.0929  0.3358
 1762W        W18236  13.507  17.633   0.161 -0.0038  0.2908 -0.1693
 1763W        W18237  16.417  10.871   2.052  0.0634 -0.0869  0.5284
 1764W        W18238   4.233  15.223  13.772 -0.0846  0.0803 -0.1633
 1765W        W18239  14.789   6.795  11.316 -0.1031 -0.4319  0.1774
 1766W        W18240   0.938   3.597  12.859  0.0457  0.1232  0.0367
 1767W        W18241   8.847   3.043  14.592  0.2099  0.1341 -0.1325
 1768W        W18242   6.192   9.769  13.437  0.1192  0.1135  0.2247
 1769W        W18243  18.622   7.063   3.634 -0.2148 -0.1029 -0.1403
 1770W        W18244  18.319  19.469   4.256  0.0084  0.0699  0.3892
 1771W        W18245  15.319  17.999   2.780 -0.2784  0.1548  0.3286
 1772W        W18246  15.242   9.562  12.666  0.0784  0.1275  0.1677
 1773W        W18247  15.419  18.249   0.338  0.0643 -0.2258 -0.0063
 1774W        W18248  10.121   6.305   4.506 -0.5206  0.1536 -0.1174
 1775W        W18249   0.868  15.302  11.270 -0.0359  0.1360  0.1403
 1776W        W18250   1.761   7.141   9.886 -0.0674  0.0832 -0.0441
 1777W        W18251   3.205  18.312   2.529  0.0745  0.0492 -0.0825
 1778W        W18252  19.042  18.483   3.646 -0.0900  0.1658 -0.2261
 1779W        W18253  12.738  17.616  10.970  0.5031  0.0187  0.2603
 1780W        W18254   0.067   8.775   4.706  0.0832  0.2175 -0.1351
 1781W        W18255   0.730   2.856  13.249  0.1085 -0.0801 -0.0964
 1782W        W18256   8.502  13.238  12.286 -0.2362 -0.1454 -0.2591
 1783W        W18257   6.789  19.330  10.059 -0.3183 -0.0019 -0.1349
 1784W        W18258  10.861   2.477  11.030  0.0480  0.0875 -0.0854
 1785W        W18259   3.684  10.922  12.639  0.2445 -0.0152  0.0136
 1786W        W18260  12.276  18.041   1.466  0.0446 -0.1789 -0.0205
 1787W        W18261   0.474   7.799  11.207 -0.1246  0.0093  0.4693
 1788W        W18262  18.358  15.294  14.396 -0.1199  0.0760  0.1811
 1789W        W18263  18.310   0.868   3.625 -0.2508  0.0789  0.3042
 1790W        W18264   0.064   2.333   9.799 -0.0323 -0.0822 -0.1649
 1791W        W18265   1.652  12.398   0.046 -0.0427  0.2144 -0.2035
 1792W        W18266  15.726  14.785  11.472  0.3085 -0.1680 -0.1695
 1793W        W18267   6.943   5.802  10.553  0.2330 -0.1787 -0.4018
 1794W        W18268   3.786   4.392  11.537 -0.4711 -0.1242 -0.2321
 1795W        W18269  16.748  18.770  12.805 -0.0092 -0.0463 -0.4361
 1796W        W18270   1.002  14.929   3.813 -0.1194  0.0224  0.0244
 1797W        W18271  15.193   0.769  11.340 -0.1462 -0.1007  0.0648
 1798W        W18272   9.341   8.173   4.164 -0.1051  0.4179 -0.1844
 1799W        W18273  17.490   8.901  14.585 -0.4328 -0.0149 -0.0893
 1800W        W18274   7.906  16.664   4.369 -0.0208  0.1964  0.0923
 1801W        W18275  14.644  18.999   1.603 -0.0124 -0.2563  0.2045
 1802W        W18276   4.679   1.103   2.473 -0.2586 -0.0500  0.1687
 1803W        W18277   1.230  12.560   1.979 -0.0723 -0.1624  0.1055
 1804W        W18278  13.211   0.377  10.628 -0.0874 -0.0861 -0.2495
 1805W        W18279   0.637   6.899  12.497 -0.1510  0.0251  0.0774
 1806W        W18280  10.487   5.793  12.220 -0.2265 -0.1594  0.0416
 1807W        W18281   6.723  11.634  12.162  0.3292 -0.1237 -0.0325
 1808W        W18282  13.850  17.564   1.153 -0.2840 -0.2690 -0.1287
 1809W        W18283   8.643   5.011  13.604 -0.2406 -0.3022 -0.0429
 1810W        W18284  16.069   0.742   0.371  0.0633  0.4166  0.1607
 1811W        W18285  17.747   9.338   0.576 -0.0035  0.1914 -0.1160
 1812W        W18286   9.570  16.871  11.321  0.0274 -0.0282 -0.1538
 1813W        W18287   5.316   5.006  11.711 -0.0855  0.0593  0.0776
 1814W        W18288  14.004   1.482  11.256  0.1615  0.1712 -0.1432
 1815W        W18289  14.419  19.349   2.059 -0.1864  0.3253  0.1025
 1816W        W18290   9.011  14.348  11.033  0.1108  0.0742 -0.0600
 1817W        W18291  19.434   8.636  14.097  0.3267  0.1608  0.4387
 1818W        W18292  15.768   5.704   0.138 -0.3750 -0.3012 -0.0726
 1819W        W18293   1.533   7.019  11.619 -0.1951  0.0863 -0.1416
 1820W        W18294  16.878   8.085   2.209  0.0753 -0.0055  0.0578
 1821W        W18295  13.870  17.109   3.340 -0.0073 -0.0646 -0.1248
 1822W        W18296  18.487  11.567   0.401 -0.2653 -0.3494  0.2288
 1823W        W18297  18.294   0.038  13.172 -0.0095  0.3264  0.0105
 1824W        W18298  12.505  19.548   0.152 -0.0661  0.0285 -0.1064
 1825W        W18299   7.467  12.534  13.929  0.3015  0.0277 -0.0298
 1826W        W18300   4.709  14.019  10.784 -0.1663 -0.1527 -0.2022
 1827W        W18301  19.066   5.083   2.929 -0.1110  0.0989  0.2947
 1828W        W18302   2.173   0.632   0.815 -0.1624  0.0408  0.3558
 1829W        W18303  11.287  10.249  14.018 -0.3192  0.0299  0.0202
 1830W        W18304  14.627   0.853  11.700 -0.1067  0.2947  0.0904
 1831W        W18305  17.387   9.948   2.730  0.2559  0.0016 -0.0607
 1832W        W18306   1.532  15.846   0.902  0.1903  0.2583  0.1148
 1833W        W18307   6.592   0.422   4.721  0.0920 -0.1330 -0.1607
 1834W        W18308  12.347  11.440   0.793 -0.1569 -0.2303 -0.0086
 1835W        W18309  19.451  16.709   0.947  0.0729  0.2416 -0.0980
 1836W        W18310   9.515   6.495   2.697  0.0804 -0.2455  0.2010
 1837W        W18311  11.856  18.298   1.865  0.1189 -0.0414 -0.1897
 1838W        W18312  10.454   7.092   1.913 -0.2911  0.2726  0.0739
 1839W        W18313   5.760  18.794  14.653  0.5050 -0.1732  0.0241
 1840W        W18314  15.852   0.629  14.577 -0.2205 -0.0704 -0.3262
 1841W        W18315  15.025  10.010  10.894 -0.2033 -0.1614  0.0912
 1842W        W18316  10.365  13.571   5.021 -0.0330  0.1438  0.1749
 1843W        W18317   5.336   7.843  10.890  0.3329 -0.1079 -0.1888
 1844W        W18318  18.006  11.930   2.451  0.1247  0.0139 -0.0160
 1845W        W18319  14.309   5.486  13.993 -0.0532  0.1203 -0.1414
 1846W        W18320  12.602  16.786   3.205 -0.2857  0.0821 -0.1697
 1847W        W18321   0.622   1.748  10.528 -0.0822  0.0389  0.1431
 1848W        W18322   0.825   7.101   0.939  0.2965 -0.2775 -0.1773
 1849W        W18323  11.022   7.804   1.936  0.0340 -0.1177 -0.1053
 1850W        W18324  12.797   2.902  11.595  0.0777  0.0067 -0.2157
 1851W        W18325   6.159   3.968  12.994  0.2561 -0.1954  0.2688
 1852W        W18326  19.045  15.598  10.796  0.4890 -0.1004 -0.2756
 1853W        W18327  13.549   5.221   3.445  0.0819 -0.0475  0.0608
 1854W        W18328  10.367  15.235   1.417 -0.1182  0.2502  0.2404
 1855W        W18329   9.319   9.339   9.239  0.1623  0.0985 -0.2874
 1856W        W18330  15.197   2.018   4.728 -0.2022  0.3479 -0.1776
 1857W        W18331  12.071  12.227   2.248 -0.0575  0.0900  0.2685
 1858W        W18332   4.943  16.192   0.333 -0.1838  0.0445 -0.1938
 1859W        W18333  18.711  17.676   2.610  0.4001  0.2369  0.0273
 1860W        W18334   1.044  12.788  12.701 -0.1939  0.1811 -0.0213
 1861W        W18335  15.469   7.628  11.454  0.2004  0.2160  0.0847
 1862W        W18336   3.733  10.958  11.077 -0.0330  0.0419 -0.2193
 1863W        W18337  18.527  12.240   4.606 -0.0149 -0.2377  0.1701
 1864W        W18338   1.873   1.945   9.697 -0.1746 -0.0223  0.1955
 1865W        W18339  10.776   0.734   1.251 -0.1335  0.1401 -0.0543
 1866W        W18340   3.148   8.265   3.775  0.0780  0.1234 -0.0813
 1867W        W18341  15.322  18.979  13.966  0.0172  0.1830  0.3343
 1868W        W18342  18.754   9.640  11.571 -0.0424 -0.2530 -0.1968
 1869W        W18343   7.041  19.358   9.008  0.1626  0.0780  0.0753
 1870W        W18344   7.768   5.719  13.947 -0.0834 -0.0968  0.1154
 1871W        W18345  14.185  19.011  13.311 -0.2284 -0.1790 -0.2221
 1872W        W18346   8.585   5.999   0.004  0.0489  0.0747 -0.1257
 1873W        W18347   6.827   6.111  12.342  0.0871 -0.0588 -0.1108
 1874W        W18348   1.438  13.990  14.476 -0.2575 -0.0214 -0.3068
 1875W        W18349  17.764  16.842  13.025 -0.0724  0.0976 -0.0823
 1876W        W18350   7.411  13.737  10.251  0.2551 -0.2065 -0.3768
 1877W        W18351   2.365   0.641  12.228  0.2192 -0.0924 -0.1375
 1878W        W18352   4.816   8.013  10.889 -0.2804 -0.0649 -0.0402
 1879W        W18353   6.109  11.643   2.289  0.3090 -0.3010  0.2229
 1880W        W18354  16.348  13.045  11.007 -0.0843  0.1078  0.2805
 1881W        W18355  18.592  19.374   0.913  0.1377 -0.0686  0.2512
 1882W        W18356   6.775  15.707  11.898 -0.1302  0.3071 -0.2088
 1883W        W18357  13.037   3.729   3.590 -0.0134 -0.1410  0.1648
 1884W        W18358  13.005  16.776  12.702 -0.2981  0.0946 -0.2083
 1885W        W18359  10.545   8.064  10.840  0.0935 -0.0542  0.1404
 1886W        W18360   7.748   5.267   2.106 -0.1941  0.3382 -0.0015
 1887W        W18361   8.926   6.046  10.576 -0.1353  0.3077 -0.2169
 1888W        W18362   6.627  15.742   3.917 -0.2933 -0.2296  0.1744
 1889W        W18363  10.764   0.526  13.579 -0.4042 -0.4966 -0.1043
 1890W        W18364  11.118   4.780   3.313 -0.2217  0.0845  0.0783
 1891W        W18365   1.933   3.674   3.649 -0.1072 -0.1214  0.2599
 1892W        W18366  14.237  13.801  12.534 -0.0170  0.1604 -0.2777
 1893W        W18367   7.646   8.106  11.302  0.1018  0.4494  0.1702
 1894W        W18368   1.200  12.984  12.152 -0.1822  0.1605  0.2770
 1895W        W18369   8.922   9.738  12.137 -0.0968  0.1179 -0.1339
 1896W        W18370  11.765   2.013   2.396 -0.1450  0.2173  0.0126
 1897W        W18371  11.014   1.799  12.377  0.0248  0.1254  0.1121
 1898W        W18372   1.102  17.042  12.241 -0.1435  0.0005  0.4172
 1899W        W18373  16.160   1.032  11.018  0.1659 -0.2091 -0.4160
 1900W        W18374  10.401  15.923   4.445  0.0786  0.2737  0.1870
 1901W        W18375  13.359  12.545   3.993 -0.2169 -0.2881 -0.1817
 1902W        W18376   2.113   5.232   1.145 -0.2735  0.0128 -0.0208
 1903W        W18377   3.919   1.724   3.307 -0.1540 -0.1353 -0.1385
 1904W        W18378  15.387   1.829   3.062 -0.1162  0.2276  0.0499
 1905W        W18379  10.920   2.755   1.229 -0.2847  0.0901 -0.1003
 1906W        W18380   9.586  15.501  13.319  0.0727  0.0050  0.3261
 1907W        W18381  10.756  12.873  10.439  0.2185  0.0375 -0.2410
 1908W        W18382  14.616  19.389   2.661  0.2190 -0.0091 -0.0381
 1909W        W18383   9.429   5.312  10.024 -0.2757  0.0275 -0.1310
 1910W        W18384   5.811  12.910   3.256 -0.0826  0.0903 -0.0498
 1911W        W18385  17.841  11.429   1.323 -0.0927 -0.1969  0.0668
 1912W        W18386   4.521   3.636   0.954  0.0620 -0.1166 -0.3528
 1913W        W18387   1.391   7.586   1.339  0.1774  0.1748  0.2712
 1914W        W18388   0.708   9.582   1.008  0.2202  0.0816 -0.0492
 1915W        W18389   5.169   1.935   1.166 -0.1611 -0.1513 -0.1052
 1916W        W18390   7.374   5.738   4.482  0.3670 -0.1462  0.1187
 1917W        W18391   5.185   4.739   1.889 -0.0653 -0.0817  0.2648
 1918W        W18392  14.983  16.325  14.353  0.2844  0.0599  0.0502
 1919W        W18393   3.062  16.320   0.341  0.0336 -0.1196 -0.2271
 1920W        W18394  17.097   8.800  14.137 -0.0623  0.3129  0.1984
 1921W        W18395   6.032  11.172   4.285 -0.0129 -0.0532 -0.0680
 1922W        W18396  10.054  13.026  13.887  0.0310  0.0632 -0.0261
 1923W        W18397   3.370  19.357   5.188  0.0880  0.0217 -0.2317
 1924W        W18398  16.708  13.979   9.964  0.0130 -0.0195 -0.1553
 1925W        W18399  18.204  18.621   1.550  0.0345 -0.0918  0.1436
 1926W        W18400  16.359  19.242   4.235  0.1357 -0.4986 -0.2207
 1927W        W18401   6.319   2.439   2.725 -0.1783  0.2020 -0.1860
 1928W        W18402   7.254  16.536  11.945  0.0217  0.0779 -0.3391
 1929W        W18403  15.168  11.311   2.264 -0.0755  0.0172  0.1992
 1930W        W18404   5.413  14.154   3.554  0.1122 -0.1145  0.0091
 1931W        W18405   8.620   9.041   2.353 -0.0748  0.1897 -0.0680
 1932W        W18406  15.019  16.062  10.983 -0.2673 -0.3080  0.1033
 1933W        W18407  15.917  12.756  14.133  0.1268 -0.0168  0.2031
 1934W        W18408   0.793   4.505  11.548  0.2146  0.1593  0.3538
 1935W        W18409   8.777   0.103   1.006  0.0494 -0.2257 -0.0856
 1936W        W18410  19.159  13.187  13.784  0.0303 -0.0723  0.1044
 1937W        W18411   7.479  15.478  13.452  0.1132  0.3930  0.0527
 1938W        W18412   7.218  13.778   3.389  0.0756  0.2598 -0.4284
 1939W        W18413  12.760  12.805   3.524  0.0170  0.3606  0.1158
 1940W        W18414  10.680   5.633   0.132 -0.0195  0.1868 -0.3039
 1941W        W18415   0.937   3.490   2.772 -0.3109  0.1068 -0.0749
 1942W        W18416  11.812   8.248   1.239 -0.1633 -0.0136 -0.2435
 1943W        W18417   5.513  10.445  10.578 -0.2911  0.0653 -0.1560
 1944W        W18418  16.666  15.672  13.514 -0.2463 -0.1065  0.2825
 1945W        W18419  18.867  11.922   3.201 -0.3135  0.0861 -0.2937
 1946W        W18420   5.011   1.828   3.961  0.1738 -0.1140  0.0125
 1947W        W18421  14.653  12.583   0.829 -0.1874 -0.0808  0.3300
 1948W        W18422   9.427   2.506  13.056  0.0147 -0.0844 -0.1730
 1949W        W18423   3.973  13.941  12.705 -0.1039  0.1637 -0.2483
 1950W        W18424  10.199   1.947   5.203 -0.0257 -0.2211  0.0266
 1951W        W18425   0.325   5.135  10.102  0.0342 -0.0659 -0.1519
 1952W        W18426   5.191   3.106  11.796 -0.3876 -0.1709 -0.2264
 1953W        W18427   5.124   5.311  13.363 -0.0791 -0.1028  0.0211
 1954W        W18428  15.747   4.248  12.728 -0.1122 -0.0073  0.0564
 1955W        W18429  10.046   7.808  13.832  0.2982 -0.1115 -0.3921
 1956W        W18430   3.639   2.075  13.061 -0.0038 -0.2049 -0.0654
 1957W        W18431  13.642   0.776   0.935  0.0904 -0.2779 -0.3718
 1958W        W18432  12.378  17.557   3.590  0.1151 -0.2453 -0.0969
 1959W        W18433  15.849  11.849   0.085 -0.2541 -0.1872  0.1737
 1960W        W18434  13.817   1.011  10.305  0.0681  0.1811  0.0202
 1961W        W18435  15.866   3.048   3.731 -0.2603 -0.0947  0.0993
 1962W        W18436   3.347  10.674  14.657 -0.0453  0.1833 -0.0223
 1963W        W18437  16.446   8.221  11.795  0.2395 -0.1250  0.1456
 1964W        W18438  17.261   3.209  12.323 -0.1978 -0.1370 -0.2987
 1965W        W18439   9.508   9.014   2.946 -0.2813 -0.3438 -0.1281
 1966W        W18440  17.216   7.067   0.805  0.0326 -0.2329 -0.2225
 1967W        W18441   7.970   6.455   2.841  0.1089  0.3640 -0.1593
 1968W        W18442  13.770  17.823   1.947 -0.0886 -0.0077  0.1210
 1969W        W18443   9.441  17.310  14.313  0.2882  0.2149  0.2355
 1970W        W18444   0.934   1.997   1.883 -0.0534 -0.0102  0.0210
 1971W        W18445   8.334   2.022   1.771  0.2735 -0.4249 -0.3898
 1972W        W18446  18.384  16.375  12.840  0.0529 -0.6421 -0.1504
 1973W        W18447  18.690  14.370   4.366 -0.4214 -0.0499 -0.0017
 1974W        W18448   4.918   1.897  11.055 -0.4535  0.2294  0.2616
 1975W        W18449  11.150  16.254   0.092 -0.2013  0.3928  0.0416
 1976W        W18450  14.331  18.887   0.252 -0.3129  0.1393  0.1895
 1977W        W18451   7.900  11.451   3.635 -0.0195  0.3207 -0.0861
 1978W        W18452   6.615   5.299   1.906  0.0245 -0.0849  0.0641
 1979W        W18453  14.248   6.538   2.014 -0.1669  0.2220  0.2206
 1980W        W18454   6.309  14.359   9.908 -0.3065  0.1035 -0.1183
 1981W        W18455   4.639   7.901   3.672  0.0328 -0.1949  0.2464
 1982W        W18456  13.928  17.331   9.892 -0.1968 -0.1730  0.1411
 1983W        W18457  17.113  12.674   4.324 -0.2050  0.1560  0.3207
 1984W        W18458  12.910  19.384   2.849 -0.1399  0.1020  0.2704
 1985W        W18459   7.652  13.543  13.959 -0.1414  0.0762 -0.1134
 1986W        W18460  12.199  15.839  14.543 -0.1361  0.0229  0.1721
 1987W        W18461   0.428  12.946  13.557 -0.0610 -0.1604 -0.0019
 1988W        W18462  16.797   6.450   3.117  0.1248 -0.0667  0.1397
 1989W        W18463  18.324  11.572  13.783 -0.0567 -0.2272  0.0255
 1990W        W18464  15.871   0.801   5.432  0.2717 -0.0190  0.1235
 1991W        W18465  14.756   7.181  13.147  0.1728 -0.1137 -0.0834
 1992W        W18466   0.589  19.188  12.953 -0.1755  0.0195  0.0014
 1993W        W18467   9.880  14.537  13.467 -0.1264 -0.1402 -0.3002
 1994W        W18468   3.276  17.464  11.167  0.0601  0.0201  0.2531
 1995W        W18469  19.522  15.568  13.894 -0.0791 -0.5493 -0.1761
 1996W        W18470  14.712  18.138   4.238 -0.2342 -0.1449 -0.1028
 1997W        W18471   5.299  11.133  12.129 -0.0363  0.1565 -0.1380
 1998W        W18472   0.430   6.543  14.090 -0.0631  0.0338  0.0260
 1999W        W18473   6.293  12.896   4.643 -0.0333  0.1266  0.3604
 2000W        W18474  15.310   3.533   1.353  0.4734  0.1034  0.4042
 2001W        W18475   1.505   9.256   1.971 -0.3571 -0.2774 -0.0713
 2002W        W18476  11.291  15.575   0.892  0.0468 -0.2604 -0.0920
 2003W        W18477  13.480   8.982  10.665 -0.2131 -0.0103 -0.0041
 2004W        W18478  12.254  12.899   3.580  0.1334 -0.2590  0.2734
 2005W        W18479  18.892   4.654   0.444  0.0265  0.0555 -0.0379
 2006W        W18480  18.982   8.393   1.450  0.1346 -0.0801  0.0806
 2007W        W18481   4.436   9.172   0.459  0.2510  0.0155  0.5989
 2008W        W18482   6.126   1.687   0.804  0.1893  0.1050 -0.0005
 2009W        W18483   7.720   9.744  13.413  0.0190 -0.3151 -0.0810
 2010W        W18484  19.463  14.136  13.938 -0.0147 -0.1583  0.0329
 2011W        W18485   6.655  13.960   1.714  0.0532 -0.0097  0.2374
 2012W        W18486   0.096   1.230   4.019  0.2040  0.3716  0.0755
 2013W        W18487  13.427   3.136  11.550  0.0667  0.1587 -0.0704
 2014W        W18488   4.538  16.335  12.958 -0.0452 -0.2309  0.4672
 2015W        W18489   7.458  19.521   4.541  0.1398  0.0513 -0.1122
 2016W        W18490  15.445   1.608   0.935 -0.0045  0.1385  0.3374
 2017W        W18491  17.429  13.272  10.222 -0.0504 -0.2121  0.2185
 2018W        W18492   0.119   8.259   0.063  0.0655 -0.1350 -0.0608
 2019W        W18493  11.995  11.716   4.057  0.1081 -0.2920  0.1505
 2020W        W18494  19.491  12.328  10.671 -0.0576 -0.0588 -0.0286
 2021W        W18495  16.482   5.676   5.754  0.3017 -0.3567 -0.5408
 2022W        W18496  11.203  12.650  13.990 -0.3008  0.1389  0.2140
 2023W        W18497  16.000  12.607   3.411 -0.3287  0.2017 -0.1135
 2024W        W18498   9.603  15.196   0.065 -0.2632 -0.2427  0.2515
 2025W        W18499   0.416   0.773   0.500 -0.0072 -0.2941 -0.1274
 2026W        W18500  10.535  19.066  13.256  0.0824 -0.0447  0.4453
 2027W        W18501  12.100  14.108   1.861  0.1462  0.1041 -0.2613
 2028W        W18502   7.293   8.144  14.201 -0.0999 -0.2278  0.1256
 2029W        W18503   0.468  14.855  14.065 -0.1468 -0.0900  0.1210
 2030W        W18504  13.453  11.408   0.233  0.0607 -0.3336  0.0076
 2031W        W18505   3.688   6.028   2.538 -0.2837 -0.0541  0.1313
 2032W        W18506  13.539   3.307  10.504  0.0801  0.1494 -0.0776
 2033W        W18507  10.414   5.956   2.246 -0.2374 -0.0209 -0.2762
 2034W        W18508   8.241  12.864   5.133  0.0487  0.0156 -0.2839
 2035W        W18509  13.728  17.631   2.406 -0.0935 -0.1717  0.1053
 2036W        W18510   3.215  16.653  13.788  0.5596  0.1591 -0.2441
 2037W        W18511   1.758  17.647  13.280 -0.0164  0.1453 -0.1680
 2038W        W18512  14.464   5.079   4.911  0.1086 -0.0677 -0.4654
 2039W        W18513   3.702   1.137  11.782 -0.2534 -0.0406 -0.2571
 2040W        W18514   9.430   2.143   3.856 -0.3281  0.2336  0.1061
 2041W        W18515  12.230   4.381  11.305 -0.2014 -0.2631 -0.0967
 2042W        W18516   0.235   5.113  12.064  0.1058 -0.0391 -0.0408
 2043W        W18517   1.603   8.160   5.479 -0.3159 -0.2050  0.0184
 2044W        W18518  14.106   9.598   4.685 -0.1647  0.3011 -0.0996
 2045W        W18519  16.875   3.203   5.369  0.1145 -0.1801 -0.1748
 2046W        W18520   1.135  16.922   0.215 -0.0605  0.0949 -0.1639
 2047W        W18521   2.518   3.635  13.065  0.4686  0.0080  0.0536
 2048W        W18522  13.974  10.430  13.930 -0.0572  0.1214 -0.0376
 2049W        W18523   7.550   2.540  12.928  0.2042 -0.0586 -0.1891
 2050W        W18524  13.533  13.659   1.858  0.1459  0.4073 -0.3100
 2051W        W18525   7.727   9.455   5.008  0.2833  0.5074  0.2744
 2052W        W18526   1.888   7.362   5.318  0.0774 -0.1192 -0.0531
 2053W        W18527  17.042   3.769  13.213 -0.0890 -0.1404 -0.3083
 2054W        W18528  17.142  10.423   2.651  0.0100 -0.0448 -0.0070
 2055W        W18529   7.186  19.303  13.701  0.2393 -0.0872 -0.0135
 2056W        W18530  10.358   2.517  12.876  0.2280 -0.1309  0.2720
 2057W        W18531  12.305  10.166  13.333  0.1437  0.0756 -0.2713
 2058W        W18532  11.333  18.030   4.375 -0.0549 -0.1801  0.0679
 2059W        W18533   0.815   8.170   1.333 -0.0223 -0.3186  0.1912
 2060W        W18534  13.385  15.402  14.641 -0.2373  0.0400 -0.0220
 2061W        W18535   0.638  14.212  12.015  0.1503 -0.5227 -0.1043
 2062W        W18536   1.807   0.105  11.773 -0.2373 -0.0262  0.1718
 2063W        W18537   7.589   3.582   2.729  0.2813  0.1981  0.1295
 2064W        W18538  14.924  10.473   4.640  0.2255  0.1270  0.1964
 2065W        W18539   2.463   8.909   2.672 -0.0235  0.1499  0.2165
 2066W        W18540  13.707   6.627   5.032 -0.2942  0.0014  0.0332
 2067W        W18541  16.049  18.628   3.214 -0.1258 -0.1432  0.1337
 2068W        W18542   2.703  12.490   3.154  0.1563  0.1031  0.1299
 2069W        W18543  15.785   3.958  11.114  0.3334 -0.5335  0.0511
 2070W        W18544  11.244   5.372   2.284 -0.1742  0.4229 -0.2778
 2071W        W18545  11.232   7.300  14.133  0.2776 -0.3228  0.1539
 2072W        W18546  17.919   5.965   2.374  0.1991  0.0039 -0.1177
 2073W        W18547  15.079   8.999   1.457 -0.2886 -0.0684 -0.2053
 2074W        W18548   0.088   2.146   3.126  0.0998  0.2303  0.0805
 2075W        W18549  13.464   9.033   4.324  0.0524  0.1254 -0.1784
 2076W        W18550   5.790   3.676  12.298  0.1336 -0.4418 -0.0285
 2077W        W18551  16.081   6.458  13.241  0.2655  0.3020 -0.0445
 2078W        W18552   6.390   5.613  13.468 -0.4951  0.1526  0.0221
 2079W        W18553   1.595  17.489   1.986  0.2465  0.0276 -0.1169
 2080W        W18554  15.907   7.090  10.800  0.1148 -0.0306 -0.3001
 2081W        W18555  14.665   8.990  11.516  0.0330  0.1459  0.2632
 2082W        W18556  18.904  16.331   4.593  0.3973  0.2086  0.2739
 2083W        W18557   2.615   2.302   4.476 -0.0901 -0.1109  0.0668
 2084W        W18558   9.566  11.726  14.018 -0.0309  0.0705 -0.1757
 2085W        W18559   3.500  17.641   1.108  0.5008 -0.1421 -0.2295
 2086W        W18560   5.370   1.019  10.984 -0.0063 -0.1070  0.0364
 2087W        W18561   3.582   2.151   3.682 -0.1853  0.1667 -0.2290
 2088W        W18562   9.587  15.559   4.866 -0.0487  0.0784  0.1394
 2089W        W18563  10.621   7.416  13.175 -0.1098  0.1733  0.4279
 2090W        W18564  17.003  15.612   0.018 -0.0730 -0.2543  0.1453
 2091W        W18565  11.840  10.971   4.394 -0.1647  0.0449  0.1089
 2092W        W18566  17.037   9.397  11.757 -0.0652 -0.3023  0.0505
 2093W        W18567   2.136   6.455  10.715 -0.0661 -0.4105  0.1548
 2094W        W18568   5.272  13.787   3.244  0.0637 -0.1291 -0.3603
 2095W        W18569   1.563  18.801   4.429  0.1688  0.0121 -0.1052
 2096W        W18570   3.514   9.715   0.129 -0.2180  0.1219 -0.0663
 2097W        W18571  15.815   7.871  13.626 -0.2850  0.1286 -0.3145
 2098W        W18572   3.692  13.937   9.849  0.2322  0.0065 -0.1991
 2099W        W18573   3.983   4.306   0.650 -0.5006  0.5241  0.0926
 2100W        W18574  10.485  12.139  14.404  0.0600  0.2739  0.2588
 2101W        W18575   0.153   3.356   2.022 -0.3576  0.4052 -0.2952
 2102W        W18576  15.305   1.335   3.960 -0.0553 -0.1296 -0.3607
 2103W        W18577   1.246  12.336  12.669  0.1789  0.3031  0.2636
 2104W        W18578  18.431  15.926  11.548  0.0306  0.2903 -0.2087
 2105W        W18579  15.337  12.957   0.306 -0.3986  0.0216 -0.0889
 2106W        W18580  11.071   5.802  13.294 -0.0155 -0.0391  0.0439
 2107W        W18581  14.194  12.303   2.860  0.3097  0.0788 -0.2298
 2108W        W18582   5.918  10.143   3.997  0.0464 -0.1106 -0.0911
 2109W        W18583   9.271   5.835   3.579 -0.0565  0.0168  0.1306
 2110W        W18584   3.291  17.793  13.001 -0.1918  0.3205  0.1968
 2111W        W18585  15.116   9.110  11.078  0.1081 -0.1011  0.2378
 2112W        W18586   9.239  15.377   1.098 -0.0859 -0.0281 -0.4354
 2113W        W18587   1.649   6.487  13.124 -0.0066  0.0699 -0.1640
 2114W        W18588   5.585   1.328  13.166 -0.4631 -0.0538  0.2527
 2115W        W18589  12.973  18.986  10.929 -0.2852 -0.2017 -0.2104
 2116W        W18590   2.307  14.071  12.537  0.2213  0.3037  0.3903
 2117W        W18591  14.448   8.216   4.326 -0.0605  0.1587  0.5395
 2118W        W18592  15.071  16.164   0.526  0.1353  0.0897  0.1369
 2119W        W18593  18.153  12.015  10.578 -0.1293 -0.1376  0.2695
 2120W        W18594  14.627   3.157   1.509  0.1107  0.2909  0.1788
 2121W        W18595   6.433  15.253  10.422 -0.0847 -0.1463  0.0013
 2122W        W18596   2.751   6.045   5.235 -0.4144  0.2209 -0.0229
 2123W        W18597   2.616  17.931  13.508 -0.1673  0.0016  0.1118
 2124W        W18598  12.883  14.586   4.736  0.0788 -0.0575 -0.0907
 2125W        W18599  15.842  18.739  10.585 -0.3514  0.2876  0.1196
 2126W        W18600  17.136   2.527   2.035  0.3183 -0.1867  0.1549
 2127W        W18601  18.847  11.938   0.081  0.1730  0.3028 -0.4860
 2128W        W18602   8.860  10.791   2.894 -0.1696 -0.0958  0.0416
 2129W        W18603   0.419   5.100  14.463 -0.1760 -0.1213 -0.1338
 2130W        W18604   4.357   8.897   2.775 -0.0662  0.2563  0.1998
 2131W        W18605   5.360  15.465  12.906 -0.0985 -0.0038 -0.2019
 2132W        W18606  13.344   8.349  14.383 -0.0961  0.0296  0.1665
 2133W        W18607   6.889   8.219  13.895 -0.1490 -0.2156  0.0597
 2134W        W18608   0.521  13.076   4.237  0.1435  0.2849  0.1160
 2135W        W18609   4.040   2.403  13.057  0.2848 -0.0715 -0.0542
 2136W        W18610   9.745  15.075   2.432  0.2145 -0.1737  0.2968
 2137W        W18611  10.321  15.004   4.905 -0.0376 -0.0328  0.5670
 2138W        W18612  17.487  15.774  14.620 -0.4074 -0.3037  0.0428
 2139W        W18613  14.752  18.009  11.982 -0.2106 -0.2144 -0.0238
 2140W        W18614   5.964  17.682  13.690 -0.0493  0.0844  0.0296
 2141W        W18615  17.747   3.475   1.551 -0.5661 -0.1614  0.2894
 2142W        W18616   5.536   5.368   9.470  0.1060 -0.4023  0.0681
 2143W        W18617   3.967  18.105  13.352  0.0789  0.1487 -0.0552
 2144W        W18618   5.388  12.715   4.207  0.3338 -0.1700 -0.0330
 2145W        W18619   1.276   0.021   0.752  0.0146 -0.0000 -0.0224
 2146W        W18620  15.476  19.507   9.027  0.1922 -0.0239  0.2756
 2147W        W18621  17.706  18.467   9.449  0.0804 -0.0744 -0.3501
 2148W        W18622   8.664   6.680  11.229  0.1303 -0.3494 -0.1349
 2149W        W18623   7.629  17.682  14.375 -0.2524  0.1288 -0.3375
 2150W        W18624  19.277  10.916   4.135  0.1777  0.1163 -0.1181
 2151W        W18625  12.037   4.435   4.633 -0.3246 -0.0234  0.0618
 2152W        W18626   0.632   3.884  12.547  0.3590  0.3791 -0.0237
 2153W        W18627   1.093   7.991   0.526  0.1722 -0.1602 -0.0001
 2154W        W18628   6.769  13.318  10.610 -0.1577  0.2662  0.3328
 2155W        W18629  11.474   3.127   3.463  0.1295  0.1088  0.1308
 2156W        W18630   0.976  11.299  13.384 -0.1912  0.1642 -0.2263
 2157W        W18631  11.521  19.199   0.399  0.0683  0.0679 -0.0076
 2158W        W18632  19.576   6.019  11.573  0.2065  0.2273  0.1044
 2159W        W18633   5.790  10.162   5.317 -0.1236  0.1495  0.1470
 2160W        W18634  19.514   4.537   1.230 -0.1055 -0.0829  0.0308
 2161W        W18635  17.828  16.139  13.521 -0.3686 -0.1575 -0.1037
 2162W        W18636   0.434   1.030   2.764  0.0076  0.0891 -0.0953
 2163W        W18637   7.744  13.209   1.233  0.0731  0.1980 -0.0564
 2164W        W18638  12.523  14.062   1.611 -0.5284 -0.1048 -0.0137
 2165W        W18639  16.258   6.702   9.492  0.1300 -0.3851  0.1462
 2166W        W18640   8.589   4.138  12.652  0.2132 -0.3115 -0.1369
 2167W        W18641  11.232   2.296   1.022 -0.2894 -0.1348 -0.2113
 2168W        W18642   9.739  11.338  12.699  0.0419  0.0913  0.0475
 2169W        W18643   6.493   9.037  14.082  0.1409  0.0991  0.0347
 2170W        W18644   6.673  19.136   4.007  0.0948 -0.1670  0.2470
 2171W        W18645   6.555  11.595  11.614 -0.0683  0.2218  0.1791
 2172W        W18646   1.507  18.857  11.618 -0.0007  0.2869  0.0331
 2173W        W18647  19.187   7.405   1.085  0.0372 -0.2355  0.1124
 2174W        W18648  10.391   2.008   2.016 -0.2919  0.0524 -0.4258
 2175W        W18649  17.540  17.390   1.489 -0.0222 -0.1051  0.0532
 2176W        W18650   2.606   1.698   5.369 -0.3560  0.4473 -0.1850
 2177W        W18651  14.364   9.307   3.769 -0.1352 -0.0661  0.1099
 2178W        W18652  15.871   9.043   0.741  0.0634 -0.1257 -0.2147
 2179W        W18653   3.421  12.323   5.177  0.0190  0.0661 -0.2860
 2180W        W18654  11.354  11.311   2.839  0.0240 -0.0452  0.0347
 2181W        W18655   6.065  11.873   0.617 -0.1936  0.2596  0.1211
 2182W        W18656   5.224  12.189   4.029  0.1363 -0.1427 -0.0282
 2183W        W18657   0.620  17.774  10.382  0.0641  0.1081 -0.1221
 2184W        W18658  11.894   9.292   2.816  0.4398  0.1848 -0.4488
 2185W        W18659   8.537   9.437   2.818  0.3201  0.2992 -0.0741
 2186W        W18660   3.367   0.010   3.478  0.0962  0.0580 -0.1894
 2187W        W18661  17.612  17.957   1.162  0.1972  0.3386  0.1181
 2188W        W18662  12.661  11.403   4.204 -0.0974  0.3318 -0.2731
 2189W        W18663   9.389   0.587   3.664  0.3742 -0.1102 -0.1306
 2190W        W18664  15.874  19.151   3.226  0.0422 -0.0692 -0.1337
 2191W        W18665  11.530   1.543   3.766  0.0327 -0.0022 -0.4385
 2192W        W18666   1.620   9.588  13.737 -0.0594  0.3391 -0.0856
 2193W        W18667   4.477   2.601   1.532  0.0401  0.0980 -0.3723
 2194W        W18668   9.363   9.342   3.371  0.0455  0.2565  0.2018
 2195W        W18669   0.163  12.175   2.495 -0.2639  0.2888  0.4643
 2196W        W18670   1.048   2.436  10.262  0.3040  0.0898  0.2796
 2197W        W18671   3.850   6.341  10.767  0.1511 -0.1040  0.1005
 2198W        W18672   4.753   2.052   5.468  0.0755  0.1853  0.0371
 2199W        W18673  10.418   4.635   4.566 -0.2983 -0.0005 -0.1879
 2200W        W18674   5.317  11.899   4.581  0.0937  0.0198 -0.1085
 2201W        W18675   7.570  13.705   3.832 -0.0444 -0.0314  0.2342
 2202W        W18676   7.210   7.853   3.063  0.1495  0.3190 -0.2002
 2203W        W18677   3.802   9.528  11.763  0.2203 -0.2115 -0.0575
 2204W        W18678   1.548   9.172  14.029 -0.1353  0.2356  0.0447
 2205W        W18679   5.920   2.924   2.089  0.2028 -0.1555 -0.3954
 2206W        W18680   6.212  16.161   2.985  0.2136  0.0575  0.4079
 2207W        W18681  10.929   3.046  13.098  0.0346 -0.0479  0.0661
 2208W        W18682   0.736  12.555   1.924  0.5017  0.2930  0.1245
 2209W        W18683   6.504  18.497   0.280  0.1160  0.0986 -0.0061
 2210W        W18684  10.434   2.451  10.796 -0.0583 -0.1397 -0.2077
 2211W        W18685  10.777   3.912   4.729  0.0161 -0.1852 -0.1474
 2212W        W18686  10.935  10.997  11.852 -0.0243  0.0572  0.0892
 2213W        W18687  13.163  18.459   2.584  0.0239  0.0957 -0.1069
 2214W        W18688   0.482  16.637  13.356 -0.0956  0.1542 -0.0990
 2215W        W18689  17.474  11.995   0.034 -0.2011 -0.3273  0.2708
 2216W        W18690   7.906  12.379   3.568 -0.0743 -0.1963 -0.3741
 2217W        W18691  16.828  13.464   3.822 -0.0098 -0.3583 -0.1346
 2218W        W18692  12.473  13.094  12.783  0.0851  0.0727 -0.0314
 2219W        W18693   4.330   9.517   2.098 -0.0395  0.2591  0.1874
 2220W        W18694   7.620  12.164   0.170 -0.2822 -0.1430  0.2694
 2221W        W18695  13.572  17.321  14.077 -0.2858  0.1627 -0.1414
 2222W        W18696   5.022  16.537  11.119 -0.2543  0.2895 -0.0502
 2223W        W18697  18.052   0.299   4.148 -0.3877  0.2171 -0.1953
 2224W        W18698   6.081   7.989   4.591 -0.2389 -0.0041  0.2327
 2225W        W18699   5.200  18.857  12.441  0.1992  0.2386  0.1080
 2226W        W18700  19.101   1.122   4.948 -0.0908 -0.0191  0.2967
 2227W        W18701   8.873   4.552  10.844  0.1789 -0.3380  0.1578
 2228W        W18702  13.071  12.177  11.591  0.0713  0.1879  0.0342
 2229W        W18703   2.853  10.592  13.836 -0.2465  0.3781  0.1163
 2230W        W18704  13.786  10.940  12.767 -0.1603  0.0585  0.3019
 2231W        W18705  16.643   4.973   3.866  0.0349 -0.1762  0.0906
 2232W        W18706   0.168   3.713   2.874  0.1620 -0.0741 -0.1166
 2233W        W18707   1.454   6.377   4.151  0.0716 -0.1669  0.0839
 2234W        W18708  13.827   5.110   5.741  0.1491 -0.4762  0.0847
 2235W        W18709   2.192   5.312  13.108 -0.0425 -0.0958  0.1508
 2236W        W18710   9.914  16.132   1.281  0.1059  0.0824  0.0875
 2237W        W18711   9.662  16.457   4.278  0.2502  0.1262  0.2195
 2238W        W18712  13.154  13.456   3.867  0.0176 -0.1617 -0.0274
 2239W        W18713   9.445  14.904   0.389  0.0867 -0.1138 -0.0390
 2240W        W18714   0.552   5.415   4.018  0.2232 -0.2179 -0.2538
 2241W        W18715   9.165   4.662   3.032  0.1259  0.2322 -0.2332
 2242W        W18716   8.432  12.651  11.995  0.0262 -0.3027 -0.0795
 2243W        W18717   5.402  13.510   2.167  0.1163  0.0229 -0.0858
 2244W        W18718   5.879  19.086   0.736 -0.1741  0.0877  0.0669
 2245W        W18719  12.976  13.935   4.024  0.4918  0.3180  0.1649
 2246W        W18720   4.097  13.452  11.905 -0.3751 -0.2420 -0.2179
 2247W        W18721  17.447   5.182   0.393 -0.0269 -0.3035 -0.2487
 2248W        W18722  16.757   0.458   3.607 -0.4355  0.2100 -0.1847
 2249W        W18723  13.348  15.534   0.400 -0.1987  0.0188 -0.2487
 2250W        W18724  19.108   7.791   3.338  0.0702 -0.0059  0.3032
 2251W        W18725  14.607  14.219  10.972 -0.2349  0.0853 -0.1641
 2252W        W18726   8.458  11.043  13.461  0.0760 -0.0433  0.0916
 2253W        W18727  10.936   3.136   2.596 -0.0334 -0.0249  0.2309
 2254W        W18728  14.020  10.710  13.196  0.0450  0.1426  0.0410
 2255W        W18729  11.808  15.369  13.400  0.1607  0.3440 -0.1969
 2256W        W18730  16.430  12.526   0.054 -0.1002 -0.0566  0.1262
 2257W        W18731  10.700  18.012   3.453 -0.1924 -0.1217  0.2104
 2258W        W18732  19.454   1.137  10.873  0.0292 -0.1914 -0.1614
 2259W        W18733   9.952   0.850   0.843 -0.1204  0.2757  0.2854
 2260W        W18734   5.769  16.038  12.933 -0.1709 -0.1868 -0.1934
 2261W        W18735  18.887  11.681  10.503  0.2402 -0.5396 -0.1742
 2262W        W18736   4.802  14.383  12.696  0.1172 -0.0191 -0.1027
 2263W        W18737  16.832   9.670  10.539  0.2615 -0.0828  0.3978
 2264W        W18738  12.001   7.975   3.654  0.0068  0.0342 -0.2398
 2265W        W18739  12.843  13.667   4.434 -0.0149 -0.1147 -0.0288
 2266W        W18740  17.131  14.450  10.829  0.0966  0.0500  0.1649
 2267W        W18741  10.831   1.305   4.428 -0.0392 -0.3497 -0.0543
 2268W        W18742  19.579  13.005   3.553 -0.2235  0.0994  0.1945
 2269W        W18743   0.599   4.412  10.708  0.0416 -0.1407 -0.2952
 2270W        W18744   3.032  11.835  10.304 -0.1308  0.1807  0.1617
 2271W        W18745  11.067   3.743  13.361  0.2089 -0.1331 -0.2782
 2272W        W18746   6.013  14.792  11.571 -0.2030  0.0343 -0.0744
 2273W        W18747  15.899   1.601  13.412  0.0513  0.2861  0.0073
 2274W        W18748   0.714   5.150   1.972  0.1033 -0.1571  0.5073
 2275W        W18749  14.336   7.416   5.452  0.3293  0.2284  0.2363
 2276W        W18750  11.018  15.947  10.261  0.1831 -0.0502 -0.1515
 2277W        W18751  15.090  15.876  10.401 -0.1132 -0.1476 -0.1099
 2278W        W18752   2.386   2.483  12.321 -0.0916 -0.3738 -0.0082
 2279W        W18753   5.725   3.200  12.951 -0.0982 -0.1949 -0.1154
 2280W        W18754   1.439   0.456   1.064 -0.1837  0.0193  0.0529
 2281W        W18755  17.970   0.763  12.731  0.1891  0.0842 -0.0215
 2282W        W18756  18.587   8.014   2.248  0.1751 -0.4918 -0.0941
 2283W        W18757   1.951   5.233  10.417 -0.2291  0.1007  0.2675
 2284W        W18758  10.549  11.646  12.586 -0.0456 -0.4881  0.1836
 2285W        W18759   7.757  15.727  11.173  0.0106  0.0632  0.0308
 2286W        W18760   9.152  12.272   1.317 -0.2588 -0.0494  0.0294
 2287W        W18761   0.775  13.428  11.947  0.1762  0.1027 -0.0583
 2288W        W18762  17.324   7.318   9.437  0.3698  0.2407  0.0313
 2289W        W18763   4.207  15.433   3.843  0.2355  0.0644  0.0263
 2290W        W18764  13.225  13.759  14.484  0.1652  0.0311 -0.0121
 2291W        W18765   5.956  11.177  13.823  0.2826  0.0708  0.1368
 2292W        W18766   1.865  14.166  13.473  0.2038 -0.2018 -0.0514
 2293W        W18767   8.725  12.229  11.817 -0.0410  0.1445 -0.2338
 2294W        W18768  11.833  15.367  10.462 -0.2877  0.1903  0.0168
 2295W        W18769   1.799   8.692   3.706 -0.1376 -0.1949 -0.2449
 2296W        W18770   3.442  19.548   0.693 -0.0287 -0.0698 -0.0713
 2297W        W18771  13.181   2.396   2.083  0.0470  0.4865 -0.0557
 2298W        W18772  15.636   5.806   5.403  0.3469  0.6155  0.1682
 2299W        W18773  14.279   0.172   0.695 -0.0264 -0.1631 -0.3183
 2300W        W18774  19.365   9.938  14.268 -0.0869  0.0497  0.1323
 2301W        W18775   8.404   2.451   3.429 -0.2829  0.0463  0.3320
 2302W        W18776   5.334   3.976  12.289  0.1432 -0.0773 -0.2221
 2303W        W18777  13.029  13.756   3.488 -0.0757 -0.2672  0.2884
 2304W        W18778   8.997   6.362   2.974  0.3006 -0.1186 -0.0672
 2305W        W18779   1.424  13.613   1.044  0.0358 -0.0150 -0.3411
 2306W        W18780  17.453   8.469   2.469  0.1232  0.1366 -0.3449
 2307W        W18781  16.930  10.737  11.873 -0.1062 -0.0379 -0.4335
 2308W        W18782   7.928   6.144  14.053  0.0200 -0.3651 -0.0243
 2309W        W18783  14.175  12.429  11.362  0.0257 -0.0911 -0.0566
 2310W        W18784   2.056   4.123   4.979 -0.3706 -0.1937  0.2880
 2311W        W18785   4.574   1.011  11.595 -0.2870  0.1283 -0.4083
 2312W        W18786   7.622  12.853   4.412  0.3580  0.1683 -0.1931
 2313W        W18787  14.472   8.754   0.835 -0.0325 -0.1384 -0.1581
 2314W        W18788  11.820  14.760   1.489  0.0510 -0.1023 -0.1153
 2315W        W18789   7.490   1.415   4.176  0.0075 -0.1695 -0.2626
 2316W        W18790  17.524  17.470  12.123  0.0990 -0.1606  0.1367
 2317W        W18791   2.300  19.378  11.281 -0.1796 -0.0799  0.1610
 2318W        W18792  10.651  12.343   3.616 -0.0584  0.0276 -0.0062
 2319W        W18793  15.593  12.424  14.717 -0.2202 -0.0789  0.1377
 2320W        W18794  12.979  10.396  13.945 -0.3298  0.0400  0.0267
 2321W        W18795   3.693  13.292   1.085  0.0651  0.0022 -0.2205
 2322W        W18796   8.791  12.520   2.676  0.3609  0.4387 -0.0326
 2323W        W18797   3.397  18.160   4.491  0.0809  0.2713 -0.0633
 2324W        W18798  10.511  15.986   3.555  0.5472  0.0844  0.0439
 2325W        W18799   7.066  15.954  10.150 -0.1544  0.1476 -0.4096
 2326W        W18800  17.352  10.557  14.303  0.0201 -0.2887  0.0652
 2327W        W18801  17.712   8.112  11.160  0.2856  0.0629 -0.2263
 2328W        W18802  13.256  16.371  13.530 -0.4494 -0.1558 -0.0360
 2329W        W18803   3.352  13.004   1.404 -0.1605 -0.1227  0.1016
 2330W        W18804  18.407  11.596  11.564 -0.2455 -0.1054  0.0602
 2331W        W18805  17.675  15.944   0.308 -0.1167 -0.0709 -0.1157
 2332W        W18806   8.947  18.782  12.915 -0.0263 -0.3133 -0.4114
 2333W        W18807   2.035  10.478   1.801  0.4130  0.0638 -0.1002
 2334W        W18808   8.532  19.180  11.124 -0.4947 -0.0303  0.2333
 2335W        W18809   2.303  14.928  14.440  0.1573 -0.0717 -0.1429
 2336W        W18810  16.399  11.836   9.975  0.1299 -0.1038 -0.3003
 2337W        W18811  16.656  15.506  12.220  0.0153  0.1720  0.1921
 2338W        W18812   2.434   4.292   3.213  0.1081 -0.1461  0.2535
 2339W        W18813   5.121   5.227   1.698  0.3241 -0.0946 -0.2804
 2340W        W18814   1.527   3.955  10.690 -0.0062  0.1058 -0.6361
 2341W        W18815  19.483   8.604  12.220 -0.0967 -0.1980 -0.3303
 2342W        W18816  16.227  14.131   4.440  0.0336  0.3675 -0.1264
 2343W        W18817   8.340  19.120   4.174 -0.0533 -0.2571 -0.3864
 2344W        W18818   2.406   2.734   3.591  0.2437  0.4349 -0.3936
 2345W        W18819   1.431  15.083   4.846  0.0322 -0.3092 -0.1416
 2346W        W18820   4.825   1.148   0.743  0.1927  0.1766 -0.1109
 2347W        W18821   5.867  17.687   4.127 -0.1188  0.3063  0.3529
 2348W        W18822   8.658  14.007   3.718  0.0277  0.0237 -0.0147
 2349W        W18823   5.775  17.028  13.051 -0.4816  0.0528  0.0647
 2350W        W18824  15.043   2.360   1.083 -0.0927  0.2321 -0.0843
 2351W        W18825   9.292  11.703   0.133  0.1483 -0.2656 -0.2468
 2352W        W18826  17.689   7.026   3.886 -0.3255  0.0322 -0.1620
 2353W        W18827   1.021  11.719  11.132  0.4739  0.3992  0.0230
 2354W        W18828   0.437   9.405   3.489 -0.0677  0.3298  0.1583
 2355W        W18829   8.250  14.918   3.467 -0.2148 -0.2794 -0.1709
 2356W        W18830   7.802  19.007  10.916  0.0704 -0.0489  0.0307
 2357W        W18831   0.601   0.165  12.675  0.2755  0.0265 -0.1918
 2358W        W18832   4.399   6.616  11.731  0.4036 -0.0495  0.1361
 2359W        W18833   3.483  11.043   2.024  0.0966 -0.0952 -0.0897
 2360W        W18834  15.058  13.321   3.264 -0.1630 -0.1702 -0.1020
 2361W        W18835  13.250   8.727   2.515 -0.0604 -0.0312  0.1027
 2362W        W18836   7.273   6.692   2.424 -0.1531  0.0562 -0.0435
 2363W        W18837  16.947  15.716   2.235  0.0384  0.3453  0.1946
 2364W        W18838   8.492  17.188   9.473 -0.1013 -0.2627 -0.1920
 2365W        W18839   0.233  11.940   3.763 -0.0480 -0.4974 -0.0206
 2366W        W18840   5.525   2.000   3.320 -0.2865 -0.1905 -0.0621
 2367W        W18841   3.580  13.394   8.791 -0.0240 -0.0292 -0.1497
 2368W        W18842   6.783   4.453   1.632 -0.3352 -0.0880  0.1058
 2369W        W18843   2.129   3.869  12.578  0.2290 -0.1291 -0.0436
 2370W        W18844  15.364  12.534   1.790 -0.0675  0.0005 -0.1502
 2371W        W18845  15.712   8.951  11.954  0.3183 -0.1152  0.0620
 2372W        W18846   4.575   1.059  10.580  0.2465 -0.5425  0.0227
 2373W        W18847  17.481  14.264  11.187 -0.1091  0.0788 -0.0679
 2374W        W18848   7.724   2.235  13.375 -0.1087  0.2868  0.2313
 2375W        W18849  10.420  18.463  14.694 -0.1367 -0.2702 -0.1583
 2376W        W18850  15.694   4.338  11.952 -0.0325  0.0440  0.1148
 2377W        W18851   7.693   1.279   3.373  0.0724 -0.0431 -0.2526
 2378W        W18852  11.007  11.484   4.575 -0.1738  0.1494 -0.1717
 2379W        W18853  10.713   9.147  14.307 -0.2308 -0.0950 -0.0332
 2380W        W18854  10.116  10.238   2.180 -0.0177  0.0963 -0.1252
 2381W        W18855   4.430  11.137  11.947  0.2355 -0.0611 -0.1136
 2382W        W18856   0.427   7.504   5.387 -0.0486 -0.2328 -0.2202
 2383W        W18857   7.277  19.550  14.208  0.0097 -0.1661  0.1218
 2384W        W18858   7.060   0.476  13.240  0.0348  0.0003  0.0575
 2385W        W18859   0.343  15.547   2.223  0.0764  0.0373  0.2591
 2386W        W18860  18.884  11.226   0.695 -0.1754  0.2376  0.1013
 2387W        W18861  10.834  17.847  11.475  0.1734  0.0370  0.1326
 2388W        W18862   1.029   2.507   0.261  0.0837  0.1000 -0.0602
 2389W        W18863   1.876  17.919  14.314  0.2859  0.0024 -0.1045
 2390W        W18864   8.392   7.383  14.242 -0.1912  0.0476 -0.2933
 2391W        W18865   3.295   6.236   5.456  0.0596 -0.3280 -0.0215
 2392W        W18866  14.842  16.333   3.214 -0.1444  0.0965  0.2833
 2393W        W18867   3.048  11.688  14.575 -0.1159 -0.1490  0.3384
 2394W        W18868  10.595  13.586   0.469 -0.2676 -0.2285 -0.0385
 2395W        W18869   2.220  14.764   2.799  0.1456 -0.1529  0.2458
 2396W        W18870  10.031   5.101   2.895 -0.1654 -0.1043  0.1156
 2397W        W18871   5.020   4.603   2.928 -0.0532 -0.3144 -0.1304
 2398W        W18872  15.521  10.077   4.345  0.0818 -0.0044 -0.0881
 2399W        W18873  18.415   7.487   2.278 -0.1697  0.1365  0.3291
 2400W        W18874   3.717   9.578   4.295 -0.1782  0.3231 -0.0887
 2401W        W18875   2.554   6.131   3.284  0.1292 -0.1125  0.0119
 2402W        W18876  15.913   7.381  12.057 -0.1052 -0.4895 -0.3272
 2403W        W18877   0.626   1.337   1.001  0.4516  0.1519  0.4785
 2404W        W18878  11.196   6.278   4.720 -0.1823  0.0970  0.0747
 2405W        W18879  11.318   5.277  13.326 -0.2140  0.1711  0.0295
 2406W        W18880  17.699   5.124   4.853  0.1657 -0.3341  0.0808
 2407W        W18881  19.367  15.086  14.305 -0.0389 -0.2067  0.1340
 2408W        W18882  11.325  13.964   1.328  0.0607 -0.0628  0.0999
 2409W        W18883   1.370   4.348  10.243  0.0145 -0.0035  0.0993
 2410W        W18884  17.884   5.716  13.167 -0.1163 -0.1672 -0.1285
 2411W        W18885   9.824   0.905  13.670 -0.0041  0.0059  0.1405
 2412W        W18886   2.628   4.895   0.259 -0.1350 -0.1599  0.3451
 2413W        W18887  12.087  12.924   4.557  0.1939 -0.0203 -0.0671
 2414W        W18888   5.752   0.062   1.554  0.1501  0.1005 -0.1048
 2415W        W18889  14.768   4.371   3.709 -0.0938 -0.0450  0.0114
 2416W        W18890  10.920  17.093   2.191  0.0013  0.0732  0.0713
 2417W        W18891  17.238  14.890   0.971 -0.4899 -0.0804  0.2258
 2418W        W18892  13.430   4.633  10.623 -0.0284 -0.2539  0.2560
 2419W        W18893   0.383   6.446   3.723  0.1106 -0.1007  0.0618
 2420W        W18894   1.702   0.933   0.912 -0.0665 -0.0571  0.1852
 2421W        W18895  14.904  19.449   1.943 -0.1593  0.0423 -0.1843
 2422W        W18896  12.410   5.117  11.653  0.4039  0.0784  0.1426
 2423W        W18897  13.570  10.176   5.262 -0.3516  0.0193 -0.0929
 2424W        W18898   2.718  16.408   9.698 -0.2166  0.1097  0.0980
 2425W        W18899  11.713   3.092  10.687 -0.0815  0.3446  0.0249
 2426W        W18900   3.811  11.443   0.746 -0.0570  0.1028  0.0197
 2427W        W18901  17.804  17.009  12.431  0.2798 -0.4174  0.0658
 2428W        W18902  18.098   4.356  11.233 -0.0087 -0.1891 -0.1919
 2429W        W18903  17.504  14.647  13.461 -0.1888  0.0474  0.2931
 2430W        W18904   6.661   2.901   0.323 -0.2307  0.0980 -0.0449
 2431W        W18905  13.293  17.416   2.197  0.3075  0.1989  0.0243
 2432W        W18906   7.134   6.036  14.309 -0.1265 -0.1844  0.0426
 2433W        W18907   7.898   3.546  14.420 -0.1018 -0.1919 -0.0213
 2434W        W18908   7.109  17.869   4.905  0.0075  0.0483  0.2814
 2435W        W18909   2.337  16.747  13.156  0.0063  0.2334 -0.1711
 2436W        W18910   1.816  15.275  11.808  0.4663  0.1116  0.0220
 2437W        W18911   8.270   0.551  11.596 -0.2472 -0.0985  0.3414
 2438W        W18912  15.703   2.422  13.262 -0.2179 -0.0615  0.1329
 2439W        W18913  12.595  14.933   3.780 -0.0434  0.1412 -0.1702
 2440W        W18914  17.101  15.820   2.749  0.2400  0.5330 -0.2561
 2441W        W18915  13.157   7.035  11.857 -0.1973 -0.0845  0.1189
 2442W        W18916   2.278  17.151  10.579  0.0386 -0.2269  0.3918
 2443W        W18917  11.415   8.224   0.303  0.3116 -0.2611 -0.2373
 2444W        W18918  19.255  10.021   3.905 -0.0142  0.0199  0.0893
 2445W        W18919  10.904  15.096   3.857  0.0454 -0.2928 -0.1503
 2446W        W18920  12.005   1.328  14.307 -0.0647 -0.1528  0.2489
 2447W        W18921   6.079   4.339  13.868 -0.2538 -0.0601 -0.4184
 2448W        W18922  19.124   5.852   3.670  0.0551 -0.0254  0.2323
 2449W        W18923   8.039   6.500   4.066  0.0016 -0.0159  0.0857
 2450W        W18924  14.885   2.469   4.887 -0.1493  0.1381 -0.2943
 2451W        W18925  18.206   9.452   3.794 -0.3220  0.1091  0.2518
 2452W        W18926  10.578  15.647  11.341  0.1909  0.1027  0.0339
 2453W        W18927   6.594  13.428  11.551 -0.0368 -0.3220 -0.1310
 2454W        W18928  13.187   6.446   1.361 -0.0158 -0.1226  0.0474
 2455W        W18929   2.512  13.671   1.503  0.0682 -0.4559  0.2282
 2456W        W18930   4.757  15.727   1.732 -0.0165 -0.2160 -0.5377
 2457W        W18931  17.601   5.560   4.531 -0.0492 -0.0388  0.0210
 2458W        W18932   5.164  12.235   3.521 -0.0751  0.2248 -0.0506
 2459W        W18933  10.678   4.626   1.820  0.0581 -0.1641 -0.0147
 2460W        W18934   2.106  11.996  10.025  0.0174  0.0088  0.0659
 2461W        W18935   9.394   0.544   2.776  0.3702 -0.3601 -0.2987
 2462W        W18936   6.203   3.031  14.281 -0.0986  0.1466  0.1436
 2463W        W18937  10.107   0.822  10.856 -0.2784  0.2469  0.1418
 2464W        W18938   0.669   6.689   1.204 -0.3670  0.0450  0.1957
 2465W        W18939   4.685   0.812  12.080 -0.2422 -0.0877  0.1799
 2466W        W18940  10.564  13.074   5.083  0.0960  0.0949  0.0231
 2467W        W18941   2.630  13.513   1.064  0.0527 -0.0498  0.4730
 2468W        W18942  16.600  18.294  10.511 -0.0174  0.0056  0.2311
 2469W        W18943  19.112  16.269   5.695  0.0783 -0.0149 -0.0983
 2470W        W18944  15.894  17.431  12.312  0.2635 -0.1516 -0.1267
 2471W        W18945   5.166  12.664  14.226  0.0529  0.0061  0.2152
 2472W        W18946   4.417   2.127   1.263 -0.3707  0.0162  0.0310
 2473W        W18947   9.963   0.559  11.810  0.2111  0.0324 -0.1616
 2474W        W18948  14.859  19.136   5.564 -0.1540 -0.3625 -0.1522
 2475W        W18949  13.425   0.620  13.437 -0.0306  0.0837 -0.2531
 2476W        W18950   1.793   8.677   5.574 -0.0731  0.0720 -0.0205
 2477W        W18951   3.387   1.871  14.358  0.2881  0.3565 -0.2065
 2478W        W18952  10.330  16.172  11.604 -0.4730 -0.0361  0.1773
 2479W        W18953   7.200  17.556   2.704  0.1095 -0.0390 -0.0645
 2480W        W18954   1.401   7.124   1.539  0.2385  0.1055  0.1186
 2481W        W18955   0.782   3.413   1.611  0.4987 -0.5467  0.3254
 2482W        W18956  18.792   2.018  14.209  0.2337 -0.2691 -0.1027
 2483W        W18957   1.040   4.709   2.099  0.2185  0.0367  0.0558
 2484W        W18958  11.013  11.564  11.963 -0.0821  0.0188  0.0780
 2485W        W18959   8.987   0.851   2.847 -0.1024 -0.1740  0.2871
 2486W        W18960   5.066  11.094   2.420  0.3046 -0.0197 -0.3120
 2487W        W18961   5.113   9.612  14.600  0.1232 -0.1121 -0.0484
 2488W        W18962  18.076  17.126   3.823 -0.2706  0.0806  0.1085
 2489W        W18963   9.007  18.856   0.916 -0.0312 -0.3344  0.1396
 2490W        W18964  18.027   6.687   0.689  0.1249  0.2303  0.0101
 2491W        W18965   9.971  15.010   0.417 -0.1816 -0.0169 -0.1932
 2492W        W18966   3.073  10.835  12.008 -0.0833 -0.6440 -0.1861
 2493W        W18967   2.537  16.190   5.173 -0.0209 -0.2237 -0.2192
 2494W        W18968   8.190  10.837   0.373 -0.0748 -0.0631  0.5113
 2495W        W18969  17.295   2.238   1.538 -0.0358 -0.1903  0.1628
 2496W        W18970   3.570  17.534  13.933 -0.2328 -0.2602 -0.0406
 2497W        W18971  16.773   5.094   0.719  0.0756 -0.0555 -0.1748
 2498W        W18972   5.360   6.767  14.499  0.2690 -0.2357  0.3217
 2499W        W18973  11.783   0.429   3.933 -0.0925 -0.3207 -0.1035
 2500W        W18974  13.682   2.333   4.142  0.1550 -0.2367  0.1536
 2501W        W18975   7.718   6.733   4.440 -0.3130  0.3369 -0.4237
 2502W        W18976   0.783  14.841  13.601 -0.0987  0.0368 -0.2549
 2503W        W18977  10.019  16.115   2.586 -0.2431  0.1457 -0.3252
 2504W        W18978   2.162   3.775  13.358  0.1331 -0.0096  0.1034
 2505W        W18979   1.904  11.564  14.496  0.3407  0.1906  0.1103
 2506W        W18980   9.227   4.564   4.032  0.2299  0.0405 -0.3360
 2507W        W18981  13.505  11.261   5.160 -0.2399 -0.0762  0.1082
 2508W        W18982   2.742  14.430  13.235 -0.1223 -0.1536 -0.0571
 2509W        W18983   9.601  16.956   4.220  0.0444 -0.1300  0.2653
 2510W        W18984   2.514  18.138   5.224  0.1877 -0.1752 -0.1990
 2511W        W18985  15.175   8.193  11.570  0.0588  0.1465 -0.0717
 2512W        W18986  11.576   6.931   1.635  0.0774  0.2945 -0.2532
 2513W        W18987   0.876  19.520  11.663  0.1570  0.0099  0.3162
 2514W        W18988   4.541  12.313   3.320  0.0864 -0.0311  0.1043
 2515W        W18989   3.683   3.053   0.356  0.1577 -0.2033  0.1101
 2516W        W18990  17.266  13.208  11.181 -0.1665  0.2142 -0.1125
 2517W        W18991   3.918  10.497  12.439 -0.1004  0.2450 -0.1970
 2518W        W18992  19.571   3.057  13.216  0.3287 -0.2061 -0.0529
 2519W        W18993  14.139  12.875  10.591  0.1246  0.0723 -0.0442
 2520W        W18994   4.815  16.052   8.980  0.0150  0.1518  0.1160
 2521W        W18995  12.896   3.318   2.272 -0.1743  0.0694  0.1111
 2522W        W18996  13.177   5.954  11.282  0.0484  0.1500  0.2303
 2523W        W18997  11.953   1.766   0.830 -0.1041  0.0535  0.0780
 2524W        W18998  12.096  12.318  13.448  0.2361  0.1887  0.0424
 2525W        W18999   9.845   9.103   5.583 -0.0603 -0.0214  0.3842
 2526W        W19000  11.322   6.938   5.247  0.0999  0.2750 -0.3702
 2527W        W19001   6.065   9.668  10.909  0.3155  0.1228  0.1750
 2528W        W19002   2.100   7.024  11.759  0.0576 -0.2060  0.1469
 2529W        W19003   5.569  19.473   0.701 -0.2634 -0.3305  0.2982
 2530W        W19004  17.987   8.431  12.092  0.3009 -0.1983 -0.2135
 2531W        W19005  12.743   3.151   1.116 -0.0601 -0.3768  0.3851
 2532W        W19006  10.498  10.046   1.960 -0.0981  0.3728 -0.1085
 2533W        W19007   6.036  10.665   9.994 -0.0854 -0.1591 -0.1075
 2534W        W19008  13.973   0.608   5.419  0.0113  0.0624 -0.1861
 2535W        W19009  13.190   5.299   2.151  0.3500  0.0077  0.1174
 2536W        W19010   4.058  12.117   4.211 -0.0458  0.3524 -0.0805
 2537W        W19011   3.962  15.692   4.279 -0.1323  0.1270 -0.1190
 2538W        W19012  10.520   7.155   4.146 -0.0810  0.0636 -0.0258
 2539W        W19013  18.286   5.241   4.925 -0.0487 -0.1563 -0.0710
 2540W        W19014   5.872  13.333  13.908  0.2454 -0.2087  0.1470
 2541W        W19015   0.321   6.721   3.092 -0.1146  0.0709  0.1476
 2542W        W19016  18.481   8.338   4.526 -0.2540 -0.2548 -0.0206
 2543W        W19017  18.000  18.390  13.118 -0.0297 -0.0224 -0.0899
 2544W        W19018   6.833  10.239   0.535  0.2044 -0.1617  0.0755
 2545W        W19019   1.890   4.424   4.497  0.0353 -0.1567  0.0952
 2546W        W19020  16.986   3.524  10.558  0.0128  0.0628  0.0807
 2547W        W19021   7.202   8.288  13.250  0.3890  0.1179 -0.0420
 2548W        W19022   1.759   5.353   0.639 -0.1543  0.1097 -0.0700
 2549W        W19023  14.397   0.983  10.320  0.1970 -0.2248 -0.2871
 2550W        W19024   9.588  17.374   2.634  0.2321  0.3508 -0.3790
 2551W        W19025   0.608  11.249   1.603 -0.1032 -0.1589 -0.1962
 2552W        W19026  12.567   2.199  13.573 -0.1481  0.4020  0.0900
 2553W        W19027  11.629  14.678  12.682  0.1814 -0.1053  0.2930
 2554W        W19028  14.739  17.601   2.212 -0.1302 -0.1015 -0.2269
 2555W        W19029  17.491   2.587  14.054 -0.0494  0.0064  0.0586
 2556W        W19030  10.573   1.009  10.826  0.1169  0.0045  0.0293
 2557W        W19031   3.926   2.246   2.243  0.3170  0.2727  0.2073
 2558W        W19032  16.577  10.869  10.552 -0.1095 -0.1641  0.0854
 2559W        W19033  16.208  11.560  12.982 -0.1833  0.0282  0.0382
 2560W        W19034  14.854   1.298  11.616 -0.0775 -0.1372  0.0144
 2561W        W19035  10.017   3.923  11.906 -0.0543 -0.0316  0.1288
 2562W        W19036  10.299   4.379  11.993  0.2625  0.1804 -0.0116
 2563W        W19037   9.152  10.735  12.852  0.1565  0.2312  0.0420
 2564W        W19038  11.254   2.117   0.035 -0.1674  0.2589  0.1361
 2565W        W19039   8.930   9.051  10.856  0.1098 -0.0730 -0.1376
 2566W        W19040  18.793  10.265   4.050  0.2465 -0.3096 -0.2333
 2567W        W19041   9.612  14.666   3.848  0.2708 -0.3079  0.2119
 2568W        W19042   1.321  10.240  12.511  0.3156  0.1252 -0.1116
 2569W        W19043   4.298  17.490   2.039 -0.0024  0.1888  0.0562
 2570W        W19044   9.668   1.350   0.879  0.0067  0.0203 -0.1960
 2571W        W19045   8.757   7.151   2.305 -0.1521 -0.0556 -0.2938
 2572W        W19046   4.860  16.741   4.083 -0.1751  0.2662 -0.1160
 2573W        W19047  13.219   3.897   0.444  0.2637 -0.0224  0.0511
 2574W        W19048  10.678   1.791   3.235 -0.1212  0.0374 -0.0194
 2575W        W19049  16.865  13.782   3.374  0.2819 -0.0056  0.2624
 2576W        W19050  12.806   0.670  12.288  0.1137  0.0933 -0.1574
 2577W        W19051   2.832  19.438  12.286 -0.1659  0.2003 -0.3349
 2578W        W19052  14.756   8.229   3.373 -0.3610  0.0984 -0.0096
 2579W        W19053  16.486  11.222   1.134 -0.0614 -0.1699 -0.2451
 2580W        W19054  18.756   6.164  12.076  0.0880 -0.0254 -0.2796
 2581W        W19055   5.313  10.397   9.642  0.2925  0.2174 -0.0423
 2582W        W19056   8.813   3.333  13.059 -0.0769 -0.1100 -0.0577
 2583W        W19057   2.772  16.614   4.961 -0.0265 -0.0111  0.3378
 2584W        W19058  18.854   4.785  12.248  0.1149  0.0373  0.3244
 2585W        W19059  19.029  16.512   1.922  0.0723 -0.0646 -0.0054
 2586W        W19060   3.703  10.331  14.365 -0.0354  0.2976 -0.0968
 2587W        W19061   7.074  12.117  14.219  0.1477 -0.2347 -0.3540
 2588W        W19062   0.619   5.877  12.450 -0.0418 -0.2692  0.0911
 2589W        W19063   2.729   2.165  12.186 -0.0346  0.0536 -0.1067
 2590W        W19064  13.852  14.469  14.139  0.2898  0.1501  0.0711
 2591W        W19065   3.239   5.478   0.068 -0.2147  0.2487  0.2454
 2592W        W19066   3.778   6.479   1.903 -0.0283  0.0685  0.2570
 2593W        W19067  15.867  13.550   0.801  0.0611  0.2001 -0.0571
 2594W        W19068  14.505  12.640   2.599 -0.3924  0.0455  0.0487
 2595W        W19069  15.305   6.917   3.537  0.2200  0.1000  0.0927
 2596W        W19070  14.370  12.182  13.517  0.2626 -0.0860  0.0575
 2597W        W19071  16.907   7.800  14.048 -0.2239 -0.2438  0.2509
 2598W        W19072   6.341  12.304  10.708 -0.1515  0.0987  0.0876
 2599W        W19073  15.561  10.326  12.851  0.0441 -0.1508 -0.0547
 2600W        W19074  11.835   6.142  12.733 -0.2999 -0.1189 -0.1920
 2601W        W19075   9.628   3.841   5.087  0.2117 -0.3912 -0.4151
 2602W        W19076   2.297   5.910   1.817 -0.1822  0.2463  0.1187
 2603W        W19077  13.424  18.240  11.993  0.2035  0.0162  0.1649
 2604W        W19078  12.292   2.014   5.559 -0.0835  0.0147 -0.5203
 2605W        W19079  16.855   7.524  14.496 -0.4621  0.0264  0.2165
 2606W        W19080  18.157  15.524   1.470  0.1802 -0.0328 -0.1382
 2607W        W19081   7.158   3.767   2.915  0.0719  0.1324 -0.0694
 2608W        W19082   6.825  18.509  12.761 -0.1541  0.5085 -0.2559
 2609W        W19083  13.917  17.900  13.976 -0.0807 -0.4057 -0.0335
 2610W        W19084   5.333  19.033  10.607  0.0985 -0.1545  0.0807
 2611W        W19085  15.308   5.802   0.234  0.2378  0.6438  0.1987
 2612W        W19086   3.311   0.678   3.115  0.0179 -0.1402  0.0641
 2613W        W19087  14.348  17.023  13.641 -0.1178  0.0171  0.1736
 2614W        W19088   1.826   7.178  12.541  0.0717 -0.2607  0.1036
 2615W        W19089  18.799   4.111   3.722 -0.1782  0.1967  0.0431
 2616W        W19090  16.283  15.950   1.560 -0.2693 -0.0049 -0.2788
 2617W        W19091   3.827  12.844   2.553 -0.0108 -0.0532 -0.2794
 2618W        W19092   8.968  17.342   3.435  0.0594 -0.1701 -0.1617
 2619W        W19093   7.509  11.390  11.659 -0.1837 -0.1709 -0.2029
 2620W        W19094   8.237  17.757   3.732 -0.1844  0.3562  0.0962
 2621W        W19095  15.052  16.522   0.201  0.3570 -0.1194 -0.0155
 2622W        W19096   9.422  18.330  12.802 -0.2585  0.1711  0.2014
 2623W        W19097  14.757   9.473  11.013  0.1626  0.1165 -0.2128
 2624W        W19098  13.602  10.574   2.332 -0.2099  0.1180 -0.1078
 2625W        W19099  17.099   2.879  13.255 -0.0043 -0.0092  0.1602
 2626W        W19100  11.486   3.646  13.535  0.2246  0.1975  0.0946
 2627W        W19101   6.352   8.299  11.574 -0.1974 -0.0260 -0.1722
 2628W        W19102   2.877  16.727   4.373 -0.1782 -0.2700  0.1206
 2629W        W19103  13.442  11.487   4.503 -0.2935 -0.3642  0.0530
 2630W        W19104  13.688   5.473   2.352  0.1157  0.1009  0.1755
 2631W        W19105  13.951   8.880   3.895 -0.0177 -0.3522 -0.1711
 2632W        W19106   4.587  18.779   2.890 -0.1972 -0.0210 -0.2868
 2633W        W19107   6.206  16.720  14.689 -0.1463  0.3114 -0.2045
 2634W        W19108   7.373  15.366  13.967 -0.2833 -0.0873 -0.0490
 2635W        W19109  11.803   7.099   4.202 -0.2788  0.0558  0.4525
 2636W        W19110  11.388   0.932  13.654 -0.0955  0.0170  0.0115
 2637W        W19111  14.042  18.321  12.723  0.0472  0.0514 -0.1812
 2638W        W19112   9.100  12.424   0.843 -0.0979 -0.0059 -0.1321
 2639W        W19113  18.985  17.632  12.897 -0.0171  0.1962 -0.0936
 2640W        W19114   3.506  14.964   0.500 -0.0876 -0.2422  0.3036
 2641W        W19115  15.731  17.957   0.137  0.1448  0.0670 -0.0335
 2642W        W19116   8.434   1.771  13.736  0.0752 -0.1222  0.1219
 2643W        W19117  13.593   6.003   4.034  0.1371 -0.0159 -0.0250
 2644W        W19118  19.236  10.825  13.269  0.2546  0.0207 -0.0507
 2645W        W19119  16.819   7.162  10.387 -0.2870  0.4093 -0.2392
 2646W        W19120   9.935   3.991   4.578  0.2433 -0.1330 -0.2104
 2647W        W19121  10.549  12.571   5.880  0.3672 -0.2550 -0.2458
 2648W        W19122  14.628   4.030  12.586 -0.0741  0.1941  0.2313
 2649W        W19123  14.267   1.158  11.536  0.1534  0.1595  0.2420
 2650W        W19124   0.209   4.163  12.049  0.1927  0.0547  0.2132
 2651W        W19125   5.574   2.535  10.526 -0.2808 -0.1211  0.1762
 2652W        W19126   5.744   8.264   3.821 -0.0872 -0.0115 -0.0204
 2653W        W19127   0.124   6.675  13.280  0.5369 -0.0816 -0.0909
 2654W        W19128   2.854  14.525  11.964 -0.1247 -0.1070  0.4685
 2655W        W19129   7.808   2.010  10.294  0.0734  0.2961  0.3532
 2656W        W19130   6.076  16.501   9.762  0.0831  0.1485 -0.2827
 2657W        W19131   8.503   8.137  11.808 -0.0278 -0.1586 -0.2750
 2658W        W19132   9.407   2.374   3.405 -0.0509  0.2151  0.1228
 2659W        W19133  14.253   3.760  11.436 -0.0237  0.2305  0.1555
 2660W        W19134   5.605  18.002  12.841  0.0666 -0.2867  0.3073
 2661W        W19135  18.700   1.066  13.334  0.3344  0.3198  0.0796
 2662W        W19136   3.837  18.586  13.343  0.0614 -0.3720  0.0315
 2663W        W19137   3.012   0.585  10.610 -0.1464 -0.1344  0.0655
 2664W        W19138  11.859  19.330  12.012  0.3615  0.2625  0.5701
 2665W        W19139   6.705  16.539  11.794 -0.1565  0.0049 -0.1050
 2666W        W19140  11.791  18.571  12.294 -0.1522 -0.2510 -0.0134
 2667W        W19141   4.592   9.546  14.443  0.0380 -0.2369 -0.0800
 2668W        W19142   9.626  14.499  12.265 -0.1102  0.1773  0.3380
 2669W        W19143  10.501   9.577   2.141 -0.1774  0.3180 -0.0897
 2670W        W19144  18.128  18.131   1.761 -0.2025 -0.4106 -0.0015
 2671W        W19145   5.883  12.597  14.536  0.0377 -0.1397  0.1387
 2672W        W19146   8.755   8.986   0.843  0.1280 -0.2698  0.0935
 2673W        W19147   7.323   8.520   4.208  0.3046 -0.0920  0.0783
 2674W        W19148  14.420   7.402  14.379 -0.1375 -0.0398 -0.2771
 2675W        W19149  16.058   4.433   4.098 -0.0897 -0.3210 -0.0834
 2676W        W19150   7.437  18.512   4.309  0.0991 -0.0085  0.4753
 2677W        W19151  14.158   7.942  11.616  0.0720  0.0538 -0.0263
 2678W        W19152   0.543  12.542   1.110  0.1576  0.2138  0.1497
 2679W        W19153  12.251  13.702  11.230 -0.0360  0.1335 -0.3230
 2680W        W19154   1.786   3.535   2.058  0.0887 -0.1275 -0.1580
 2681W        W19155  16.288  17.295  10.633 -0.0849 -0.0813  0.1846
 2682W        W19156  15.162  10.704  12.520  0.2612 -0.0184 -0.1469
 2683W        W19157   0.101  16.922  10.167 -0.0386  0.4075  0.0508
 2684W        W19158   3.721  19.079   0.229  0.2486 -0.4385 -0.0689
 2685W        W19159   7.236  16.375  14.153  0.0516  0.0577  0.0495
 2686W        W19160   4.263  13.025  12.162  0.2894  0.1160 -0.1392
 2687W        W19161   4.346  18.819   3.828  0.1342  0.0790  0.1730
 2688W        W19162  14.819   4.964  11.410 -0.3307  0.1184 -0.1935
 2689W        W19163  15.019  15.922   4.524  0.0616 -0.3876 -0.0057
 2690W        W19164  17.528  12.966   4.355  0.2569 -0.1837  0.0602
 2691W        W19165  19.482   6.651   2.766 -0.0230  0.1329  0.1196
 2692W        W19166  10.090  11.981   2.830 -0.1673 -0.0648 -0.2150
 2693W        W19167   7.334   5.601  13.099  0.1219 -0.0739  0.3739
 2694W        W19168   4.466  13.828  12.033  0.1450 -0.1121  0.1548
 2695W        W19169   5.744   1.957   5.088 -0.1081 -0.3040 -0.1145
 2696W        W19170  16.335  16.717  13.482 -0.1516  0.0392 -0.1995
 2697W        W19171  14.971   8.816   4.491  0.2578 -0.0049  0.0246
 2698W        W19172  16.981   9.545  12.635 -0.4304  0.0925 -0.0238
 2699W        W19173  10.929  15.096   2.387  0.3639 -0.1984  0.2368
 2700W        W19174   0.423   7.222  14.615  0.1758 -0.3144 -0.0832
 2701W        W19175   3.721  17.761   4.342 -0.0265  0.1131  0.2162
 2702W        W19176   2.740  14.018   3.744  0.1016 -0.1651  0.0791
 2703W        W19177  16.815  12.799  12.632 -0.0773 -0.0639  0.0594
 2704W        W19178  15.193   3.265   3.101  0.1269 -0.2049 -0.2941
 2705W        W19179   9.509   5.757   4.672  0.0085 -0.2163 -0.0408
 2706W        W19180  12.326   4.055   4.436 -0.0141 -0.2159  0.2154
 2707W        W19181   1.552   5.724  10.907  0.1753  0.2181 -0.0070
 2708W        W19182  18.950   3.186   3.891  0.3309 -0.1482 -0.0790
 2709W        W19183  15.832   8.579  13.017  0.1443  0.0203  0.1732
 2710W        W19184  10.299  11.963   3.618 -0.2711  0.0440 -0.0907
 2711W        W19185   5.937   0.614  14.115 -0.2017  0.0344  0.0344
 2712W        W19186   6.224  11.744  12.035  0.2288 -0.1242 -0.0567
 2713W        W19187   4.224   5.911   0.709 -0.3435  0.0574 -0.0482
 2714W        W19188   8.556   8.930  12.833  0.0431  0.1278 -0.1176
 2715W        W19189   8.952  19.516   3.638  0.0576  0.0347  0.1582
 2716W        W19190   1.715  16.544  10.334 -0.2579  0.2410  0.4528
 2717W        W19191   0.750   6.117   4.703  0.0419 -0.1278  0.1129
 2718W        W19192   9.752   9.921  11.279 -0.1681 -0.1002 -0.1808
 2719W        W19193  16.675   6.640   4.000  0.1398  0.0844  0.3638
 2720W        W19194  16.122  11.435  10.434 -0.0344 -0.4920  0.0231
 2721W        W19195   4.664   7.903  13.711  0.0465  0.0087 -0.2516
 2722W        W19196   3.934   9.198   1.803 -0.3052  0.1213  0.0894
 2723W        W19197  17.316  13.373  13.563 -0.0189 -0.3101  0.3220
 2724W        W19198  16.156   2.311   3.038 -0.1753  0.0093 -0.0932
 2725W        W19199   8.008  15.233  10.985 -0.3710 -0.2020 -0.0387
 2726W        W19200  16.743  15.058  11.350 -0.3241  0.1105  0.0872
 2727W        W19201  16.640  17.211   0.172  0.0598 -0.0607 -0.1650
 2728W        W19202  15.263  14.819   2.964  0.1085 -0.3482 -0.0469
 2729W        W19203   0.509   8.182  13.397  0.2311  0.0452 -0.2817
 2730W        W19204   9.928  18.038   0.782 -0.2110  0.0734  0.0313
 2731W        W19205  17.259  10.118  12.612 -0.0615 -0.0578  0.0119
 2732W        W19206   1.973   5.356   4.909  0.1161 -0.2706 -0.1060
 2733W        W19207   5.097   9.215   3.263 -0.0719 -0.1582 -0.1145
 2734W        W19208   7.567   7.823  10.881  0.1169 -0.1281  0.0865
 2735W        W19209   6.880   7.236   3.811 -0.2978 -0.0603  0.3028
 2736W        W19210  14.956  13.412  10.687  0.1251 -0.3152  0.1524
 2737W        W19211   1.104   3.931   3.295 -0.1195  0.2163 -0.0041
 2738W        W19212  13.199   1.666   1.116  0.1001 -0.0267  0.1308
 2739W        W19213  17.427   8.235   1.101 -0.0176 -0.0292  0.5015
 2740W        W19214   4.863  17.543   9.444 -0.2368 -0.5532 -0.2914
 2741W        W19215  17.488   9.794   4.229 -0.2064 -0.1838 -0.2807
 2742W        W19216   7.944  11.308   2.580 -0.0358 -0.0869 -0.5130
 2743W        W19217  17.478  15.731  10.569  0.1774 -0.1403  0.1706
 2744W        W19218  16.882  18.006  14.666  0.0870  0.0022 -0.0993
 2745W        W19219   7.191   7.794  12.993  0.2943  0.2126 -0.0503
 2746W        W19220  14.271   3.465  13.002  0.1081  0.2141  0.1196
 2747W        W19221  17.992   5.653  13.705 -0.0936  0.1208 -0.3592
 2748W        W19222   4.475  17.927   4.881  0.0070  0.0578  0.1436
 2749W        W19223  10.821   2.233   4.638 -0.0857  0.1913 -0.1321
 2750W        W19224  12.480   2.865   1.494 -0.0422 -0.3079  0.0758
 2751W        W19225  18.608   6.390  12.589  0.1369  0.2555 -0.1331
 2752W        W19226  17.392  12.906   3.708  0.1621  0.0000  0.0387
 2753W        W19227   2.102  17.484   0.249  0.4317 -0.1024 -0.1925
 2754W        W19228   9.800  12.436  14.642 -0.6087 -0.1855 -0.0586
 2755W        W19229   0.036   1.366  13.034  0.0705 -0.1097 -0.0037
 2756W        W19230  16.334  14.195  12.683  0.4254  0.0288 -0.0636
 2757W        W19231   4.984  18.328  10.408 -0.0709  0.2275 -0.0794
 2758W        W19232   5.947  18.424   2.272  0.4674  0.4692  0.4241
 2759W        W19233   7.092  18.183   2.597  0.1929 -0.2551 -0.3267
 2760W        W19234   8.986   7.697  13.494  0.0253 -0.1554  0.0561
 2761W        W19235   0.074  15.844   0.368  0.4166 -0.1068  0.3266
 2762W        W19236   0.876  11.884   0.333 -0.0946  0.1617 -0.0680
 2763W        W19237  18.476   7.481   0.162  0.0037  0.1526 -0.1487
 2764W        W19238   3.368   5.862   4.096  0.0744  0.1989  0.0169
 2765W        W19239  16.352   4.705   4.654  0.3105 -0.1204  0.1373
 2766W        W19240   5.343  11.781   1.607 -0.2652  0.4262  0.0986
 2767W        W19241  16.628   6.127   0.895  0.1442  0.0492 -0.3839
 2768W        W19242  11.206  11.683   2.517 -0.0940 -0.1868  0.0817
 2769W        W19243  18.401   9.685   2.287  0.0732 -0.2963  0.3431
 2770W        W19244  19.178   7.891  11.127  0.4209  0.1496  0.0169
 2771W        W19245   8.344  12.742  14.064 -0.2317 -0.1181 -0.0108
 2772W        W19246  11.566   1.933   2.900  0.1269  0.1727 -0.0367
 2773W        W19247   6.794   5.730   2.131 -0.2950  0.2159  0.0888
 2774W        W19248   7.642  10.333   0.264 -0.1106 -0.0044 -0.2804
 2775W        W19249  15.848   2.355  12.768 -0.0434  0.3166  0.2290
 2776W        W19250   5.125  17.994   3.015 -0.0757  0.2530 -0.0896
 2777W        W19251  14.072   4.258   2.659  0.1303 -0.2851  0.0650
 2778W        W19252  13.486  10.204  13.870 -0.3190 -0.1942  0.0061
 2779W        W19253  15.457  16.139  14.297  0.1498  0.0275 -0.2998
 2780W        W19254  13.370   7.305  13.005 -0.0338 -0.0143  0.3990
 2781W        W19255   9.131  11.049  10.642  0.0071 -0.0286  0.3579
 2782W        W19256   9.048   9.020   3.683  0.1704  0.1105  0.1044
 2783W        W19257  14.348   7.334   1.783  0.4006  0.1797  0.1037
 2784W        W19258   6.019  14.978   2.913 -0.0390  0.0402 -0.2397
 2785W        W19259   0.508  14.314   1.879  0.0326  0.1755  0.0272
 2786W        W19260   6.715  17.742   1.211  0.0287  0.1417 -0.2281
 2787W        W19261  16.781   7.961  10.752 -0.1105 -0.0251 -0.1369
 2788W        W19262  17.759   3.975   1.776 -0.3792  0.1615  0.0318
 2789W        W19263  12.404   6.564   2.271  0.2849  0.3152  0.1164
 2790W        W19264   7.618   8.617   0.816  0.2294 -0.1558  0.1253
 2791W        W19265  15.422  13.413   4.467 -0.1238 -0.0106 -0.0340
 2792W        W19266  18.839  11.694   1.982  0.0444 -0.0543  0.2446
 2793W        W19267   4.471  10.038   0.864 -0.1492 -0.0478  0.1513
 2794W        W19268  16.345  11.487   2.375 -0.0536  0.2102  0.3553
 2795W        W19269   4.284  14.279  12.067 -0.0496  0.0106  0.0306
 2796W        W19270  18.156  11.324  11.181  0.0271 -0.3941 -0.0573
 2797W        W19271  11.096  13.593  12.388  0.2855  0.1135 -0.0798
 2798W        W19272   0.785  18.802   3.729 -0.1406 -0.0142  0.0322
 2799W        W19273  13.526   2.213   1.167  0.0785 -0.3163  0.2289
 2800W        W19274  17.136   5.283   4.611  0.0357  0.0589 -0.4980
 2801W        W19275   6.297  14.483   1.067  0.0582  0.2342  0.1578
 2802W        W19276   9.539  13.556   2.446  0.2474  0.2024 -0.0960
 2803W        W19277   2.630   1.112   3.175  0.0573 -0.2117 -0.0692
 2804W        W19278  14.015   5.822   2.638 -0.2932 -0.0604  0.1511
 2805W        W19279   0.947   8.338   2.345  0.3926  0.1196  0.1208
 2806W        W19280   6.366   8.120   1.253  0.1279  0.1153 -0.0055
 2807W        W19281  13.495   3.740  13.436  0.1608 -0.0286 -0.2488
 2808W        W19282   3.355   5.668   3.652 -0.2496  0.1537  0.2382
 2809W        W19283   8.261   8.653   2.472  0.0751 -0.1326 -0.3854
 2810W        W19284  12.880   5.009   0.568 -0.5278 -0.4455 -0.0697
 2811W        W19285   2.507  18.297   2.508  0.3468 -0.2592 -0.0902
 2812W        W19286  14.156   3.499   2.669  0.1224 -0.1390  0.1416
 2813W        W19287  13.676   0.282   0.925 -0.0182 -0.3631  0.2750
 2814W        W19288   1.625  17.922   1.236  0.1191  0.1060  0.0300
 2815W        W19289  14.951   7.146   1.290  0.1990 -0.0247 -0.0796
 2816W        W19290  16.138  17.494   0.264 -0.1633 -0.0166 -0.1982
 2817W        W19291   7.194   1.589   1.210  0.2373 -0.2039  0.2563
 2818W        W19292   8.445  13.938   1.852  0.1655  0.2266 -0.1249
 2819W        W19293  13.167  11.825  13.955 -0.4128  0.0780  0.2271
 2820W        W19294   7.358   1.733  11.634  0.2634 -0.0709 -0.2514
 2821W        W19295  19.504   5.106  11.584  0.0667 -0.0156 -0.0672
 2822W        W19296   2.694   5.213  11.606  0.0718  0.1445 -0.1146
 2823W        W19297  13.452  14.922   2.372  0.0975  0.0909 -0.2723
 2824W        W19298   9.814   6.413   1.518  0.2146  0.1565 -0.1179
 2825W        W19299   2.385   4.890   5.092 -0.4283 -0.3369  0.0574
 2826W        W19300   8.468   2.426   4.767 -0.1900  0.0401  0.1164
 2827W        W19301  10.187  18.759   4.006  0.1740  0.1661 -0.0980
 2828W        W19302  15.135  13.871  13.381 -0.1333 -0.0315  0.1614
 2829W        W19303   3.623  14.995  11.934 -0.0903 -0.0467  0.1317
 2830W        W19304  10.274  15.790   4.006 -0.0754  0.0089  0.1799
 2831W        W19305  15.166  18.806   0.990 -0.0905  0.1594  0.3967
 2832W        W19306  10.770  14.916  12.422 -0.1267 -0.1309  0.2717
 2833W        W19307   0.836   1.651   3.549  0.4490 -0.1843 -0.4397
 2834W        W19308  18.057   6.049   2.841 -0.0005  0.0484 -0.3137
 2835W        W19309   2.586  12.107  11.672  0.1606 -0.1139  0.0296
 2836W        W19310  18.990   8.411   2.348  0.0400  0.4229 -0.2876
 2837W        W19311  18.433  19.524   0.252 -0.0229  0.0624  0.1121
 2838W        W19312  13.618  18.519   0.503 -0.0393 -0.2054 -0.2005
 2839W        W19313  15.900   7.255   3.469  0.3454  0.1175 -0.1240
 2840W        W19314  19.547   7.516  11.057  0.1688 -0.3341 -0.0619
 2841W        W19315  11.859   1.966  12.570 -0.0253  0.0425  0.1480
 2842W        W19316  19.300  18.561  13.481  0.2805 -0.0474  0.3558
 2843W        W19317   5.822  19.319   2.850 -0.1311  0.0285 -0.2136
 2844W        W19318   3.390  18.180   2.030 -0.2877 -0.2767 -0.1525
 2845W        W19319   0.519  11.433  11.375 -0.3017 -0.0380 -0.1376
 2846W        W19320  19.191  16.334  12.247 -0.0995  0.1667 -0.1987
 2847W        W19321  11.481  17.349  10.538 -0.2290  0.1157 -0.3523
 2848W        W19322  12.811  11.415  11.110 -0.0154 -0.0058 -0.5304
 2849W        W19323   8.967   2.028   0.323 -0.1102  0.0712  0.2189
 2850W        W19324  12.111  11.158   3.253  0.3675  0.0693  0.2544
 2851W        W19325  17.343   3.181   1.604  0.2801 -0.0574  0.4731
 2852W        W19326   0.162   4.498   4.626 -0.1629  0.0510 -0.1165
 2853W        W19327   0.330   5.908   1.628 -0.0731 -0.4892  0.3245
 2854W        W19328  19.037  19.012  11.962 -0.0788 -0.3283 -0.0177
 2855W        W19329  15.862   1.142   2.061  0.1229 -0.0206  0.0976
 2856W        W19330  16.004  13.395  11.879 -0.2520 -0.0679  0.1235
 2857W        W19331  12.903  12.288   1.090  0.1934  0.4768  0.0406
 2858W        W19332   3.683  19.054   1.619 -0.2967 -0.0702  0.1261
 2859W        W19333  13.374  10.213  11.574  0.2109 -0.4868  0.2537
 2860W        W19334   8.924  17.380   0.200 -0.0518  0.0836 -0.1414
 2861W        W19335   2.665   6.199  14.464 -0.0959  0.1346 -0.1829
 2862W        W19336   6.343   1.197  13.539  0.2880  0.2467  0.1653
 2863W        W19337   9.072   5.716   2.224  0.1214  0.0590 -0.1912
 2864W        W19338   8.089  11.606  11.161  0.1337  0.0835 -0.1559
 2865W        W19339   7.386  16.599  11.180 -0.2718  0.0465 -0.1327
 2866W        W19340  11.709   8.614   4.185  0.2937  0.0049  0.0943
 2867W        W19341  18.501   2.986   4.305 -0.2965 -0.1787 -0.2553
 2868W        W19342  13.709   7.219   3.143 -0.2638  0.2150 -0.2654
 2869W        W19343   8.851   4.471  11.796  0.0196  0.3424  0.3726
 2870W        W19344   7.571  14.889  14.707 -0.1183  0.1035 -0.0144
 2871W        W19345  18.264   5.942   2.023 -0.2641  0.1610  0.0127
 2872W        W19346   7.138  18.612  14.379  0.0261 -0.0351  0.0885
 2873W        W19347  12.909   2.258  14.586  0.1223 -0.0097  0.1436
 2874W        W19348  14.314   0.172   4.100  0.1708 -0.0957 -0.0981
 2875W        W19349  11.233   2.552  11.342 -0.1265 -0.3761 -0.1419
 2876W        W19350   7.236   7.989   4.342  0.0540 -0.2175 -0.0075
 2877W        W19351  15.992  11.414   0.343 -0.0065 -0.0930 -0.1378
 2878W        W19352  14.245  11.662   0.594  0.0180  0.1418  0.0838
 2879W        W19353  14.343  18.110  13.133  0.0904  0.1692 -0.0886
 2880W        W19354  13.588  15.092   3.807  0.1427  0.0068 -0.0035
 2881W        W19355   4.232  16.939   0.342 -0.2517 -0.0207  0.2777
 2882W        W19356   9.899  18.345   2.101  0.1965  0.1530 -0.0003
 2883W        W19357  19.391  17.555   1.885  0.1567  0.0334  0.3793
 2884W        W19358  18.033  18.933  11.782 -0.2345  0.0613 -0.0874
 2885W        W19359   0.444   6.646   4.850  0.3689  0.1878 -0.2629
 2886W        W19360   6.361  12.821  10.609  0.2653  0.1840  0.1841
 2887W        W19361  10.492  15.718   1.723  0.2501  0.0133  0.1003
 2888W        W19362   5.764   3.150   0.062  0.2489 -0.1591 -0.1131
 2889W        W19363  15.558   1.974  14.130 -0.1011 -0.2360  0.0606
 2890W        W19364   6.993   0.027   0.232 -0.0311  0.0683 -0.0473
 2891W        W19365  10.242   8.330  10.414  0.2031  0.2716  0.0626
 2892W        W19366   2.363  12.177  13.218 -0.3331  0.2059 -0.5234
 2893W        W19367  10.525   3.132   2.779  0.1432  0.2589  0.2901
 2894W        W19368  17.132   8.291  12.278  0.0094  0.0205  0.1976
 2895W        W19369  17.381  10.284  13.920  0.0956 -0.1479  0.1968
 2896W        W19370   1.128   5.257   2.768 -0.2915 -0.0032  0.1237
 2897W        W19371   1.171   5.773  11.230  0.0160  0.3244  0.0948
 2898W        W19372  11.657  16.131  14.526 -0.3600 -0.3875 -0.1979
 2899W        W19373   7.600   7.349  10.907 -0.1534 -0.1591 -0.1807
 2900W        W19374  12.242   8.843   0.548 -0.0246 -0.2612  0.0690
 2901W        W19375   3.320  11.386   1.642  0.2243 -0.2497 -0.0390
 2902W        W19376   7.038  16.101  11.884 -0.0015 -0.1135 -0.2251
 2903W        W19377  13.557   2.236   0.527 -0.1838  0.3567 -0.1020
 2904W        W19378  17.292   4.354   3.068 -0.1001 -0.1093  0.0339
 2905W        W19379   5.284  13.793   0.898 -0.3116  0.1158 -0.4558
 2906W        W19380   1.559  16.710  12.010  0.2083  0.1986 -0.1469
 2907W        W19381  11.515  10.032  11.182 -0.1910 -0.1794 -0.4172
 2908W        W19382  11.226   5.062   4.598  0.1503  0.1199 -0.1898
 2909W        W19383   3.312  17.544   2.842  0.2033  0.1059 -0.1477
 2910W        W19384   1.353   7.588   5.360 -0.0620 -0.0030  0.0820
 2911W        W19385   7.872   7.188   2.069 -0.2526  0.0250 -0.0040
 2912W        W19386  12.336  16.396   1.022  0.1474 -0.0577 -0.3569
 2913W        W19387   2.591  19.544   4.663  0.1764  0.1636 -0.2996
 2914W        W19388   1.712  11.389  12.066 -0.3056 -0.0804  0.0781
 2915W        W19389  16.043   8.620  12.383  0.0757  0.1658  0.3036
 2916W        W19390   2.619   5.519   1.192  0.0163 -0.1099  0.0356
 2917W        W19391  12.215  16.754   2.320  0.1902 -0.2527  0.1923
 2918W        W19392   7.139  16.462   2.149  0.0150  0.0847  0.0165
 2919W        W19393   9.250   2.444   4.287  0.5112  0.2981  0.1964
 2920W        W19394   5.899  11.161  12.067  0.0594  0.1647  0.1841
 2921W        W19395  12.185   3.523  10.424  0.0469  0.1422  0.1475
 2922W        W19396   3.155   3.989   0.332  0.0172 -0.0797  0.0794
 2923W        W19397  13.997  16.721   0.767  0.2642  0.1124  0.3080
 2924W        W19398   3.460   4.669  12.540  0.0679 -0.0559  0.0133
 2925W        W19399   8.184   3.080   3.333  0.1309 -0.0809  0.3000
 2926W        W19400  18.449  13.467  12.704  0.0075  0.1874 -0.1129
 2927W        W19401   6.091  17.326  11.198  0.0529 -0.2566  0.1917
 2928W        W19402   9.569  11.800  10.232 -0.3886 -0.0922 -0.0889
 2929W        W19403  18.583   7.715  13.207  0.2522 -0.1368 -0.3381
 2930W        W19404   4.428  13.348  14.357 -0.1236 -0.0368  0.0459
 2931W        W19405   4.003   5.612   3.271 -0.0846  0.3297  0.0873
 2932W        W19406   6.762  19.446   2.576  0.1175 -0.0058 -0.0802
 2933W        W19407  11.664   8.335   4.563  0.0478 -0.1009 -0.1005
 2934W        W19408   4.167   8.678   3.168 -0.1129  0.1033  0.0843
 2935W        W19409   2.113   5.071   3.814 -0.3681 -0.0722 -0.2725
 2936W        W19410   2.616   4.017   0.410 -0.1437 -0.0599 -0.1606
 2937W        W19411   3.188  19.461  11.981  0.5885  0.0945 -0.1345
 2938W        W19412   3.290  16.076  11.676  0.0667  0.0455  0.1163
 2939W        W19413   5.194  10.591   4.426  0.1935  0.0006 -0.1027
 2940W        W19414  14.803   2.714  13.116  0.4276  0.0736 -0.0328
 2941W        W19415  18.315  17.381   3.376  0.2889 -0.1493  0.1659
 2942W        W19416   8.233   8.752   0.147  0.3873  0.1355 -0.0624
 2943W        W19417   1.308   7.339  13.498  0.2814  0.2805 -0.3127
 2944W        W19418  12.499  15.313   1.956 -0.1471  0.1055 -0.1609
 2945W        W19419   8.233  10.063   4.457 -0.0156  0.2914 -0.1386
 2946W        W19420  10.064  14.388   0.410  0.0804 -0.2428  0.0271
 2947W        W19421   5.702   6.273  12.582  0.2041 -0.3539  0.1607
 2948W        W19422  18.877  17.330   3.534 -0.4168  0.3023 -0.4004
 2949W        W19423  18.466  11.644   3.395  0.1778 -0.2332 -0.1261
 2950W        W19424  11.252   8.430  12.598  0.4311 -0.3135 -0.0968
 2951W        W19425  12.951  14.611   3.190 -0.2220  0.3474 -0.2079
 2952W        W19426   6.746   0.738   3.433 -0.1043 -0.0303 -0.1587
 2953W        W19427  14.281   0.200   0.106 -0.2373 -0.0019 -0.0650
 2954W        W19428   1.409   7.382  12.788 -0.3766  0.2912  0.1142
 2955W        W19429   3.610  17.119  10.454 -0.4170  0.1100 -0.1466
 2956W        W19430  15.992  11.240   2.905 -0.1936 -0.0186 -0.2700
 2957W        W19431  14.500   5.434   0.542  0.1779  0.0528  0.0346
 2958W        W19432  16.184  15.860   9.898 -0.1212  0.2079  0.1681
 2959W        W19433   8.571  15.814   1.671  0.1318  0.1765  0.3995
 2960W        W19434  17.887  18.478  14.070 -0.0494 -0.0706  0.0664
 2961W        W19435   7.621  12.372   9.918  0.1689  0.0089  0.2056
 2962W        W19436  11.313   0.658  12.752  0.1655  0.1743  0.5250
 2963W        W19437   9.162   5.504  12.968 -0.2125 -0.2725 -0.0445
 2964W        W19438  18.659   8.091  12.213 -0.3602 -0.3190  0.1626
 2965W        W19439  17.124   5.156  11.285 -0.1163 -0.0331 -0.0599
 2966W        W19440   8.911   9.420   3.157  0.0405 -0.1933  0.2034
 2967W        W19441  10.325  12.916  10.846  0.0936 -0.1250  0.1891
 2968W        W19442  10.298  15.385   4.545 -0.3190  0.0130 -0.0539
 2969W        W19443   9.072   5.266   2.461 -0.0348 -0.3931  0.3489
 2970W        W19444   0.083  11.600  13.131  0.0709  0.0465 -0.0638
 2971W        W19445  16.089   3.108   0.326 -0.4118 -0.3198 -0.0693
 2972W        W19446  19.302  18.708   2.293 -0.0697 -0.0341  0.5045
 2973W        W19447   0.075   8.044   3.644 -0.5463 -0.0105  0.2679
 2974W        W19448  11.515   7.704  10.905  0.3660  0.1223 -0.3017
 2975W        W19449   0.215  18.390   2.602  0.4393  0.3044 -0.0178
 2976W        W19450  16.099  16.600   0.898 -0.2239 -0.2193 -0.1113
 2977W        W19451  13.920   5.479  11.235  0.0816 -0.0897  0.0844
 2978W        W19452  13.901   0.987   1.330 -0.2788 -0.0106  0.2176
 2979W        W19453   9.808   7.542  10.654 -0.0030  0.1002  0.0029
 2980W        W19454  15.857   5.884   1.494  0.0253 -0.3970 -0.0040
 2981W        W19455   5.045   7.810   4.885  0.3401 -0.1558  0.0207
 2982W        W19456  11.882   0.953   3.821 -0.0533  0.0196  0.2481
 2983W        W19457  17.560  12.241  14.311  0.0790  0.2868 -0.1198
 2984W        W19458   6.002  18.061   1.900  0.2206 -0.1653  0.0316
 2985W        W19459   5.132   2.265   3.783 -0.1924 -0.1129 -0.1210
 2986W        W19460   5.161   9.374   5.934  0.1385  0.0112 -0.0719
 2987W        W19461   6.028  11.278   1.186  0.0971  0.2518  0.2336
 2988W        W19462  12.412  18.390  13.904 -0.0518 -0.1680 -0.2151
 2989W        W19463  17.853  11.772  11.040 -0.0816 -0.1645  0.1436
 2990W        W19464   6.401   5.292  10.945  0.1168  0.1585 -0.1524
 2991W        W19465   7.642   6.014  13.266 -0.1439 -0.1571  0.2771
 2992W        W19466   4.840   2.449  13.120 -0.0141 -0.2962  0.0930
 2993W        W19467  14.896  10.287  12.118  0.1400 -0.0398 -0.1210
 2994W        W19468  14.427  11.393   4.666  0.0163 -0.0906  0.1561
 2995W        W19469   8.502  19.194   2.824 -0.0827  0.0131  0.1330
 2996W        W19470   5.121   0.776  14.535 -0.0139  0.0222 -0.2318
 2997W        W19471   9.387   6.572  10.292  0.1482  0.2167 -0.3856
 2998W        W19472  14.555   8.961  12.420 -0.3550  0.0294  0.0108
 2999W        W19473   2.639  11.149   0.902  0.0020 -0.0499  0.2479
 3000W        W19474  13.341   1.195  10.396  0.2172  0.1460 -0.0894
 3001W        W19475  13.714   6.222  13.227  0.0640 -0.0905 -0.1359
 3002W        W19476  17.979   8.843  11.266 -0.2404 -0.1573 -0.0987
 3003W        W19477   3.696   3.800  10.759  0.0892  0.1577  0.0232
 3004W        W19478  11.277   0.705   3.909  0.0378  0.1883 -0.1575
 3005W        W19479   0.206  18.386   4.374 -0.0632  0.5097  0.0039
 3006W        W19480   8.961   1.014  13.337 -0.3013  0.3059 -0.0613
 3007W        W19481  11.747  18.389   2.663  0.1526  0.0442 -0.3785
 3008W        W19482   5.707   2.074   1.065 -0.0230 -0.2527  0.1216
 3009W        W19483  16.376  18.355   2.182  0.1488  0.0432 -0.0712
 3010W        W19484   6.635  19.575  10.951  0.0431  0.0880  0.0385
 3011W        W19485   9.861   8.555  10.668  0.0452 -0.0104 -0.2012
 3012W        W19486  15.367  14.190   4.310 -0.4085  0.6073  0.1061
 3013W        W19487   3.099   0.879   0.457  0.2501 -0.1986 -0.0872
 3014W        W19488  15.087  10.637   5.060 -0.1240 -0.1962 -0.0587
 3015W        W19489   5.356  13.200   4.314  0.3973  0.3054  0.1994
 3016W        W19490   5.080  18.162   9.899 -0.1411 -0.1694  0.3819
 3017W        W19491  13.492   8.688   2.027 -0.1381 -0.1447  0.2929
 3018W        W19492   5.521   5.876  12.880  0.0203  0.3956  0.0405
 3019W        W19493   9.500   4.417  14.314 -0.1313 -0.1089 -0.0245
 3020W        W19494   6.124   0.003  11.075 -0.2335  0.1935 -0.0170
 3021W        W19495   1.224   4.266   1.683 -0.4109  0.1694 -0.0107
 3022W        W19496  17.990  16.768   0.713  0.0234 -0.3550  0.1799
 3023W        W19497  13.239   2.268  12.055 -0.2496 -0.1781 -0.0452
 3024W        W19498  17.975  11.789  13.509  0.0709 -0.3455  0.1508
 3025W        W19499  12.806   4.080  13.052 -0.3171 -0.0485  0.3817
 3026W        W19500  13.888  19.515   1.880 -0.0458  0.1258 -0.0035
 3027W        W19501  12.164  14.358  12.728  0.4426 -0.0086  0.0133
 3028W        W19502  12.162   7.461   3.464 -0.0377 -0.1692  0.2212
 3029W        W19503  13.437   0.443  14.654 -0.0572  0.0642  0.1146
 3030W        W19504  10.317  13.097   3.583  0.0371 -0.0073 -0.4644
 3031W        W19505   5.920   0.926   0.807 -0.1042  0.1116 -0.0142
 3032W        W19506   7.172  13.115   4.443 -0.0408 -0.0877  0.0102
 3033W        W19507   9.574   4.641  13.732 -0.0072 -0.0523 -0.2074
 3034W        W19508  19.300  12.335   9.403 -0.0685 -0.1163  0.0290
 3035W        W19509   2.303   4.932   0.703  0.1317 -0.0641  0.0432
 3036W        W19510   4.005  14.825   1.770 -0.2082  0.2089 -0.0466
 3037W        W19511  14.939   9.672   1.045  0.3306  0.0186  0.2864
 3038W        W19512  15.932   9.441   4.263  0.0599 -0.0278  0.1459
 3039W        W19513  19.475   2.618   0.999 -0.0603 -0.0164 -0.3560
 3040W        W19514   3.473  10.880   1.366  0.0776 -0.0948  0.4227
 3041W        W19515   2.213   6.188  14.147  0.0835 -0.0855  0.0730
 3042W        W19516  18.851  12.628   0.741  0.0300  0.0063  0.1049
 3043W        W19517  14.829  15.546  12.846 -0.3901  0.0690  0.2231
 3044W        W19518   6.840   4.845  12.720 -0.1625 -0.1954  0.0421
 3045W        W19519  10.665  17.407   4.841 -0.1335  0.2922  0.2956
 3046W        W19520   5.908   7.226  12.091  0.2322 -0.1037 -0.1724
 3047W        W19521   8.149  13.238   4.283 -0.2928 -0.1704  0.1903
 3048W        W19522   1.754  12.538  10.573 -0.2844 -0.0601  0.0241
 3049W        W19523  18.728  13.473   0.676 -0.1630  0.0059 -0.0185
 3050W        W19524   0.346   5.452  12.796 -0.0868 -0.0425  0.1736
 3051W        W19525  13.794  10.257  13.452 -0.0274  0.2043  0.1390
 3052W        W19526   1.247   7.356   4.912 -0.1188 -0.0970 -0.0253
 3053W        W19527   2.281  18.706   1.835  0.0741 -0.3539  0.1562
 3054W        W19528  11.656   2.726  13.340 -0.0374 -0.1237 -0.3406
 3055W        W19529  13.219  18.557  14.372 -0.2348  0.0709  0.1252
 3056W        W19530  12.650   7.924   5.385 -0.0102 -0.1460 -0.1980
 3057W        W19531  18.266   7.207   3.224 -0.0448  0.0803  0.3136
 3058W        W19532  12.171   7.088  12.305 -0.1019  0.0001 -0.1356
 3059W        W19533  17.605   2.987   0.258  0.1754  0.0849  0.0782
 3060W        W19534   7.951  13.087  10.700 -0.1712 -0.0072  0.1700
 3061W        W19535   6.357   1.121   1.930  0.1167 -0.0263  0.0331
 3062W        W19536   2.100  11.046  10.547 -0.1375 -0.2833  0.4408
 3063W        W19537  10.199  14.675   3.200  0.0859 -0.3036  0.3169
 3064W        W19538  13.941  15.086   5.061 -0.0570 -0.0541  0.0378
 3065W        W19539   5.169  15.403  14.664  0.2507 -0.1424  0.1092
 3066W        W19540  16.392   8.686  10.731  0.1635 -0.1010 -0.1488
 3067W        W19541   1.688   9.058   4.124 -0.6040 -0.1339 -0.3124
 3068W        W19542   3.787   3.907   2.610 -0.0518  0.0832  0.3269
 3069W        W19543  10.181  11.000   0.430 -0.1310  0.1220 -0.0795
 3070W        W19544  15.479   9.875  10.535 -0.0441 -0.3115 -0.1368
 3071W        W19545   5.818   8.624  13.370  0.3461  0.2411  0.1571
 3072W        W19546   3.064  14.792  14.021  0.2626 -0.1252 -0.0356
 3073W        W19547  17.950   2.115   1.760  0.2331 -0.4181  0.0635
 3074W        W19548   4.692   7.316  12.874  0.0002 -0.1681  0.1478
 3075W        W19549  11.987   2.293   3.799  0.3656 -0.0082  0.2343
 3076W        W19550   3.467   4.181   3.149  0.0717  0.1924  0.2291
 3077W        W19551  18.592   2.087  13.398  0.3078 -0.0406  0.2948
 3078W        W19552   5.800  11.667   1.350 -0.2697  0.1937 -0.1367
 3079W        W19553  17.372  12.491   9.375 -0.2879  0.0862  0.0771
 3080W        W19554  13.316   4.154  11.640  0.1692 -0.0644 -0.2979
 3081W        W19555   1.289   8.456   5.004 -0.0761 -0.2379 -0.2102
 3082W        W19556  14.636   1.833  10.591 -0.0353  0.1485 -0.1348
 3083W        W19557  14.295   0.181  13.266 -0.1070 -0.4404  0.2393
 3084W        W19558   8.003  19.089   2.127  0.1435 -0.2051  0.2027
 3085W        W19559   4.914  12.989   4.338  0.0554 -0.1777 -0.1703
 3086W        W19560   9.459  19.555   9.955 -0.3258 -0.2220  0.2667
 3087W        W19561   2.734  13.085  14.139 -0.0757  0.1881  0.1805
 3088W        W19562  18.638  17.875   2.089 -0.0506 -0.2370  0.0874
 3089W        W19563  15.009  11.558   3.444  0.0987  0.1121  0.1847
 3090W        W19564  14.908  16.801   1.613  0.0990  0.1424  0.0348
 3091W        W19565   4.149   2.518   3.057 -0.1885 -0.0634  0.0444
 3092W        W19566   5.800   3.133   9.984  0.1474  0.0877 -0.4116
 3093W        W19567  16.013   3.261   1.881  0.0294  0.0577 -0.0072
 3094W        W19568  11.200   2.701   3.339 -0.1988  0.0431  0.0669
 3095W        W19569   0.970  13.280  10.539  0.0507  0.2423  0.0061
 3096W        W19570   6.278   4.087   1.012  0.3823  0.2131 -0.1918
 3097W        W19571   8.920   1.024  14.179  0.2430 -0.1493  0.0230
 3098W        W19572  14.773  17.244   2.611  0.0138 -0.2889 -0.1529
 3099W        W19573  10.375   7.350   5.503 -0.4732  0.2050 -0.3718
 3100W        W19574   9.750   1.991   4.981  0.2993  0.0041 -0.1141
 3101W        W19575   1.751   7.072  13.956  0.1830 -0.2001 -0.0582
 3102W        W19576   6.419  10.819   2.959 -0.0147  0.2446 -0.2492
 3103W        W19577   3.827  11.707  14.313 -0.0844 -0.1180 -0.0193
 3104W        W19578   4.711   8.429   9.161 -0.0146 -0.0596  0.0793
 3105W        W19579  10.961  13.431  13.810 -0.2809  0.2392 -0.1553
 3106W        W19580   5.557   6.635  11.099 -0.6914  0.4765  0.3516
 3107W        W19581  17.241  11.971  12.990 -0.2535  0.2721  0.2126
 3108W        W19582   9.989   0.071   0.496  0.2974  0.0244 -0.1434
 3109W        W19583  17.086   9.990   3.900 -0.3159 -0.0581 -0.2107
 3110W        W19584   8.140  12.816  13.479 -0.2078 -0.0419 -0.0405
 3111W        W19585  15.306  13.782   1.939 -0.1635  0.0631  0.2073
 3112W        W19586  18.156   1.700  10.351  0.2280  0.0617 -0.0525
 3113W        W19587  10.690   2.431  13.651  0.0208 -0.0103 -0.0284
 3114W        W19588   1.291   6.581   2.150  0.0413 -0.0545 -0.3586
 3115W        W19589  14.882   9.935  10.362 -0.0198 -0.0336  0.0031
 3116W        W19590   5.191  17.084  14.596 -0.1189 -0.1569 -0.2128
 3117W        W19591   3.598   6.812  14.490 -0.0589  0.2999  0.1692
 3118W        W19592   3.772  14.682   4.067 -0.0701  0.0056  0.1217
 3119W        W19593   2.365  10.365   4.419  0.1558 -0.4285  0.2328
 3120W        W19594  11.102   0.721  11.036 -0.0476  0.0178 -0.1630
 3121W        W19595   3.538  18.644  10.870 -0.2295  0.1073  0.0239
 3122W        W19596  18.097  19.183   0.082 -0.0415 -0.1130  0.0184
 3123W        W19597  16.610  17.716   1.222 -0.1133 -0.0820 -0.1546
 3124W        W19598   7.172   2.301  11.836 -0.1460 -0.0985 -0.1334
 3125W        W19599  18.227  15.939   4.141  0.0409 -0.1520  0.0665
 3126W        W19600  14.786   4.504  10.414 -0.0112 -0.0553 -0.0175
 3127W        W19601   0.861  10.281   1.512 -0.1199 -0.1847 -0.0514
 3128W        W19602   7.972  14.991  11.560 -0.0567  0.0767  0.1919
 3129W        W19603  12.438  12.778  11.002 -0.2909 -0.2047 -0.1843
 3130W        W19604   6.067  17.230   4.287  0.3097  0.2517  0.2347
 3131W        W19605   8.931   8.242   4.452 -0.2608 -0.1777 -0.1331
 3132W        W19606  17.152   3.703   1.055 -0.1046 -0.0344 -0.1801
 3133W        W19607  12.808   7.851   2.823 -0.0618 -0.1859  0.0165
 3134W        W19608   1.548   3.865  14.175  0.1108  0.0785  0.0201
 3135W        W19609  15.267  12.015   4.045 -0.1815  0.3619  0.1002
 3136W        W19610  11.151  14.402   0.543  0.0689  0.1616  0.1146
 3137W        W19611   6.592   0.709  11.609 -0.1572  0.1418  0.0011
 3138W        W19612   5.799   2.302   4.068 -0.2272 -0.4324 -0.2154
 3139W        W19613  16.284  12.648  11.400  0.1098 -0.0962  0.1109
 3140W        W19614   5.007  13.508   4.346  0.1127 -0.1893  0.1739
 3141W        W19615   9.190  15.368  12.387  0.1648  0.2733  0.1111
 3142W        W19616  12.925  16.156  13.971  0.2782  0.1354 -0.2469
 3143W        W19617  14.941  18.011   0.344 -0.1320  0.1670  0.1029
 3144W        W19618   5.391  18.705   1.581 -0.1361 -0.0331  0.0442
 3145W        W19619   9.948  15.394   3.799  0.3168 -0.0191 -0.0289
 3146W        W19620   5.395   6.838  11.704  0.3727 -0.1450 -0.0438
 3147W        W19621  10.329  19.426   0.839  0.0240  0.0235 -0.2730
 3148W        W19622   8.880  16.554  13.448 -0.2584 -0.2826  0.1199
 3149W        W19623  18.905  11.874   0.654 -0.2286 -0.0697  0.1297
 3150W        W19624  10.783  17.186  11.583 -0.3437  0.2056  0.2649
 3151W        W19625  16.493  16.417   1.465 -0.1052  0.2200 -0.0872
 3152W        W19626  14.643  14.765  13.977 -0.1896 -0.1758  0.1019
 3153W        W19627   6.269   7.948  12.936 -0.2456  0.2359  0.1422
 3154W        W19628  17.323  12.265  11.869  0.2297  0.0173  0.0336
 3155W        W19629  15.524  18.374  14.590 -0.0902 -0.1202 -0.1337
 3156W        W19630  15.201  16.360   3.637 -0.3134 -0.0360 -0.0193
 3157W        W19631   0.434   7.890   4.957  0.2341 -0.0902  0.2997
 3158W        W19632   8.043  11.909  13.991  0.3633 -0.0335 -0.1174
 3159W        W19633   9.000  17.780   3.170 -0.1293 -0.2896  0.2410
 3160W        W19634  12.647  16.101  14.506 -0.1267  0.1114 -0.1250
 3161W        W19635   1.160   6.478  10.312  0.1087 -0.1771 -0.0247
 3162W        W19636  18.825  14.064   3.005 -0.0942 -0.1848  0.3190
 3163W        W19637  13.024   5.452  10.445  0.1694  0.0099 -0.0010
 3164W        W19638   0.406   9.486  12.024  0.4595  0.1573 -0.1435
 3165W        W19639   8.150   0.899   5.333  0.1614  0.0426  0.0322
 3166W        W19640  10.653  13.471   3.671  0.3377  0.0442  0.1593
 3167W        W19641   5.171   4.309  11.832  0.0970 -0.3129 -0.2857
 3168W        W19642   9.344   2.812  13.467  0.4026 -0.0320 -0.0091
 3169W        W19643   9.736   4.106   0.867 -0.4235 -0.0261 -0.0274
 3170W        W19644  13.543  14.155  11.164  0.1261 -0.1940  0.0268
 3171W        W19645   4.245  14.471   0.985  0.1402 -0.2600  0.2430
 3172W        W19646  16.586  17.116  14.296  0.1870  0.0507 -0.2753
 3173W        W19647   8.071  12.703  10.318 -0.2286  0.0457 -0.3952
 3174W        W19648   8.177  13.697   3.596 -0.2768  0.1692 -0.1645
 3175W        W19649   8.822   1.827   3.102  0.1144  0.0394  0.3369
 3176W        W19650  10.004   6.984   6.097 -0.4614  0.2896 -0.1280
 3177W        W19651   5.231   8.749  11.418  0.2584  0.1676  0.1384
 3178W        W19652  18.777   0.592   2.095  0.1204 -0.0474  0.0958
 3179W        W19653  13.332   8.446   0.405  0.0602 -0.1214 -0.1237
 3180W        W19654   8.363  19.553  13.337 -0.2238  0.1156 -0.0081
 3181W        W19655   5.214   2.863   4.886 -0.1869  0.0850  0.0380
 3182W        W19656  12.184  11.080   3.799  0.0047  0.2231  0.2108
 3183W        W19657  12.714   0.907   3.056 -0.0872 -0.0415 -0.0715
 3184W        W19658  19.285   6.111   0.693  0.0925 -0.1222  0.0252
 3185W        W19659  18.377  17.761  13.037  0.0721  0.0772  0.0491
 3186W        W19660   3.697  18.271  12.864  0.3116  0.0986  0.0031
 3187W        W19661   2.366  14.939   2.191 -0.0191 -0.0908 -0.0342
 3188W        W19662  15.714   1.583   3.728  0.1434  0.1553 -0.0838
 3189W        W19663   3.882   1.030  14.349  0.0921 -0.0036  0.1659
 3190W        W19664   4.092  18.724   1.718 -0.2922  0.2793 -0.0371
 3191W        W19665  13.640   9.626   1.100 -0.3552  0.1538  0.1066
 3192W        W19666   2.948   6.356   0.436  0.1050 -0.3216  0.0443
 3193W        W19667  17.177  14.819   2.565  0.1090 -0.1149  0.0241
 3194W        W19668   9.793  15.907  10.523 -0.0755 -0.1530  0.1018
 3195W        W19669   9.439   0.303   1.608  0.0754 -0.3656 -0.4596
 3196W        W19670  10.628  17.744   3.969  0.0400  0.2316 -0.3352
 3197W        W19671   9.288   7.591   0.804 -0.0646 -0.1931  0.2332
 3198W        W19672  13.462  18.044   3.472 -0.2888 -0.1819  0.1188
 3199W        W19673   1.621  16.208  11.342  0.0474 -0.1922 -0.0968
 3200W        W19674   8.537  13.033  13.320 -0.1010 -0.0478 -0.2940
 3201W        W19675  14.101  13.338  13.406 -0.1467 -0.1500  0.2308
 3202W        W19676  16.978  18.752  14.175  0.4203  0.2680 -0.1661
 3203W        W19677  19.578  10.776   4.510 -0.2153  0.1307 -0.0585
 3204W        W19678  16.798  17.925   2.150  0.2006 -0.0078  0.2496
 3205W        W19679   8.247  18.397   4.940  0.1020  0.3831  0.2404
 3206W        W19680  10.133   2.583   0.405 -0.1774  0.1592  0.1159
 3207W        W19681  11.662  14.976   1.955  0.0629 -0.2175  0.1217
 3208W        W19682   5.566  15.290   3.419  0.1913  0.1614  0.1132
 3209W        W19683   9.244  17.205  11.309 -0.0926 -0.1502  0.0302
 3210W        W19684   5.075  18.207   0.534 -0.1116 -0.1915 -0.1295
 3211W        W19685   9.287   6.053  12.868  0.1337  0.0579  0.1952
 3212W        W19686   8.487   9.085  11.968  0.0183 -0.0502  0.1495
 3213W        W19687  16.090  10.649  13.302 -0.0634 -0.0000 -0.0467
 3214W        W19688  18.689  12.116   3.625  0.0080 -0.0324  0.0062
 3215W        W19689  14.848  15.538   0.839 -0.0732  0.1011  0.1826
 3216W        W19690  16.909   3.400  14.023 -0.1844  0.0017  0.2210
 3217W        W19691  19.463   9.293   2.567 -0.0638  0.1564 -0.0439
 3218W        W19692   1.928   2.869  14.325 -0.1169 -0.2160 -0.1130
 3219W        W19693   2.394  12.081   0.643  0.1281  0.1498 -0.2826
 3220W        W19694  17.084   4.177   0.919  0.0645  0.0037  0.1096
 3221W        W19695   7.957  16.519   0.485 -0.2117  0.0032  0.0791
 3222W        W19696   3.843  11.430   2.866 -0.2912 -0.1726 -0.0082
 3223W        W19697  16.595  13.786   4.738  0.0206 -0.0665  0.2281
 3224W        W19698   3.911  17.182  12.662  0.1171 -0.2648  0.1461
 3225W        W19699   5.229  19.054   4.241  0.3247  0.1687 -0.0930
 3226W        W19700   8.516   4.244  10.986  0.1456 -0.2351 -0.1730
 3227W        W19701  11.543   1.242   0.551 -0.1529 -0.0170 -0.1165
 3228W        W19702  14.968  13.350  13.373 -0.2008  0.2687  0.0359
 3229W        W19703   4.845   3.324  11.392  0.0841 -0.4505 -0.0380
 3230W        W19704  16.116  15.808  14.440 -0.0736 -0.2204 -0.1858
 3231W        W19705  18.211   0.487  13.437 -0.0222  0.1343  0.2875
 3232W        W19706   7.000   2.228  10.792  0.1946 -0.3137  0.1944
 3233W        W19707  16.972  12.181   1.476 -0.0243 -0.0854  0.3418
 3234W        W19708  18.845  12.850   1.216  0.4093  0.4423 -0.0673
 3235W        W19709   1.858   9.096  10.173 -0.0349 -0.1489  0.4670
 3236W        W19710   9.509   1.240   9.586 -0.3521  0.7208  0.2691
 3237W        W19711  18.701  16.707   1.587  0.1934 -0.2829  0.2670
 3238W        W19712   5.054  16.382  11.645 -0.0074  0.1136 -0.2104
 3239W        W19713  13.757  10.089   6.120  0.2177 -0.2106  0.1155
 3240W        W19714   6.974  18.115  14.228  0.2523  0.0989  0.4003
 3241W        W19715  15.418   0.682  12.937 -0.2123 -0.4118 -0.0883
 3242W        W19716   5.472  12.466  13.449 -0.0721  0.1324  0.1138
 3243W        W19717   2.345   2.331  10.086  0.0435  0.0159  0.1280
 3244W        W19718   6.466   9.485  10.503 -0.0400 -0.0416 -0.0682
 3245W        W19719   1.265   7.500   2.555  0.0559 -0.0772  0.0790
 3246W        W19720   3.951  12.085  12.149 -0.0882  0.0867  0.3237
 3247W        W19721  17.681   5.073  10.860 -0.1062 -0.0211 -0.0145
 3248W        W19722  18.953  11.834  12.028  0.0650 -0.2400 -0.1456
 3249W        W19723  11.127   2.209   4.227  0.0189 -0.2482  0.0105
 3250W        W19724   0.892  17.766   3.869 -0.0027  0.0418 -0.0378
 3251W        W19725  12.187  18.353  10.426 -0.0141  0.0294 -0.2057
 3252W        W19726  12.098   5.359  13.411  0.1081  0.0577 -0.4177
 3253W        W19727  10.991   6.802  11.127 -0.1426  0.1135  0.4487
 3254W        W19728  10.094   6.869   4.232 -0.0408 -0.1613  0.1187
 3255W        W19729   2.885  15.937  11.322 -0.0876 -0.3038  0.0165
 3256W        W19730   2.330   7.435  13.510  0.0441  0.3215 -0.0323
 3257W        W19731  11.417   8.391  10.436 -0.1587 -0.3155  0.2899
 3258W        W19732  16.437  17.257   1.619  0.1362 -0.2214 -0.0753
 3259W        W19733  14.045  15.468   2.900 -0.0785 -0.0978 -0.1645
 3260W        W19734  16.452  11.491   3.650  0.1029  0.0602 -0.1854
 3261W        W19735   9.338   8.497   0.535  0.2735 -0.2866  0.1432
 3262W        W19736  14.215   0.352  10.592 -0.3526 -0.1156 -0.1213
 3263W        W19737  18.502   6.056  14.029 -0.0845  0.0608 -0.0270
 3264W        W19738   5.597  16.573   8.983  0.0964 -0.3717  0.3192
 3265W        W19739   9.353  16.200   2.082 -0.0842 -0.2266  0.2745
 3266W        W19740  15.571   0.381   9.061 -0.0700  0.0355 -0.3996
 3267W        W19741  10.525   9.242   0.413 -0.3393 -0.3451  0.0725
 3268W        W19742   6.542  11.618   0.589  0.0069 -0.1092 -0.0514
 3269W        W19743  11.472   1.879   0.744 -0.0424  0.1310 -0.0704
 3270W        W19744   6.182   4.320  13.337  0.0425  0.1222 -0.3484
 3271W        W19745  11.125  17.377  13.183  0.2492  0.3726  0.0994
 3272W        W19746  19.183  19.061  13.362 -0.3101  0.3198 -0.1400
 3273W        W19747   2.421   4.541   3.867 -0.0403  0.1112  0.1184
 3274W        W19748  13.443  10.979   1.503 -0.0319 -0.0003 -0.0570
 3275W        W19749  17.442   8.102   4.890  0.1578  0.3709  0.1474
 3276W        W19750  12.687   0.716   3.937  0.0292 -0.0018 -0.1154
 3277W        W19751  18.672   6.518  14.328 -0.1407  0.0716 -0.4937
 3278W        W19752  14.524  16.384   2.806  0.1945 -0.0964 -0.1926
 3279W        W19753   8.939   4.314   1.889 -0.4043  0.1976 -0.0240
 3280W        W19754  17.195   6.978  11.818 -0.0515 -0.3671  0.0239
 3281W        W19755  18.896  14.151  10.910  0.0361  0.1065  0.3213
 3282W        W19756   6.644   4.408  10.625  0.1041  0.1500 -0.1556
 3283W        W19757  16.176   4.039  14.326 -0.1874  0.2779  0.0990
 3284W        W19758   6.985   9.523   5.472  0.0113  0.1511 -0.1430
 3285W        W19759  14.649   0.030   0.922 -0.0896  0.1741  0.1066
 3286W        W19760  16.628  13.620   0.149  0.0540  0.0471 -0.1590
 3287W        W19761  16.530  11.653   4.886  0.0094  0.0604  0.1852
 3288W        W19762   3.305   7.808  13.758 -0.0434 -0.1844 -0.0960
 3289W        W19763  17.715  10.441   1.469 -0.0129 -0.1451  0.2725
 3290W        W19764  12.037   2.223   4.242  0.3985 -0.1291  0.1810
 3291W        W19765  16.758  15.856   3.640  0.1496  0.2396 -0.0668
 3292W        W19766   4.746  17.390  10.799 -0.2260  0.1865 -0.0913
 3293W        W19767   5.726   6.587   0.069 -0.3975  0.1647  0.1049
 3294W        W19768   2.278  12.153  10.469  0.2422 -0.1308  0.0402
 3295W        W19769   2.026   3.519  11.852 -0.1378 -0.0571  0.2079
 3296W        W19770   1.324  11.947   3.717  0.1921  0.2192 -0.0251
 3297W        W19771  11.492  13.857   2.396 -0.0817  0.0914  0.3721
 3298W        W19772  13.934  13.328   1.805  0.2743  0.2623  0.1753
 3299W        W19773  11.600  12.311  13.703 -0.4832 -0.1382 -0.2990
 3300W        W19774  12.321   3.156  14.523 -0.0776  0.0169  0.1259
 3301W        W19775  17.401  18.153   4.970 -0.0199  0.3207  0.0287
 3302W        W19776   6.976   6.758   4.475  0.0076  0.2098  0.3455
 3303W        W19777  15.320   0.410  12.555  0.2089 -0.0549  0.0964
 3304W        W19778   4.655  19.580   2.326 -0.2132 -0.0372 -0.2380
 3305W        W19779  18.128  16.895   1.526 -0.1532 -0.1017 -0.1627
 3306W        W19780   6.104  11.560  11.203  0.1654  0.0260 -0.1322
 3307W        W19781   5.266   6.662   1.145 -0.1934 -0.2028 -0.0629
 3308W        W19782   3.613  14.887   9.912  0.4778 -0.0434  0.1679
 3309W        W19783  13.435  14.785   4.175 -0.0835  0.0184 -0.2269
 3310W        W19784  11.225  13.270  13.411 -0.0555  0.1074 -0.0264
 3311W        W19785   4.348  16.369   3.485 -0.3152 -0.1459  0.2413
 3312W        W19786   6.227  15.249  11.807 -0.0495 -0.3662  0.0316
 3313W        W19787  18.120  19.036  12.522  0.1326 -0.1970  0.0550
 3314W        W19788  17.134   4.478   4.011  0.1175 -0.2094  0.0798
 3315W        W19789   5.705  14.181  10.751 -0.0899 -0.0422  0.0494
 3316W        W19790  18.436   4.411   4.045 -0.3033  0.1367 -0.0190
 3317W        W19791   5.667   2.002   2.065  0.2815  0.4634  0.0863
 3318W        W19792  17.791   9.228   2.986 -0.0964 -0.4172  0.0941
 3319W        W19793  17.195  19.317  12.260  0.0688  0.0054  0.1695
 3320W        W19794   0.113  18.457   2.067 -0.2547  0.1233 -0.0947
 3321W        W19795   1.938  16.632  14.434 -0.1711 -0.0614 -0.0038
 3322W        W19796   8.756  15.887   4.210 -0.2270  0.0471 -0.0090
 3323W        W19797  18.034  19.487  10.498 -0.2379 -0.2228 -0.4386
 3324W        W19798   1.503  10.456   0.317 -0.2792 -0.1759  0.0378
 3325W        W19799  17.823   7.063  10.391 -0.2704 -0.1760 -0.0123
 3326W        W19800   8.498   8.390   0.351 -0.1647  0.1495  0.2909
 3327W        W19801  11.581  10.499  11.122  0.0907 -0.0894  0.2554
 3328W        W19802  10.901  18.229   1.011  0.2817 -0.0047 -0.0830
 3329W        W19803   0.845  10.519   1.027 -0.1316  0.3945 -0.0682
 3330W        W19804  15.931  19.192  11.445  0.1508 -0.1172  0.0830
 3331W        W19805  12.253  11.992   3.653 -0.2600  0.1246  0.1108
 3332W        W19806   3.684  19.048  13.571 -0.2698 -0.2166 -0.3064
 3333W        W19807  15.888   6.691   0.670 -0.0004  0.0943 -0.2590
 3334W        W19808   6.987  18.817   2.108  0.0759  0.1024 -0.0486
 3335W        W19809  12.158  17.622  14.502  0.2231 -0.0526  0.0286
 3336W        W19810  10.467   4.554  14.204 -0.2358  0.0823 -0.0811
 3337W        W19811   1.144  17.985   1.322  0.1930  0.0937 -0.2262
 3338W        W19812   1.850  10.737   0.962 -0.1285 -0.1708  0.0116
 3339W        W19813   6.959  10.291   4.214  0.1114  0.0853  0.1032
 3340W        W19814  11.429   6.313  10.677  0.0920 -0.1582  0.0883
 3341W        W19815  11.211   4.003   0.606 -0.0099  0.1603  0.1094
 3342W        W19816  17.670   3.878   2.453  0.0121 -0.0756 -0.1845
 3343W        W19817   3.804   2.908  11.547 -0.1599  0.0292  0.1456
 3344W        W19818  11.958  18.884  10.662  0.0971 -0.2413 -0.1511
 3345W        W19819   6.660   3.906  10.767 -0.1977  0.0152  0.0483
 3346W        W19820  18.132  10.101   5.071 -0.1201 -0.3040 -0.2098
 3347W        W19821   9.974  19.263   1.776 -0.1234 -0.1676  0.0521
 3348W        W19822   0.834  10.406  10.121  0.2126 -0.0833 -0.1747
 3349W        W19823  17.916   8.592   2.289 -0.0352  0.3805 -0.2017
 3350W        W19824  16.290  18.435  14.015 -0.2460 -0.1974  0.5433
 3351W        W19825   7.305  19.097   1.707 -0.1231 -0.1477 -0.4181
 3352W        W19826   5.254  18.397  12.028  0.2156  0.2471  0.1548
 3353W        W19827  18.202   9.394   3.281 -0.0290  0.0768 -0.1449
 3354W        W19828  19.225   0.328  14.021 -0.1139 -0.3840 -0.0697
 3355W        W19829  15.839   2.110  12.252 -0.3459 -0.0738 -0.0224
 3356W        W19830  15.381   5.551   3.739  0.2798  0.0908 -0.4096
 3357W        W19831   5.285   7.941   2.562  0.3311 -0.3546  0.2236
 3358W        W19832   2.714   4.741   3.042 -0.1559 -0.0360 -0.1271
 3359W        W19833  16.774   5.290  11.628 -0.1847  0.2747 -0.0735
 3360W        W19834   3.762  13.106   0.441 -0.0555  0.0822  0.0618
 3361W        W19835  18.433  10.319  12.732 -0.3069  0.1838 -0.0876
 3362W        W19836  14.383  11.064  13.067  0.1714  0.2330  0.2186
 3363W        W19837  15.629   1.850  10.095  0.0344  0.1318 -0.0994
 3364W        W19838  13.681   4.540   2.477 -0.2305 -0.3117  0.0987
 3365W        W19839   7.944  11.257   0.534 -0.0430  0.3535 -0.1884
 3366W        W19840   8.995  13.205  13.644  0.1466 -0.0582  0.0390
 3367W        W19841  14.646   7.327  13.616 -0.1225 -0.0499 -0.0107
 3368W        W19842  19.054  16.707   2.376  0.0493  0.2193 -0.2119
 3369W        W19843  12.690   6.144  11.150 -0.1838  0.1196  0.0095
 3370W        W19844  12.046   7.585  14.649 -0.1737  0.2338  0.3158
 3371W        W19845  17.129   4.591  13.340 -0.3325 -0.1416  0.1242
 3372W        W19846  16.756   7.151  10.907  0.0057 -0.4958  0.4321
 3373W        W19847   0.271  18.688  10.463 -0.1919 -0.1322  0.1204
 3374W        W19848   5.491   8.321  11.202  0.2286 -0.0669  0.0285
 3375W        W19849   8.629   5.600  14.316 -0.0311 -0.0573  0.0579
 3376W        W19850   5.371   4.619  12.985 -0.0053 -0.0740 -0.0519
 3377W        W19851   4.961  16.470   0.718 -0.0062 -0.1354 -0.0673
 3378W        W19852   8.713  15.385   0.381  0.4296 -0.1051 -0.1206
 3379W        W19853   8.056   7.343  13.326 -0.2528  0.0729 -0.1535
 3380W        W19854   7.472   1.447   2.723 -0.0462 -0.1899  0.0890
 3381W        W19855  16.073  13.133  12.309  0.0299 -0.0360  0.0565
 3382W        W19856  17.366   0.511  14.009 -0.0463  0.3226  0.0787
 3383W        W19857  10.572  10.476  10.727  0.3916 -0.1161  0.0729
 3384W        W19858  13.140   3.472  14.073  0.1022 -0.0528 -0.0441
 3385W        W19859   5.988   5.164   1.316 -0.2662  0.2698 -0.0986
 3386W        W19860  17.363   3.929   3.379  0.1001 -0.1556  0.0779
 3387W        W19861  17.657  19.509   0.534 -0.1675 -0.0160  0.0448
 3388W        W19862   6.161   2.156   1.884  0.0597 -0.1818 -0.3045
 3389W        W19863   0.350   9.235   4.336  0.1772 -0.1272 -0.0544
 3390W        W19864   1.945   1.749  13.552 -0.4017 -0.0179 -0.2636
 3391W        W19865   5.635   2.479   1.823 -0.1507 -0.1051  0.3365
 3392W        W19866  10.118  13.393  11.829 -0.0035 -0.0485  0.0983
 3393W        W19867  13.397   8.393  11.814  0.0646 -0.0847 -0.1076
 3394W        W19868  14.551   6.380  13.650  0.0687 -0.4809 -0.3017
 3395W        W19869  15.923  18.596   1.901 -0.0366  0.0158 -0.1154
 3396W        W19870  16.987  14.135  11.515 -0.1265 -0.1232 -0.1334
 3397W        W19871   6.068  11.177  10.875 -0.1270  0.0609 -0.0194
 3398W        W19872  10.261  19.050  13.721 -0.1387  0.0739 -0.1517
 3399W        W19873   2.286  19.118  12.188 -0.0450  0.1201  0.3812
 3400W        W19874   5.678   0.249  11.016  0.2178 -0.1038 -0.3439
 3401W        W19875  13.950   8.838   0.925  0.0347 -0.3284 -0.1686
 3402W        W19876   8.860   1.642   2.636 -0.1572 -0.0172 -0.1143
 3403W        W19877   7.999  12.515  10.795  0.2067 -0.2763  0.4057
 3404W        W19878  10.466   4.731   0.585  0.0178 -0.0132  0.1512
 3405W        W19879  11.263  17.906   0.236 -0.2667  0.3040  0.0942
 3406W        W19880  12.332   2.603  10.659  0.3559 -0.0278  0.0470
 3407W        W19881  17.795   1.658   9.116  0.4621 -0.0929 -0.1638
 3408W        W19882  14.806  10.833  12.871  0.0195  0.1584 -0.3642
 3409W        W19883  11.221  13.526  12.964 -0.2685 -0.1784  0.2169
 3410W        W19884  12.378   7.997  11.138 -0.1483 -0.0244  0.0664
 3411W        W19885  10.196  18.545   2.474  0.0586  0.1381 -0.1379
 3412W        W19886  17.204  19.241   2.909 -0.1520  0.0607 -0.0553
 3413W        W19887   1.326   0.539   0.478 -0.0919 -0.1067 -0.2682
 3414W        W19888   3.013  17.522  12.527 -0.0497  0.1341  0.2990
 3415W        W19889  16.422  12.253   3.425 -0.4359 -0.2117 -0.4047
 3416W        W19890   3.670  10.630   0.507 -0.2718 -0.2401 -0.0517
 3417W        W19891   0.763  11.997   1.028  0.1141  0.3485 -0.1080
 3418W        W19892   7.854   8.703  14.491  0.0190 -0.1761  0.2024
 3419W        W19893  14.679  12.397  14.598 -0.1241  0.0678 -0.1395
 3420W        W19894  15.298   9.064  11.536 -0.3495 -0.3149 -0.2294
 3421W        W19895   6.795  14.127   4.079 -0.1460  0.3320 -0.3269
 3422W        W19896   7.772   0.470   3.036  0.0190  0.2951 -0.2404
 3423W        W19897  13.832  18.993   1.325 -0.1246 -0.1305  0.0427
 3424W        W19898  10.141   4.570   3.122 -0.1825 -0.2922 -0.1488
 3425W        W19899   9.175  13.529  11.162 -0.0753 -0.0122  0.1813
 3426W        W19900  13.651   0.036  14.350 -0.1245 -0.0650 -0.0086
 3427W        W19901  14.140   5.431   4.500 -0.1890  0.0543  0.2971
 3428W        W19902  14.247   6.006  14.213  0.0353  0.0442 -0.7112
 3429W        W19903  16.854   4.492   2.807 -0.1242  0.0094  0.0267
 3430W        W19904   9.506  16.167  14.572 -0.1698  0.1652 -0.1288
 3431W        W19905   1.770  15.040  10.468 -0.0156  0.0505 -0.3273
 3432W        W19906   4.399   9.034   2.013 -0.1682 -0.1458 -0.2669
 3433W        W19907   6.404  17.039   3.919 -0.1297 -0.0890  0.2373
 3434W        W19908   5.126  16.324   9.845  0.0554  0.1466  0.2043
 3435W        W19909   9.703  12.615   3.817  0.0853  0.0698  0.0841
 3436W        W19910   4.022  10.237  11.759  0.3501  0.3836  0.0497
 3437W        W19911  18.218   1.320   5.231  0.2817 -0.4601  0.2411
 3438W        W19912   6.464   4.669   4.036  0.0053  0.0743 -0.2192
 3439W        W19913   1.607  10.654  14.605  0.1082 -0.0116 -0.1510
 3440W        W19914   6.823   6.937   0.836 -0.2694  0.1323  0.1081
 3441W        W19915   2.062   1.897  14.545  0.0821  0.0260  0.1180
 3442W        W19916  10.507  11.665   2.796 -0.0117  0.4472  0.2788
 3443W        W19917   8.168  15.540   0.045  0.0979 -0.1189 -0.0175
 3444W        W19918   7.788   8.954   2.352 -0.1703 -0.2398 -0.0208
 3445W        W19919   3.228  15.430  10.323  0.2843  0.0082  0.1777
 3446W        W19920   0.156   9.791  13.022 -0.1498  0.0850 -0.0654
 3447W        W19921  16.834  13.413  11.535  0.1122 -0.1890  0.0423
 3448W        W19922   7.930   3.167   1.797 -0.0156  0.1411 -0.0319
 3449W        W19923   9.750  10.069  14.291 -0.0716 -0.1013 -0.2685
 3450W        W19924   9.232   2.975  10.608  0.2483  0.2759 -0.0540
 3451W        W19925   2.223   3.314  11.033  0.0947 -0.0171 -0.0050
 3452W        W19926  11.151  13.412   0.636  0.1334  0.1494 -0.1736
 3453W        W19927   9.610  15.869  13.659  0.0054  0.3540  0.0028
 3454W        W19928  19.171  16.060   1.893  0.0575  0.2564 -0.2080
 3455W        W19929  12.294   0.630   2.543  0.2080  0.2191  0.2095
 3456W        W19930   2.134  13.458   3.610 -0.1274  0.0888 -0.0238
 3457W        W19931   7.957  13.931  12.897 -0.3026  0.1571 -0.1765
 3458W        W19932  18.150   4.822   5.130  0.1931 -0.0207  0.1670
 3459W        W19933   0.774   9.680   9.434  0.1845  0.1422  0.2433
 3460W        W19934   9.234   1.769   4.401 -0.1801 -0.1336  0.1572
 3461W        W19935  14.348  16.866   2.574  0.0579 -0.2329  0.2123
 3462W        W19936   6.942   1.284  12.162  0.1324  0.2608  0.1399
 3463W        W19937   8.864  18.091   0.658  0.0446 -0.2016 -0.1827
 3464W        W19938   2.344  13.402   1.868  0.3223 -0.1207  0.1257
 3465W        W19939  16.824   8.539   0.096 -0.0712  0.3914  0.0473
 3466W        W19940  10.577   0.234   3.276 -0.2223 -0.1235 -0.3145
 3467W        W19941  14.270   2.441   2.111 -0.3894  0.1863 -0.1431
 3468W        W19942   9.404   4.038   0.302  0.1257  0.3214  0.2559
 3469W        W19943  15.644  17.039   2.883  0.0020  0.1141  0.1653
 3470W        W19944  14.664  16.281   4.661 -0.0818  0.1342  0.3209
 3471W        W19945   6.854  11.696   1.082 -0.0426 -0.2022 -0.2361
 3472W        W19946   8.182  18.681   0.972  0.1868 -0.0321  0.3376
 3473W        W19947   1.690  15.795  12.182  0.0492  0.0083  0.0102
 3474W        W19948  19.280   3.761   0.165 -0.1120  0.0250 -0.0089
 3475W        W19949   2.254   0.170  11.965  0.0792 -0.0231  0.1529
 3476W        W19950   2.480   4.284   2.291 -0.1207  0.1139 -0.1105
 3477W        W19951  10.004  17.624   2.923  0.4875 -0.0827  0.3870
 3478W        W19952   5.624   9.060  14.522  0.2447 -0.0236  0.1451
 3479W        W19953  13.410   1.121   1.720 -0.0827 -0.1453  0.1827
 3480W        W19954   0.355  17.975  11.226  0.0451 -0.0128 -0.0515
 3481W        W19955  10.345   8.685  13.142  0.0344  0.0834  0.2090
 3482W        W19956   2.358   5.211  10.796  0.2398  0.1028 -0.0929
 3483W        W19957   3.153  18.264   4.087 -0.1010  0.0947 -0.0301
 3484W        W19958   1.570   2.634  10.923  0.1223 -0.0822 -0.0143
 3485W        W19959  16.776  10.548   4.248 -0.2884  0.0736  0.1722
 3486W        W19960  15.543   2.185  10.539 -0.0108 -0.1223 -0.0133
 3487W        W19961  13.103   7.673   0.574  0.0543 -0.1055 -0.0930
 3488W        W19962  13.922  15.630   4.584  0.0029 -0.0848  0.1660
 3489W        W19963   7.256  12.746   9.940  0.0850  0.0794 -0.0005
 3490W        W19964  19.400   7.781  14.309 -0.0896  0.2197  0.2736
 3491W        W19965  13.749   6.153  11.734 -0.1203 -0.0557 -0.0679
 3492W        W19966   7.146  15.466   1.198  0.2305  0.0380  0.1757
 3493W        W19967  13.740  13.557   3.143  0.0131 -0.0389 -0.1284
 3494W        W19968   0.461   7.700  11.756 -0.2839 -0.1372 -0.1370
 3495W        W19969   3.443  13.644   2.296 -0.4018  0.3121  0.1834
 3496W        W19970   2.017   1.974   1.138  0.3827 -0.1266  0.1244
 3497W        W19971  16.466   1.371  11.302  0.0064  0.1051  0.0390
 3498W        W19972  17.876  15.113   4.246 -0.2287 -0.0803 -0.0077
 3499W        W19973  13.854  15.822   5.152  0.2681  0.0500 -0.2830
 3500W        W19974  17.933  10.174   0.228 -0.4181 -0.4107 -0.1244
 3501W        W19975   9.395   9.357  11.020  0.1328  0.1377  0.1419
 3502W        W19976  19.561  16.625   3.919 -0.0748  0.2207  0.2152
 3503W        W19977   2.095   2.311   2.624 -0.3412 -0.0570  0.0938
 3504W        W19978   4.503  19.102  10.845 -0.1416 -0.0372 -0.1667
 3505W        W19979   1.558  11.208   1.078 -0.0742  0.2395 -0.2276
 3506W        W19980  12.548  18.994   1.165 -0.2096 -0.0494 -0.0723
 3507W        W19981   9.424   7.074  14.470  0.0849  0.2195  0.3174
 3508W        W19982   7.707   2.815   9.704 -0.5299  0.0239  0.1281
 3509W        W19983   8.955  10.743   1.245 -0.2158 -0.1633 -0.3162
 3510W        W19984  10.527  18.781   4.880  0.0924 -0.2024  0.1953
 3511W        W19985   1.389  16.636   2.981  0.2664 -0.1651 -0.1602
 3512W        W19986   3.908   3.136  10.875  0.2148  0.2924 -0.0782
 3513W        W19987  13.465   1.185  14.404  0.4710 -0.3150 -0.1396
 3514W        W19988   4.019  11.363  11.191 -0.1081 -0.0669 -0.2016
 3515W        W19989  19.333  13.516  14.178  0.1038  0.0254 -0.0425
 3516W        W19990   1.093   3.034   2.652 -0.2121  0.1027  0.1659
 3517W        W19991   9.146  13.177  11.687 -0.1842 -0.0773  0.1657
 3518W        W19992  12.461  16.246  11.085  0.2224  0.1123  0.3264
 3519W        W19993  12.060   5.303   3.362  0.0872  0.0659  0.0328
 3520W        W19994   0.865   8.997   3.492 -0.1982  0.0428  0.0408
 3521W        W19995   3.953   9.808  12.670  0.0312  0.0334  0.0579
 3522W        W19996  10.150  10.247  11.933 -0.1626 -0.2968  0.0006
 3523W        W19997   4.699   8.134   4.646  0.1045  0.0047 -0.0715
 3524W        W19998  17.815   7.313   1.197  0.2034  0.4049  0.1058
 3525W        W19999  13.105  11.394  10.284  0.3128 -0.0289 -0.3892
 3526W        W20000   5.274   2.230  13.185 -0.0318  0.0468  0.1801
 3527W        W20001   7.482   2.958  10.583  0.3259  0.4917 -0.2960
 3528W        W20002   9.926  17.219   4.551 -0.2179 -0.0072  0.1872
 3529W        W20003   2.824   8.712   0.764 -0.3457  0.2876 -0.0915
 3530W        W20004   1.906  14.396   2.476 -0.1383  0.2694 -0.0158
 3531W        W20005   2.918   7.575  13.633  0.2114  0.0067  0.0803
 3532W        W20006   6.304  16.420  14.303 -0.3889 -0.0841 -0.0091
 3533W        W20007  11.948  18.125   1.100  0.0274  0.0967 -0.2433
 3534W        W20008  10.526  18.272  14.162 -0.1685  0.0960  0.2090
 3535W        W20009   9.531  18.599   4.502  0.3031  0.0523  0.0041
 3536W        W20010  13.974  16.510   4.538 -0.0734  0.3411  0.1944
 3537W        W20011  19.305  11.507   0.637 -0.1184  0.1215 -0.3582
 3538W        W20012   3.526   2.107   8.847  0.0431 -0.1954 -0.2243
 3539W        W20013  17.665   8.850   0.710  0.2835 -0.1568 -0.1913
 3540W        W20014   3.340  10.738  10.821  0.2352  0.2514 -0.2893
 3541W        W20015   5.356   6.303   3.184  0.2299 -0.1381 -0.1399
 3542W        W20016  10.809  17.346  14.024  0.2359  0.1397 -0.3044
 3543W        W20017   2.619   1.215  12.630 -0.0333 -0.1813  0.1222
 3544W        W20018   7.649   4.938   2.540  0.0932  0.3024  0.2691
 3545W        W20019  14.810  19.054  13.812 -0.0996 -0.0487 -0.1317
 3546W        W20020   7.470   2.902   0.628 -0.0403 -0.3304 -0.0378
 3547W        W20021  18.350   0.893  13.653 -0.1604 -0.1605  0.1241
 3548W        W20022  13.978  13.120   5.102  0.2431 -0.0762  0.2431
 3549W        W20023   1.695  11.741   3.450 -0.0448 -0.0482 -0.4038
 3550W        W20024   9.759   8.284   3.756  0.2018 -0.0371 -0.0220
 3551W        W20025   3.565  12.306   2.673 -0.0839 -0.2994  0.0675
 3552W        W20026  19.394  13.664  11.021 -0.3819  0.3084  0.3315
 3553W        W20027  17.697   2.994  13.055  0.0045 -0.0519 -0.0306
 3554W        W20028   3.816   9.033   2.977 -0.0740 -0.2592 -0.0372
 3555W        W20029   4.314   9.361   2.611  0.0397  0.2169  0.0547
 3556W        W20030  18.770  12.517   4.239 -0.1232  0.2165 -0.0484
 3557W        W20031   1.868   2.971  10.576  0.0787 -0.3733 -0.0664
 3558W        W20032   9.476  18.636   9.963 -0.2356  0.0040 -0.0468
 3559W        W20033  16.390  14.727   2.994  0.0840  0.1046 -0.1832
 3560W        W20034  18.566   8.515  13.167 -0.1170  0.2301  0.0252
 3561W        W20035   2.174   1.467  13.860  0.2246 -0.2679  0.1442
 3562W        W20036   5.391   1.565   1.984 -0.1341  0.2888 -0.0126
 3563W        W20037   6.542  13.910  13.608 -0.4545 -0.2586 -0.1023
 3564W        W20038   2.249  15.931  12.897 -0.2387  0.1816 -0.0488
 3565W        W20039   7.900  13.766   1.972 -0.1592  0.0304 -0.0370
 3566W        W20040   7.343   3.356   3.737  0.0989  0.0034 -0.0666
 3567W        W20041  16.168  10.954   0.574 -0.3250 -0.4270  0.0047
 3568W        W20042   6.800  18.658   2.497  0.1389  0.0210  0.1613
 3569W        W20043  10.031   4.720  12.832  0.0694 -0.0595  0.0521
 3570W        W20044   4.615  13.827  10.230 -0.1182 -0.1583  0.1601
 3571W        W20045  10.256   5.072   3.365 -0.2254 -0.4027  0.0304
 3572W        W20046  14.635   6.537  13.089 -0.0321 -0.0625 -0.1117
 3573W        W20047   7.629   1.397   4.756 -0.1192 -0.2058 -0.2015
 3574W        W20048  11.677  12.655  14.133  0.1840 -0.0471 -0.0290
 3575W        W20049   9.358   7.451   5.046 -0.3458 -0.1050  0.0097
 3576W        W20050   9.338  18.664   0.086  0.0812 -0.1403  0.2166
 3577W        W20051   1.217   4.308  12.500  0.2093 -0.1931  0.0943
 3578W        W20052  17.840   3.746   4.353 -0.2493  0.2095 -0.0431
 3579W        W20053  12.039  16.003  11.298 -0.1127  0.0947  0.0040
 3580W        W20054  16.151  15.755  13.654 -0.1993  0.2383 -0.1394
 3581W        W20055   9.285   4.334  10.509 -0.0211 -0.2279 -0.0470
 3582W        W20056   1.868   9.774   3.728 -0.1743 -0.0808  0.3518
 3583W        W20057  17.267   2.961   5.148 -0.0137 -0.3051 -0.0539
 3584W        W20058   6.973   7.098   2.275  0.1367  0.1340  0.0187
 3585W        W20059  17.675  14.491  14.630 -0.1393 -0.1272 -0.0964
 3586W        W20060   3.772  14.973   2.428 -0.0402 -0.2747  0.3087
 3587W        W20061   7.619   9.442   3.148 -0.0322  0.1284  0.1355
 3588W        W20062   3.012  12.752  14.445  0.1274 -0.1014 -0.0967
 3589W        W20063  13.783   3.430  10.079  0.1900  0.1380 -0.0135
 3590W        W20064  15.795  14.329   4.142  0.2659  0.0309  0.1828
 3591W        W20065   6.785  10.691  13.977 -0.1537  0.0716 -0.1856
 3592W        W20066   5.598  13.944  11.714 -0.0081 -0.0217 -0.2409
 3593W        W20067  17.370   7.963  11.468  0.1717  0.0190  0.0566
 3594W        W20068  11.709  17.532   1.805  0.0646 -0.0191  0.3666
 3595W        W20069  18.224   7.509   4.559  0.2997 -0.2802  0.7022
 3596W        W20070  14.913  11.925  12.399 -0.5159  0.1001  0.0209
 3597W        W20071  18.743   0.852   0.775 -0.0600  0.0314 -0.2850
 3598W        W20072  10.252   6.733  12.427  0.1788 -0.0676 -0.0842
 3599W        W20073   7.991   4.137   3.552 -0.2899  0.4050  0.0757
 3600W        W20074  14.974   9.436  13.268  0.0132  0.5731 -0.1527
 3601W        W20075   1.858   4.876   1.325  0.0148  0.0597  0.0021
 3602W        W20076  11.350   9.317  10.723 -0.3378  0.0914 -0.0961
 3603W        W20077   8.736   6.753   0.132 -0.1520  0.1311 -0.0047
 3604W        W20078   3.840   5.671   4.330 -0.0791  0.1793 -0.0244
 3605W        W20079   6.908   3.958   0.206  0.1422 -0.0362  0.0903
 3606W        W20080  16.286   0.794   9.614  0.1802  0.2459  0.0527
 3607W        W20081  17.290   6.555   4.697 -0.1497 -0.0410  0.0767
 3608W        W20082  13.550   4.101   2.909  0.0009 -0.2170 -0.2178
 3609W        W20083   6.674   3.545   4.271 -0.0533 -0.0993  0.5192
 3610W        W20084  10.241  15.167   4.115  0.3061 -0.1155  0.0400
 3611W        W20085   0.515  13.087  14.385 -0.0470 -0.1085  0.1804
 3612W        W20086  12.122  14.037   1.229  0.2562  0.1870  0.0792
 3613W        W20087  14.269  10.252  14.293 -0.0702 -0.0082  0.0275
 3614W        W20088   8.176   5.193   2.475  0.0860 -0.3000 -0.2088
 3615W        W20089  18.673   8.059   3.502 -0.1615  0.2898 -0.3399
 3616W        W20090   4.399  17.100  12.951  0.1888 -0.1422 -0.2917
 3617W        W20091   8.216  15.191   4.625  0.2317  0.1924  0.1933
 3618W        W20092   0.247  14.987  12.283  0.1887 -0.1866  0.0853
 3619W        W20093   6.823   3.501  12.155  0.0841  0.1520  0.0528
 3620W        W20094   6.385  14.554  12.015 -0.0139  0.1879 -0.1602
 3621W        W20095   5.717   1.906   0.581  0.2503  0.0655 -0.2603
 3622W        W20096  11.755  13.752  14.330  0.0942  0.2005  0.1135
 3623W        W20097  12.836   9.678  10.966  0.1460  0.3827  0.0890
 3624W        W20098   9.254  10.100  11.842  0.0139 -0.0938  0.0394
 3625W        W20099  17.760   8.565  10.953  0.0149  0.0496 -0.1696
 3626W        W20100   1.569   2.837   3.926  0.1146  0.0121  0.0469
 3627W        W20101  17.644   7.282   2.083  0.2053  0.0125  0.1058
 3628W        W20102   1.592  17.255   9.723  0.2288 -0.0589  0.1649
 3629W        W20103  18.799  12.630   0.178  0.1429 -0.0854  0.2420
 3630W        W20104   3.378  18.855  14.487  0.0928 -0.0156 -0.0155
 3631W        W20105  18.747   9.673  10.962  0.0027  0.1693  0.2850
 3632W        W20106   1.877  11.933   0.288 -0.0517  0.1341  0.0578
 3633W        W20107   9.984   5.597  12.434  0.1016  0.0030  0.0002
 3634W        W20108   3.047  14.301   4.197 -0.2439  0.2607  0.0093
 3635W        W20109   1.331  11.603  12.834  0.0120  0.3155 -0.3413
 3636W        W20110  11.183  18.426   4.719 -0.4089  0.0265 -0.2132
 3637W        W20111   2.144   7.727   4.456 -0.2019  0.1343  0.3393
 3638W        W20112   7.260   1.773  10.699 -0.0289  0.0944 -0.1094
 3639W        W20113  16.035  14.359   0.946 -0.1993  0.0574  0.2977
 3640W        W20114  17.437  10.137  12.006 -0.4076 -0.0115 -0.0687
 3641W        W20115  13.052  16.608   2.851 -0.1315 -0.0881 -0.2746
 3642W        W20116   8.788   9.684   0.061 -0.4302 -0.0120 -0.0415
 3643W        W20117   5.320   0.292   4.544  0.0718  0.0833 -0.0860
 3644W        W20118   4.956   2.151   9.337 -0.2606 -0.1104 -0.3230
 3645W        W20119   4.469  10.351  14.604  0.2276  0.0549 -0.1112
 3646W        W20120   0.084  19.319  14.680  0.0436  0.0601  0.0551
 3647W        W20121   3.483  18.033   1.417  0.2485  0.1937 -0.1538
 3648W        W20122   0.639  17.049   2.029 -0.0205 -0.0907 -0.1153
 3649W        W20123  16.303   8.436   1.443  0.1970 -0.2597 -0.1520
 3650W        W20124   8.798   7.297   2.858 -0.1800  0.1341  0.2062
 3651W        W20125   7.992   8.038   4.886 -0.0920  0.0262  0.2060
 3652W        W20126  10.369  15.060  13.480 -0.1624  0.0014 -0.1005
 3653W        W20127  14.218   7.809   4.487  0.1407  0.3377  0.2975
 3654W        W20128  19.414  10.984   1.731  0.1449  0.0435  0.3298
 3655W        W20129   7.857   1.141   0.122  0.0456  0.1068  0.1176
 3656W        W20130  15.432   6.175  13.697 -0.1532  0.1018  0.2747
 3657W        W20131   4.623   4.908   3.012  0.0743 -0.0734  0.0080
 3658W        W20132   7.985  10.601  14.701 -0.1140 -0.0720 -0.1124
 3659W        W20133  14.819   4.399  12.826 -0.2619  0.0255 -0.0938
 3660W        W20134   3.022   8.276  12.489 -0.1567  0.0534 -0.1079
 3661W        W20135   1.458  15.908  13.939 -0.1350  0.2193 -0.2212
 3662W        W20136   9.752  12.554   1.654 -0.2259  0.1418  0.3275
 3663W        W20137  14.567   1.736   1.216  0.2060  0.2615  0.0975
 3664W        W20138   8.486   8.024  10.815  0.1802  0.3355  0.1003
 3665W        W20139   7.692   3.456   4.100 -0.0607 -0.0496  0.2955
 3666W        W20140   1.110   4.876  10.709  0.0807  0.3421  0.1437
 3667W        W20141  12.883  15.095   0.392  0.0129 -0.3270  0.0918
 3668W        W20142   6.732   5.811  11.788 -0.2261 -0.0676 -0.2216
 3669W        W20143  11.812  19.251  10.983  0.3202  0.0042  0.3972
 3670W        W20144   1.557   7.155   0.361  0.1119 -0.0637 -0.1459
 3671W        W20145  13.839  15.700  12.180 -0.1877 -0.2239  0.2610
 3672W        W20146   0.916  17.697  10.850 -0.1268 -0.0553  0.2345
 3673W        W20147  11.171   9.201  13.356 -0.0313  0.1876  0.1327
 3674W        W20148  17.419  16.968   0.509  0.0958  0.1116 -0.4481
 3675W        W20149   6.559   6.531  11.184  0.4326 -0.1990 -0.0002
 3676W        W20150   1.349   0.422   1.559 -0.2136 -0.2595  0.0548
 3677W        W20151  15.829  16.605  12.568 -0.1218 -0.1898 -0.1316
 3678W        W20152   6.178   2.180   4.449  0.0906  0.2414 -0.1125
 3679W        W20153   5.538   0.728   0.437 -0.3838  0.1060 -0.1945
 3680W        W20154  17.179   5.028  10.635 -0.1825 -0.1859 -0.2496
 3681W        W20155  18.964  16.002   9.655  0.2603 -0.0418 -0.0500
 3682W        W20156   2.301  14.127  10.651  0.1129 -0.2001  0.1449
 3683W        W20157   5.059  14.712  10.059 -0.4049 -0.1289  0.4393
 3684W        W20158  12.011   4.454   4.113 -0.1469  0.1347  0.0483
 3685W        W20159   3.037   2.543  12.173  0.0974  0.1219  0.1606
 3686W        W20160  13.447   5.736   0.576 -0.1180 -0.0714  0.2307
 3687W        W20161   6.436  13.265   3.316 -0.1970 -0.1140  0.0552
 3688W        W20162  11.672  13.836  10.864 -0.1141  0.0495  0.1663
 3689W        W20163  15.201   7.844   4.663 -0.0907 -0.1433  0.2086
 3690W        W20164   6.613  11.130   3.358  0.2625 -0.0111  0.1948
 3691W        W20165   9.957  10.222   1.695  0.1795  0.0243 -0.0492
 3692W        W20166   5.506  10.838   0.294 -0.3741  0.3032  0.0720
 3693W        W20167  19.141  16.610  13.556  0.2033 -0.0214 -0.0598
 3694W        W20168   3.015   5.382  11.961  0.2685  0.2171 -0.1410
 3695W        W20169  19.143   4.228   2.119  0.0335  0.0572  0.0013
 3696W        W20170  13.628  15.943  14.517  0.0369  0.0067 -0.2166
 3697W        W20171   2.921  16.688   1.777  0.2753  0.0792  0.0033
 3698W        W20172   8.294   6.795   1.034 -0.2449  0.0585 -0.1110
 3699W        W20173  15.592  12.400  11.007  0.0632  0.0081 -0.1213
 3700W        W20174   9.091  10.380   5.143 -0.0469  0.0938  0.2282
 3701W        W20175   4.463   6.241   3.628 -0.1220  0.3117  0.2085
 3702W        W20176  12.640  14.166  12.821 -0.3586 -0.3131 -0.2003
 3703W        W20177  13.817   3.425  11.475 -0.2014  0.2303 -0.1303
 3704W        W20178   7.121  14.215  12.840 -0.2366 -0.1164  0.2267
 3705W        W20179   9.832  19.370  12.987  0.1805 -0.2817 -0.3059
 3706W        W20180  14.853   4.820   3.861  0.1166 -0.0681 -0.2685
 3707W        W20181  16.808   7.552  11.186  0.3073 -0.0444  0.1008
 3708W        W20182   2.864  12.937   1.581  0.4425  0.0172  0.2465
 3709W        W20183   5.859  10.484   0.383 -0.1587  0.0014  0.0053
 3710W        W20184   2.655  14.887   2.628 -0.2898 -0.2950 -0.2010
 3711W        W20185   7.880  13.987  13.836  0.0955  0.1532 -0.0285
 3712W        W20186   8.408   7.953   3.148  0.1037 -0.0353  0.1431
 3713W        W20187   2.525   5.235   3.307 -0.3567  0.1159 -0.0676
 3714W        W20188   6.422   2.576  13.914 -0.1767  0.0607  0.1331
 3715W        W20189  16.572  18.843   5.099 -0.2183  0.2151  0.2894
 3716W        W20190   7.681   8.267   5.233 -0.1152  0.1091  0.2090
 3717W        W20191   9.522  15.506   1.718  0.0094  0.2689 -0.0886
 3718W        W20192  16.394   0.929   1.971 -0.1598 -0.0856  0.0518
 3719W        W20193   0.237  18.721  13.283  0.1458  0.0080  0.0251
 3720W        W20194  17.046   5.887  14.128  0.0699  0.0254  0.0591
 3721W        W20195  13.515   5.904   2.732  0.0297 -0.0902 -0.0466
 3722W        W20196  12.996   5.379   9.478  0.1918  0.1933  0.1525
 3723W        W20197   8.491  17.216  10.958  0.3772  0.0561 -0.1282
 3724W        W20198  18.088  19.382   3.787 -0.2134 -0.0232  0.0979
 3725W        W20199   7.147  10.249   3.655 -0.2419  0.0677 -0.1223
 3726W        W20200  11.426  13.887   0.366 -0.4622  0.3662 -0.2102
 3727W        W20201  16.134   3.259  10.517 -0.0329  0.0475  0.1932
 3728W        W20202  10.317  16.703   0.188 -0.1772 -0.2514  0.0371
 3729W        W20203   4.010   2.928   0.759  0.1323 -0.2587  0.0329
 3730W        W20204   5.887   3.696   4.571  0.0955 -0.0184  0.3231
 3731W        W20205   1.353  19.022  14.157  0.5601  0.0733 -0.1070
 3732W        W20206   6.858  11.156   3.846  0.1927  0.3436  0.1953
 3733W        W20207  12.407  16.822  14.106  0.0375  0.1522  0.0795
 3734W        W20208  17.551  11.712  14.354 -0.1157  0.2735  0.0856
 3735W        W20209   3.550   7.305  10.271 -0.0336  0.1686 -0.2957
 3736W        W20210   5.357  18.983  14.238 -0.0198  0.2753  0.2514
 3737W        W20211  11.997   1.037  12.370  0.1471 -0.3248 -0.0226
 3738W        W20212   1.740  18.961   3.625 -0.1509 -0.2159  0.0321
 3739W        W20213  15.089  11.901  10.044 -0.2382 -0.2519 -0.0077
 3740W        W20214  11.788   0.552   3.462  0.1715 -0.0361  0.2459
 3741W        W20215   9.358   7.376   2.897  0.0769 -0.1616 -0.1602
 3742W        W20216   2.373  18.831   0.889  0.1124 -0.0785 -0.3658
 3743W        W20217   7.666  10.570   2.318  0.3877 -0.0030 -0.0818
 3744W        W20218   5.323   0.313   0.586  0.1069  0.1341  0.0654
 3745W        W20219  19.133  15.302  13.883  0.1872 -0.0888  0.1659
 3746W        W20220  17.024   2.321   3.883  0.0026 -0.0891 -0.2951
 3747W        W20221  10.673   1.673   9.930 -0.0832  0.3634  0.0831
 3748W        W20222   3.160   2.446   2.865 -0.0233  0.0418 -0.1519
 3749W        W20223  17.747   1.578  13.248  0.0251  0.3075 -0.0431
 3750W        W20224   4.372   2.250  12.264  0.2139 -0.0692  0.2513
 3751W        W20225  12.294   1.458  12.156 -0.0069  0.1115 -0.1438
 3752W        W20226   7.229  13.134  14.578  0.1698  0.0550  0.0555
 3753W        W20227  17.191   0.205  11.913  0.3281 -0.0004 -0.1696
 3754W        W20228   2.900   6.161  12.734  0.0894 -0.0161 -0.4842
 3755W        W20229  12.079   3.352  12.966 -0.1523  0.3309  0.0900
 3756W        W20230  12.487   0.420   0.413  0.1808  0.1139 -0.3946
 3757W        W20231  10.984  11.616   0.071  0.4265 -0.0656 -0.0180
 3758W        W20232   5.092  18.943   3.159  0.0477  0.3596  0.1782
 3759W        W20233   6.292  17.113  10.528  0.0861  0.1267  0.0381
 3760W        W20234   9.981  16.742   3.374  0.0270 -0.1083  0.4117
 3761W        W20235  12.370  18.592  14.418 -0.2135 -0.0889  0.0864
 3762W        W20236   3.646   4.442  10.974  0.1116 -0.0896 -0.0526
 3763W        W20237   5.261  11.622  13.138  0.3803  0.2002 -0.1609
 3764W        W20238  18.685   2.598   3.332 -0.0167 -0.0449 -0.2553
 3765W        W20239  16.821   4.634   0.447 -0.0974  0.0884 -0.4561
 3766W        W20240  17.883  14.796   2.151  0.3742  0.0177  0.2490
 3767W        W20241  17.776  15.603  14.148 -0.0021  0.2464  0.2549
 3768W        W20242  10.082   7.356   4.508 -0.1428  0.2143 -0.2646
 3769W        W20243   1.545   3.509  13.840  0.0340  0.3008  0.0505
 3770W        W20244   4.123  13.702   3.009 -0.0543  0.1156 -0.0801
 3771W        W20245  16.151   5.170   3.725  0.1958 -0.1858  0.2275
 3772W        W20246   6.616   6.595   0.541 -0.2523  0.2534 -0.3021
 3773W        W20247   8.830   0.023   1.963 -0.2144 -0.0612 -0.0564
 3774W        W20248  10.340   7.473  10.803  0.0563  0.1602 -0.0286
 3775W        W20249   1.118  18.727  10.313  0.1738  0.0110  0.1926
 3776W        W20250  16.472   3.354   0.575  0.3230  0.2165  0.1643
 3777W        W20251   1.911  13.232  10.226  0.3572 -0.1016 -0.1000
 3778W        W20252   8.415   2.752   0.513  0.1037  0.5584  0.0342
 3779W        W20253  15.709  12.427   1.365 -0.0455 -0.0907  0.1916
 3780W        W20254  19.113   2.756   3.559 -0.4209 -0.0818 -0.0837
 3781W        W20255   7.572   8.126  10.372 -0.0184 -0.0463 -0.3844
 3782W        W20256  15.613   9.557   4.611  0.1435 -0.0424 -0.0627
 3783W        W20257  11.868   5.247   4.149  0.1581  0.1667  0.0250
 3784W        W20258   4.124  16.355   0.160  0.1180 -0.3445  0.2686
 3785W        W20259  10.031  11.099   0.878 -0.3168 -0.0137 -0.0002
 3786W        W20260  10.456  14.408  10.627  0.1143  0.2761  0.1341
 3787W        W20261  11.572   0.153   3.244 -0.0483  0.2875  0.3056
 3788W        W20262  18.634   5.544   0.378 -0.1524 -0.2666 -0.1637
 3789W        W20263   2.573  14.802  11.638 -0.0889  0.1971 -0.0547
 3790W        W20264   1.166   8.056   5.278  0.1769 -0.2154  0.1835
 3791W        W20265  13.871  15.134   0.321 -0.0614 -0.2276  0.0981
 3792W        W20266  12.558   8.588  12.384  0.1729 -0.0165 -0.3301
 3793W        W20267   9.755  19.299   0.930 -0.2571  0.0449  0.0089
 3794W        W20268   4.934  11.428   0.988  0.2690  0.1790  0.0914
 3795W        W20269  11.206   4.911   0.119  0.2240 -0.3007  0.2655
 3796W        W20270  12.143   2.862  11.063  0.0015 -0.0830 -0.0018
 3797W        W20271   5.896  11.130   9.942 -0.2144 -0.2995  0.1340
 3798W        W20272   5.993   8.973   2.256 -0.0042  0.1487  0.1925
 3799W        W20273  18.411   5.730  14.470  0.1899  0.0365 -0.2027
 3800W        W20274  14.717  17.859   2.692  0.1687  0.2403 -0.3962
 3801W        W20275  17.554   5.103   4.358  0.0764  0.3293  0.2261
 3802W        W20276  16.234  10.373   1.573  0.0827 -0.0030  0.1973
 3803W        W20277   6.889   7.852  13.480  0.0648  0.3670 -0.2949
 3804W        W20278  18.173   2.179  12.404 -0.1150 -0.0629 -0.2070
 3805W        W20279  12.397   1.576   2.367  0.3769  0.1206 -0.1650
 3806W        W20280   1.637   0.235   3.286 -0.1053  0.0598 -0.0729
 3807W        W20281   0.464  13.085   9.965  0.3269  0.1886 -0.3021
 3808W        W20282  16.775  15.331   4.824  0.1319  0.0420 -0.3939
 3809W        W20283   5.843  14.006   2.747 -0.1502 -0.1471  0.0113
 3810W        W20284  13.582  12.805   9.470 -0.1061 -0.0234 -0.1648
 3811W        W20285   0.698   3.839   3.543 -0.1366 -0.0007  0.1034
 3812W        W20286   7.631   7.345   1.603 -0.1274  0.5910 -0.2356
 3813W        W20287   3.952   8.277   3.410  0.3579  0.0227 -0.0506
 3814W        W20288   1.836  19.377   2.042  0.3723 -0.2481 -0.1394
 3815W        W20289   9.179   6.144  13.847  0.1245 -0.1674  0.1873
 3816W        W20290   4.394  10.341  12.793 -0.0200  0.2429 -0.1232
 3817W        W20291   4.703  13.430  10.894  0.2111 -0.1135 -0.0962
 3818W        W20292  13.020  19.468   4.733 -0.3695  0.2055  0.0653
 3819W        W20293  18.755  19.454  12.770 -0.2821  0.1124  0.2805
 3820W        W20294  10.011  18.300  11.553 -0.1556 -0.1326  0.0665
 3821W        W20295  10.504  10.976  14.714  0.2849  0.2973 -0.0884
 3822W        W20296   3.771   5.953   1.992 -0.1257 -0.0089 -0.0993
 3823W        W20297   2.972  14.167   1.849  0.0877 -0.1254 -0.0357
 3824W        W20298  12.595   0.440   2.000 -0.0238 -0.1446  0.0280
 3825W        W20299   1.241  16.309   1.596 -0.0849 -0.1059 -0.2375
 3826W        W20300   0.107  18.929  11.354  0.2871  0.4460  0.2530
 3827W        W20301   3.742   3.360   2.696 -0.5117 -0.0518 -0.3043
 3828W        W20302   1.772   2.203   4.116 -0.2345  0.1478 -0.3618
 3829W        W20303  15.083  12.438   4.298  0.4597  0.0902  0.2377
 3830W        W20304   3.518   6.802  10.604  0.0427  0.1511 -0.3814
 3831W        W20305   6.325  10.688   2.132 -0.0419 -0.1297 -0.1222
 3832W        W20306   4.494   3.540   3.196 -0.1112  0.1969  0.0113
 3833W        W20307   9.332   8.564  10.354 -0.1073  0.2917 -0.2228
 3834W        W20308  10.917  19.264   1.214 -0.4197 -0.0071 -0.1760
 3835W        W20309   7.712   1.539   2.277 -0.2023 -0.2138  0.1074
 3836W        W20310  12.197   2.417   2.198  0.1333  0.2915  0.1221
 3837W        W20311  15.773  14.327   4.659  0.0339 -0.2427  0.0864
 3838W        W20312  10.023  15.103   9.490  0.0061 -0.0438 -0.1441
 3839W        W20313   5.887  12.288   5.114 -0.0051  0.1587  0.3648
 3840W        W20314   8.598   2.392   2.902 -0.0324  0.1725 -0.1276
 3841W        W20315   9.671  14.330  12.913  0.0350 -0.0673 -0.2395
 3842W        W20316   1.409  10.269   3.226  0.1806  0.2160 -0.4096
 3843W        W20317   2.915  12.464   1.565 -0.0152 -0.2723  0.1017
 3844W        W20318   0.455  14.455  13.581 -0.1979  0.3821  0.0655
 3845W        W20319   6.353   7.147  11.478 -0.1084 -0.1240 -0.0725
 3846W        W20320  10.453  17.109  12.449 -0.2318  0.0034  0.1522
 3847W        W20321  10.295  16.932  12.893 -0.2912 -0.1262 -0.1069
 3848W        W20322  13.367   2.504   4.655 -0.0186  0.1298 -0.0283
 3849W        W20323   0.179   2.370  10.824  0.0470  0.3243  0.2964
 3850W        W20324   9.222   0.283  10.365  0.1672 -0.0043  0.0388
 3851W        W20325  12.176   3.257   1.135 -0.0529  0.0105 -0.0468
 3852W        W20326  13.443  14.858   0.059  0.0147 -0.1277 -0.0351
 3853W        W20327   4.992  18.840   0.893  0.2930  0.1137 -0.0621
 3854W        W20328   4.111  11.153  14.458  0.0195  0.2570 -0.1828
 3855W        W20329   4.549   2.270   9.940  0.1472 -0.5348 -0.4744
 3856W        W20330   4.678   0.324  13.461  0.1269 -0.4313 -0.1232
 3857W        W20331   3.005   2.071   2.380  0.1615  0.0784  0.2550
 3858W        W20332  11.263  10.657   5.211 -0.1820 -0.2139  0.0586
 3859W        W20333  19.409   2.546   1.866  0.3699 -0.1442 -0.0147
 3860W        W20334  12.415  10.544   3.837 -0.0270  0.0397  0.0202
 3861W        W20335  18.432  19.455  11.307 -0.0803 -0.0036  0.0383
 3862W        W20336  17.810   7.265  12.982  0.0757 -0.3639  0.0729
 3863W        W20337   9.530  14.375  10.881 -0.2400 -0.0612 -0.0182
 3864W        W20338   1.309   0.736   2.207 -0.0325 -0.2008  0.2260
 3865W        W20339   2.597   9.958   4.839 -0.1760  0.0120 -0.1360
 3866W        W20340   1.603  17.252  12.271  0.0339  0.0034 -0.2998
 3867W        W20341  17.301   6.633   1.503  0.3066  0.5852 -0.0474
 3868W        W20342   0.451   1.281   3.316 -0.0575  0.0736 -0.0115
 3869W        W20343   4.276  10.839  11.257 -0.2726  0.1041  0.0836
 3870W        W20344   0.734  15.065   4.687 -0.3146 -0.1104 -0.0794
 3871W        W20345  18.788  10.191  10.843 -0.1715  0.0192 -0.2414
 3872W        W20346   5.898  10.311   2.628  0.0763 -0.0651 -0.2928
 3873W        W20347   9.907   4.000   0.400  0.1031  0.0515  0.0440
 3874W        W20348   0.778   8.381  14.332  0.1869  0.4582 -0.2366
 3875W        W20349  15.215  17.321  13.476  0.4692  0.0109  0.0878
 3876W        W20350  11.285   8.342  11.681  0.0175 -0.0961 -0.1248
 3877W        W20351  19.518   1.533   9.706 -0.0136 -0.0382  0.0655
 3878W        W20352  18.124  17.546   0.689 -0.0184 -0.0067  0.1409
 3879W        W20353  12.683   2.110   2.222 -0.0213  0.0547 -0.0171
 3880W        W20354  13.324  18.177   0.761 -0.0499 -0.1242  0.1220
 3881W        W20355  15.421   2.450  14.141 -0.1935  0.0811  0.3086
 3882W        W20356  10.124  11.864  11.794  0.2424 -0.0438 -0.1109
 3883W        W20357   2.229   9.963   1.035 -0.2960  0.0141 -0.0334
 3884W        W20358   4.407   1.507  11.655  0.2722 -0.0211  0.0852
 3885W        W20359  17.393   1.975   2.561 -0.2415 -0.2889  0.0528
 3886W        W20360  17.320   9.859   2.245 -0.0658  0.1060  0.1462
 3887W        W20361   2.692   5.387   2.825 -0.1726 -0.0088 -0.0973
 3888W        W20362  12.837   4.194   0.152  0.1957  0.4042 -0.2410
 3889W        W20363  17.583  15.444  13.663  0.0044 -0.1649  0.1560
 3890W        W20364   5.152   1.003   2.584  0.0895  0.0364 -0.0627
 3891W        W20365  12.855  12.809   0.945  0.1368  0.1618 -0.0103
 3892W        W20366   9.492   6.595   0.730 -0.0102 -0.0121  0.1282
 3893W        W20367  19.124   8.919   3.439  0.1847  0.1293 -0.0579
 3894W        W20368  11.574   8.905  13.470  0.2343  0.3437  0.1729
 3895W        W20369  14.884   5.240  11.876 -0.1392 -0.3236  0.0892
 3896W        W20370   4.691  17.513  13.606  0.2917  0.1883 -0.1728
 3897W        W20371   3.583   8.007   0.636  0.1070  0.1838 -0.0897
 3898W        W20372   2.482   5.619  11.819  0.3660  0.2176 -0.2192
 3899W        W20373   9.345  12.405  10.939  0.1641  0.1847 -0.2045
 3900W        W20374   6.119   6.768   5.343  0.0924 -0.4573 -0.0694
 3901W        W20375   3.061  15.200   0.686 -0.0519 -0.0292 -0.0235
 3902W        W20376  13.618   4.015   2.441 -0.2139  0.1962 -0.1783
 3903W        W20377  19.003  18.469   2.650  0.0942 -0.1051  0.1080
 3904W        W20378   4.394  10.672   1.263  0.2563 -0.2311  0.1901
 3905W        W20379   7.846  10.873  13.929  0.2494 -0.4947 -0.3533
 3906W        W20380   7.956   9.926   4.037  0.2567  0.0434 -0.1518
 3907W        W20381  12.968  13.464   0.631  0.0464  0.0417  0.0482
 3908W        W20382  18.876  19.577   0.477  0.1656 -0.2111 -0.3909
 3909W        W20383   9.226   3.196   1.315  0.1041 -0.1448  0.3071
 3910W        W20384   4.669   2.845  11.560 -0.2436 -0.1184  0.0221
 3911W        W20385  13.058  11.392  11.566 -0.1762 -0.2592 -0.0285
 3912W        W20386  12.812  10.021  13.653 -0.0843  0.0690  0.0746
 3913W        W20387  16.956  17.033   4.282  0.1203  0.2464 -0.4093
 3914W        W20388  19.379   4.836   0.516  0.0952  0.0842 -0.1421
 3915W        W20389  10.622   2.147   4.168 -0.3785 -0.2146  0.0694
 3916W        W20390  16.018   4.961  11.464 -0.3250  0.1182  0.0578
 3917W        W20391  11.674  15.560   3.208  0.1856  0.1322 -0.3708
 3918W        W20392  11.311  12.100   2.832  0.0530 -0.0303 -0.2095
 3919W        W20393   7.206   1.937   1.703  0.0447  0.1396  0.1112
 3920W        W20394   4.382  17.435   0.233 -0.0278 -0.0164 -0.0066
 3921W        W20395   8.831   1.990   1.703 -0.2400 -0.0490  0.2079
 3922W        W20396   1.593  10.047   4.679  0.2277 -0.0716  0.1597
 3923W        W20397   9.365   6.601  11.227  0.0474  0.0945 -0.1072
 3924W        W20398  17.053  12.219   2.437  0.2361 -0.0460 -0.2318
 3925W        W20399  13.775  14.356  13.676  0.1622 -0.1557  0.3057
 3926W        W20400   4.334   3.353   0.104  0.1042  0.0325 -0.1968
 3927W        W20401   8.271  19.146  10.023  0.1414  0.0506 -0.1753
 3928W        W20402  18.802   6.295  13.140  0.2986 -0.1953  0.1246
 3929W        W20403  17.148   1.085   0.428 -0.0746 -0.1906  0.2570
 3930W        W20404   6.337   7.581  11.709  0.2171 -0.2771  0.0010
 3931W        W20405   5.805  11.146   2.161  0.0527 -0.4346  0.2222
 3932W        W20406   8.377   7.011   0.436 -0.2392 -0.1147 -0.1116
 3933W        W20407   9.082   2.217  14.589  0.1991  0.0799 -0.0982
 3934W        W20408   5.516  15.242   1.137 -0.0173  0.2051 -0.1661
 3935W        W20409  16.916   9.588  14.433  0.0822 -0.0906 -0.1139
 3936W        W20410  14.706  17.737  12.947  0.0347 -0.2655 -0.1065
 3937W        W20411   1.674  10.548  13.810 -0.2317  0.0942  0.2011
 3938W        W20412   2.818  12.915   0.526 -0.1153  0.0954  0.0110
 3939W        W20413  15.134   3.644   4.292  0.0345 -0.1416  0.1979
 3940W        W20414  19.434   1.107   1.870 -0.3601  0.0040 -0.0053
 3941W        W20415  11.593  10.846   2.523  0.2341 -0.0176  0.0899
 3942W        W20416  18.556   9.050   3.600 -0.1795  0.2836 -0.0954
 3943W        W20417  15.614   0.947   1.626  0.1619 -0.0918  0.0921
 3944W        W20418   0.795  11.446   9.810  0.0690  0.0265 -0.1199
 3945W        W20419   1.183  12.782  10.314  0.1786 -0.0185 -0.2244
 3946W        W20420  14.990   6.606   4.496 -0.3109 -0.0967 -0.0143
 3947W        W20421  19.485   4.156   0.521  0.3091 -0.0084 -0.0368
 3948W        W20422   0.204   4.509   0.814  0.1377 -0.0194 -0.3092
 3949W        W20423  18.808  15.904   3.932 -0.2882  0.0914 -0.2291
 3950W        W20424   4.519  18.691  12.694 -0.1302  0.0634  0.1347
 3951W        W20425   7.364   2.959  14.246  0.1846 -0.2058 -0.0259
 3952W        W20426   6.286  19.195  10.843 -0.3067  0.3146 -0.0330
 3953W        W20427   4.266   9.501   4.869  0.3492  0.1119 -0.1446
 3954W        W20428  15.791   8.731   2.816  0.2302  0.0847  0.2014
 3955W        W20429   2.867  19.423   0.448  0.1753 -0.3130 -0.0021
 3956W        W20430   8.380   7.025  10.996  0.1103 -0.2221 -0.3034
 3957W        W20431   5.365   3.992  14.699 -0.1119 -0.4086 -0.1693
 3958W        W20432  10.870   1.824  11.828  0.1956 -0.1973 -0.0429
 3959W        W20433  18.733  13.039   2.680 -0.1152  0.1445  0.3704
 3960W        W20434   6.219   8.764  13.662 -0.2303 -0.0577 -0.3258
 3961W        W20435   5.878  17.303  10.268 -0.3087 -0.2009  0.0561
 3962W        W20436   2.000   8.984  14.252 -0.1371 -0.2252 -0.0566
 3963W        W20437   1.473   1.947  10.937 -0.3616  0.2084 -0.2354
 3964W        W20438   4.205   0.440   3.193  0.1706  0.0129  0.0015
 3965W        W20439  16.969  17.471  12.829  0.0288 -0.1636  0.0788
 3966W        W20440   8.673  15.281  11.445  0.1366  0.0777 -0.0039
 3967W        W20441   9.775  10.427   0.416 -0.1463  0.2267 -0.1407
 3968W        W20442  18.786   0.697  11.134 -0.2252 -0.3866 -0.0130
 3969W        W20443  18.147  15.686  13.789 -0.2030  0.1271 -0.0160
 3970W        W20444   6.698  16.235   0.590  0.0708  0.0346 -0.1975
 3971W        W20445  18.211  17.886   3.527 -0.3234 -0.0098 -0.1241
 3972W        W20446   8.833   7.614  14.518 -0.1511 -0.2728  0.3637
 3973W        W20447  13.498  19.113  10.725  0.2939 -0.0042  0.2004
 3974W        W20448   5.984  18.016  10.239  0.0498  0.3103 -0.2684
 3975W        W20449  18.628  11.540  14.651 -0.1127  0.0254 -0.1211
 3976W        W20450   3.904  19.504  12.621 -0.1267 -0.1364 -0.0342
 3977W        W20451  18.390   6.839  12.402  0.0473 -0.2225  0.1671
 3978W        W20452  11.371   3.541  11.558  0.3813  0.1278 -0.0534
 3979W        W20453   6.179   1.168   4.332  0.0089  0.0399  0.2560
 3980W        W20454   9.078   9.979  11.089 -0.0582 -0.0637  0.1980
 3981W        W20455  13.472  17.355  11.412 -0.0307 -0.0296 -0.1664
 3982W        W20456   4.757   6.682  13.716  0.1672 -0.2446  0.1287
 3983W        W20457  17.371  19.373   0.958  0.2298  0.2237  0.1493
 3984W        W20458  18.127  10.312  11.275 -0.2441  0.0836  0.1645
 3985W        W20459  13.958  19.006  10.442 -0.0709  0.1723  0.0078
 3986W        W20460   1.111  18.089   0.794  0.1919 -0.1758  0.0540
 3987W        W20461   4.259  13.816   1.687  0.2650 -0.4254 -0.2843
 3988W        W20462  11.430   1.971  12.200  0.1163 -0.0583  0.2491
 3989W        W20463  13.183  18.886  12.985 -0.0613  0.3410  0.0754
 3990W        W20464   6.561  13.745   3.196 -0.0789  0.2700  0.2469
 3991W        W20465   6.814  13.476  13.361  0.1484  0.0894 -0.2763
 3992W        W20466   2.603  18.302  13.977  0.1710 -0.1592 -0.2933
 3993W        W20467   8.935  11.418   3.293 -0.1305  0.3876 -0.1339
 3994W        W20468  13.305  11.890   1.037 -0.1777  0.1930 -0.1757
 3995W        W20469  13.289  15.530  11.324 -0.0986  0.1345  0.0023
 3996W        W20470   7.948   3.278   0.105 -0.2878 -0.2230  0.4051
 3997W        W20471  18.457   1.670  14.103 -0.0341  0.1677 -0.0747
 3998W        W20472   5.514  12.300   1.154  0.0698 -0.1293  0.2732
 3999W        W20473  19.445   4.136   3.809  0.0293  0.0664 -0.0254
 4000W        W20474  15.962   8.132  11.237  0.0779  0.0364 -0.0153
 4001W        W20475  14.571  18.918   2.276 -0.1065  0.1035  0.0124
 4002W        W20476  17.581  15.815  11.639  0.0119  0.0185  0.0464
 4003W        W20477   3.068   4.066  12.723 -0.0896 -0.0563  0.2252
 4004W        W20478  13.984   1.641  14.719 -0.0595  0.1823  0.0733
 4005W        W20479  10.770  11.718   2.212 -0.0168 -0.0429 -0.1643
 4006W        W20480   2.626   9.974  10.240  0.1435 -0.4134  0.3035
 4007W        W20481  14.578  11.607   2.951 -0.0382  0.2818  0.0296
 4008W        W20482   6.170  18.049  14.502 -0.0192 -0.0862  0.0900
 4009W        W20483   1.041   8.415   5.692  0.1688 -0.1679 -0.0968
 4010W        W20484   2.123  18.146   1.078  0.2549 -0.5607 -0.0505
 4011W        W20485  18.534  14.738   3.427  0.3052  0.0258 -0.1705
 4012W        W20486  11.721   4.496   2.391  0.0420  0.1878  0.1468
 4013W        W20487   6.211  11.679   2.846 -0.1447  0.3639  0.5429
 4014W        W20488  19.107   5.349   3.623 -0.0158  0.0467  0.0379
 4015W        W20489   6.546  17.528  13.512 -0.1507 -0.0140  0.2452
 4016W        W20490   0.459  11.993  13.382 -0.2028  0.0599 -0.3215
 4017W        W20491   6.789   1.502   3.762  0.2851 -0.0776 -0.1655
 4018W        W20492  11.077   0.561   1.691 -0.2913 -0.0583 -0.0504
 4019W        W20493   7.990   0.264  13.386 -0.2579  0.4104 -0.1332
 4020W        W20494   5.684  18.476  11.176 -0.0198 -0.0574 -0.1261
 4021W        W20495  15.711   5.196  11.151  0.0760  0.0255 -0.3519
 4022W        W20496  15.943   8.580   2.309  0.0070 -0.2170 -0.1024
 4023W        W20497  10.273   3.934   2.264 -0.1465  0.3296 -0.0585
 4024W        W20498  10.899   3.292  14.611  0.2223  0.1785 -0.0537
 4025W        W20499  11.851   0.155  12.286  0.0593 -0.0575  0.1681
 4026W        W20500  14.827  17.046   9.834  0.4098  0.0645  0.0329
 4027W        W20501   1.129   6.849   0.093 -0.0370 -0.0081  0.4319
 4028W        W20502   4.980   4.730  12.596 -0.0077  0.2876  0.0106
 4029W        W20503  13.813  18.081  10.494 -0.4145  0.2080 -0.0610
 4030W        W20504   5.203  10.534   0.640  0.1587  0.0973 -0.0481
 4031W        W20505   9.768   0.653  10.528 -0.0233  0.1022 -0.1784
 4032W        W20506  18.858  11.330   4.099 -0.1861 -0.1224 -0.1271
 4033W        W20507  17.610   2.630   1.952  0.0073  0.1185  0.0462
 4034W        W20508   5.030   5.100   4.153  0.3697 -0.0383 -0.0688
 4035W        W20509  16.825  17.688  12.392  0.2155  0.0505 -0.1909
 4036W        W20510  14.990  13.106  13.808  0.1105 -0.1304  0.0338
 4037W        W20511  11.967  18.493   4.782 -0.2263 -0.1129 -0.0618
 4038W        W20512  13.153  16.983  11.435  0.1875 -0.0316 -0.1264
 4039W        W20513  11.578  11.990   4.168  0.0455 -0.4662  0.3736
 4040W        W20514   9.065   2.444   3.764 -0.0555  0.0245  0.1227
 4041W        W20515  13.894   9.376  13.373  0.0218 -0.6532 -0.0301
 4042W        W20516   1.599  18.613  13.012  0.3212 -0.0994 -0.1392
 4043W        W20517   1.064   6.933   1.899  0.1751  0.4321 -0.0926
 4044W        W20518  14.661   6.399  12.149 -0.4379  0.1158 -0.0150
 4045W        W20519   7.592   0.817  14.584  0.0960  0.3224 -0.0533
 4046W        W20520   4.827   8.254  12.644 -0.0107  0.1226  0.1385
 4047W        W20521   9.114  17.949   9.416  0.2284 -0.0959 -0.2594
 4048W        W20522  13.102   5.064   3.466  0.1810  0.1633 -0.2112
 4049W        W20523  16.832   7.530   3.931 -0.2246  0.0920 -0.1266
 4050W        W20524   4.626   3.919   0.482  0.4549  0.0928 -0.1482
 4051W        W20525  10.941   7.030   5.654 -0.1666 -0.0214  0.0931
 4052W        W20526  10.696   3.502   3.754 -0.3219 -0.0004 -0.2669
 4053W        W20527   4.450   2.422   5.387 -0.3146  0.2106  0.5691
 4054W        W20528  19.345  17.168  10.367 -0.2769 -0.0312 -0.0678
 4055W        W20529   4.078   8.269  14.213 -0.1116 -0.3036 -0.4412
 4056W        W20530  11.864  10.559  11.923  0.1041 -0.0610  0.1491
 4057W        W20531  10.515   1.810   4.869 -0.0329  0.4737  0.2098
 4058W        W20532   7.027  19.462  12.363  0.1565  0.1144 -0.0758
 4059W        W20533  17.159   2.297  12.718 -0.1759  0.0803  0.1086
 4060W        W20534  16.630   7.829  12.184 -0.1191  0.0225  0.1703
 4061W        W20535   5.736  17.743   0.057  0.0379 -0.1805  0.2318
 4062W        W20536  17.574  15.769  13.099 -0.0406  0.2838  0.5419
 4063W        W20537  12.592  14.687   1.026 -0.0281 -0.1837 -0.0156
 4064W        W20538  15.370   5.411  10.874  0.4642  0.0108  0.0410
 4065W        W20539   9.366   1.169   2.922 -0.1094 -0.3417 -0.0572
 4066W        W20540   8.701   0.145  14.462  0.0469 -0.0058  0.2337
 4067W        W20541   0.784   4.928   2.477  0.0086  0.0795 -0.0465
 4068W        W20542  10.064  18.788  11.387  0.1699  0.0341  0.0541
 4069W        W20543   0.515   7.420  10.906  0.1632  0.4244 -0.1211
 4070W        W20544  17.620  10.181   3.770  0.1985  0.2040 -0.2666
 4071W        W20545  13.619   5.379  12.854 -0.2442 -0.2129 -0.0342
 4072W        W20546   4.325   2.261  10.411 -0.2617 -0.0803 -0.0971
 4073W        W20547  13.001  10.284   5.982 -0.0698 -0.0298  0.2341
 4074W        W20548   0.396  10.479   1.222  0.1487 -0.1931  0.3847
 4075W        W20549  19.357  10.999   2.211 -0.1310  0.0641  0.0779
 4076W        W20550  10.020   4.126  12.881  0.3519 -0.3489 -0.3900
 4077W        W20551   5.183   3.097   3.982  0.1219  0.1687  0.3104
 4078W        W20552  10.258  12.188  13.943 -0.1506 -0.1610 -0.2508
 4079W        W20553   2.023   6.898   3.419  0.2779  0.0668  0.0866
 4080W        W20554  11.961  11.953  13.809 -0.1896  0.1193 -0.2020
 4081W        W20555   9.162   5.504  12.296 -0.4925 -0.3286 -0.1285
 4082W        W20556   2.126  12.355   0.191 -0.0131 -0.1188  0.0403
 4083W        W20557  12.048   3.569   2.446 -0.1682 -0.2873 -0.0568
 4084W        W20558  15.611   6.516   3.905  0.1367  0.1475 -0.2660
 4085W        W20559  17.193   9.871   5.597 -0.2540 -0.1987  0.0865
 4086W        W20560  11.043   8.702  14.379  0.0170 -0.0231  0.0701
 4087W        W20561  16.867   9.489   1.546 -0.1855  0.1059 -0.1943
 4088W        W20562  16.228   2.537   2.495 -0.3305 -0.0156  0.1419
 4089W        W20563   7.587   9.759   0.222 -0.2429 -0.4811  0.0584
 4090W        W20564  16.963   2.779  12.371 -0.0965  0.0444  0.1139
 4091W        W20565  12.108   8.551  12.134 -0.4042  0.3192 -0.2343
 4092W        W20566   6.885  12.547   0.797 -0.1963 -0.1057 -0.1880
 4093W        W20567   9.366   1.344   1.321  0.0765  0.1479 -0.2796
 4094W        W20568  10.987   7.002  13.053  0.0074 -0.0092 -0.0490
 4095W        W20569   4.290  17.502  12.648  0.0103 -0.2130 -0.2673
 4096W        W20570   8.807  18.181  13.966  0.0763  0.0484  0.0441
 4097W        W20571   8.803  10.961  12.152  0.0536 -0.0113 -0.0165
 4098W        W20572  18.994  18.928   4.682 -0.1886 -0.2140  0.0704
 4099W        W20573  18.976   8.276   4.343  0.2511  0.1141 -0.2673
 4100W        W20574   5.566  19.203   1.994 -0.0755 -0.1386  0.0790
 4101W        W20575  16.147   6.883   2.414  0.1970 -0.3482 -0.1508
 4102W        W20576  17.260   5.954  10.148 -0.2233  0.0347 -0.4288
 4103W        W20577   5.305  17.580  12.787 -0.0797  0.3090  0.3229
 4104W        W20578  15.745   4.172  14.666 -0.0920 -0.1599  0.0284
 4105W        W20579  17.537  12.960   0.041  0.1428 -0.0688 -0.4069
 4106W        W20580   2.296  13.036   4.407  0.2254 -0.0284 -0.1170
 4107W        W20581  12.646   0.545  11.354 -0.0702 -0.0815 -0.3415
 4108W        W20582   7.221   0.757   0.894 -0.0581  0.2760 -0.1841
 4109W        W20583  16.844  13.043   2.629  0.0293 -0.1600 -0.1546
 4110W        W20584   3.676   3.201   3.540  0.0602  0.1046  0.0794
 4111W        W20585   5.075   7.718   3.055 -0.3720  0.0360 -0.1608
 4112W        W20586   3.122   7.768  12.643  0.3847  0.2111 -0.1275
 4113W        W20587   3.511   9.787   4.841  0.2369 -0.1938  0.3463
 4114W        W20588   7.987  15.967   3.561 -0.0183 -0.1040  0.1617
 4115W        W20589  18.649  15.106   3.882 -0.3126 -0.0808 -0.0942
 4116W        W20590   0.022   8.071  11.936  0.3473  0.0324  0.4193
 4117W        W20591  19.473  13.959   1.467 -0.0242 -0.0235  0.0948
 4118W        W20592  12.111   3.377  11.095 -0.1059 -0.3420 -0.1006
 4119W        W20593   4.186  15.773  13.743  0.3199  0.3312  0.4025
 4120W        W20594   2.347  11.753  14.575  0.4663  0.1755 -0.2294
 4121W        W20595  18.345  15.340   4.378 -0.6222  0.0366  0.2565
 4122W        W20596   5.481   2.682  13.097  0.1379 -0.0429 -0.0614
 4123W        W20597  15.850  13.105   0.186 -0.1775 -0.0092 -0.1122
 4124W        W20598  10.391  11.449   3.640  0.2775  0.0937  0.2447
 4125W        W20599  18.338   0.551   1.081  0.2155  0.2629  0.1430
 4126W        W20600  19.346  10.432   4.146  0.2158 -0.0274  0.0783
 4127W        W20601  16.585  18.768  11.276 -0.2398  0.0502  0.1738
 4128W        W20602   4.567  15.012  13.430  0.0850  0.1988  0.2079
 4129W        W20603  15.410   5.597   4.855 -0.0541 -0.0731 -0.3172
 4130W        W20604  14.162  16.246   3.310 -0.3490  0.0779 -0.0010
 4131W        W20605  16.938   7.982   4.882  0.2521  0.0125  0.1398
 4132W        W20606   2.056   2.542  11.441 -0.0884  0.1126 -0.0761
 4133W        W20607  13.820   3.664  11.072 -0.4082  0.1489 -0.0448
 4134W        W20608   3.048  10.583   1.508  0.0611 -0.0936  0.1854
 4135W        W20609  15.056  19.270  10.308  0.2270  0.3415  0.2522
 4136W        W20610  18.079   2.038   9.344 -0.0930 -0.1831 -0.1298
 4137W        W20611  14.730   5.797  11.692  0.5010 -0.0605  0.1155
 4138W        W20612   7.507   0.844   4.734  0.1066  0.1876 -0.1626
 4139W        W20613  11.937  18.876   3.514  0.1246 -0.2830 -0.1170
 4140W        W20614   5.265  16.153  13.767  0.1530 -0.1479  0.2792
 4141W        W20615  18.267   0.472  13.923 -0.2322  0.0106  0.1125
 4142W        W20616  17.421  18.475  13.806  0.1611  0.1377 -0.0027
 4143W        W20617  19.250  13.392  11.388 -0.0959  0.0138 -0.2157
 4144W        W20618  11.495   0.008  13.770  0.1595 -0.0770 -0.0798
 4145W        W20619   7.648   1.695  12.545  0.0992  0.3446 -0.4622
 4146W        W20620  15.539  17.173   4.433 -0.0330  0.1700 -0.0087
 4147W        W20621   9.606   1.393  13.617  0.0978 -0.1094  0.2943
 4148W        W20622   4.145   1.781  13.051  0.1344 -0.0859  0.1225
 4149W        W20623   0.787   7.069   2.583  0.1740  0.0394  0.0379
 4150W        W20624  18.466   5.807  12.260  0.3124 -0.2350  0.4287
 4151W        W20625  10.008   5.815  11.924  0.1293 -0.0195  0.1301
 4152W        W20626  15.517  19.423  12.201  0.1982  0.1824 -0.2622
 4153W        W20627  17.638   0.471   0.793  0.1765  0.2657  0.0869
 4154W        W20628   1.746   2.097   1.633  0.2312 -0.3386 -0.0032
 4155W        W20629  16.167   7.782   3.508 -0.2890 -0.0025  0.2928
 4156W        W20630  10.908   3.915  13.914 -0.1608 -0.1681 -0.0475
 4157W        W20631   7.106  15.899   3.250  0.1553  0.2360 -0.0562
 4158W        W20632  13.108  16.237  12.530  0.0243 -0.0560 -0.0137
 4159W        W20633   0.887  15.425  14.711 -0.2859  0.0889 -0.0171
 4160W        W20634   4.884  16.284  12.129  0.1245 -0.0791  0.1817
 4161W        W20635   5.805   7.929  12.688 -0.2249 -0.0378 -0.0828
 4162W        W20636  14.905  11.485   4.512 -0.0286 -0.1439  0.1758
 4163W        W20637   1.012  15.096   9.356  0.0095  0.1940 -0.2980
 4164W        W20638   3.899  16.466  11.749  0.1686  0.2306  0.0794
 4165W        W20639   8.268  15.955  13.907 -0.2068  0.3464  0.1670
 4166W        W20640   4.627  10.373  13.908  0.1206 -0.0515  0.2019
 4167W        W20641   7.431   5.230  13.851 -0.0339 -0.0203 -0.3507
 4168W        W20642  17.695  13.093   1.373  0.2059 -0.1240  0.0951
 4169W        W20643  17.499   2.851  13.519 -0.0626 -0.0468 -0.0645
 4170W        W20644   0.000  12.633   4.717 -0.0552  0.3328 -0.3092
 4171W        W20645   6.685   3.705   4.895 -0.1197  0.1694  0.3533
 4172W        W20646   5.545   6.301  14.370 -0.0154 -0.0046 -0.0673
 4173W        W20647  15.183   0.174  11.447 -0.1012 -0.0955 -0.2525
 4174W        W20648  14.630   4.113   2.523 -0.0718  0.1740 -0.1838
 4175W        W20649  17.254  14.009  12.987  0.0925 -0.1954  0.0148
 4176W        W20650   0.358   4.719   2.391  0.3306  0.2733 -0.0921
 4177W        W20651   6.674   0.512  11.066 -0.2222 -0.0534 -0.1814
 4178W        W20652   7.629   9.966   2.458 -0.0123 -0.3443  0.0430
 4179W        W20653  18.222  12.320   5.226  0.0449  0.3859 -0.1849
 4180W        W20654   8.377   1.999   2.705  0.1228 -0.0216  0.2620
 4181W        W20655  19.320   9.564  14.558  0.0899  0.0008  0.2108
 4182W        W20656   4.465   7.912  14.198  0.3798 -0.1593 -0.0879
 4183W        W20657  14.831  11.892  11.285  0.0614 -0.0203  0.3417
 4184W        W20658  15.200  16.518  10.377  0.1505 -0.2875  0.2013
 4185W        W20659  19.347   1.329  13.917  0.1959  0.1251 -0.0972
 4186W        W20660  14.561  16.522  13.659 -0.5268  0.1832 -0.0847
 4187W        W20661   5.263  12.492  12.576 -0.0902  0.0458 -0.1308
 4188W        W20662   0.091  11.645   1.709 -0.3220 -0.0977  0.0454
 4189W        W20663  12.794  14.633   0.492  0.2047 -0.0374  0.0902
 4190W        W20664  14.884   3.215  12.367  0.1416  0.1193  0.1154
 4191W        W20665  11.951   4.943   0.827  0.3097  0.2912 -0.1134
 4192W        W20666  17.488   5.077   1.191  0.0490  0.0607  0.4013
 4193W        W20667  17.579   1.549   3.452  0.0358 -0.0266 -0.0693
 4194W        W20668   1.348  11.014   4.553 -0.0304 -0.1149  0.1334
 4195W        W20669  18.303   6.006   1.219  0.2475 -0.1279 -0.0103
 4196W        W20670  17.499  10.937   9.715  0.0314 -0.0072 -0.1807
 4197W        W20671  18.941   1.441   4.455  0.2504  0.1836 -0.2593
 4198W        W20672   7.615   7.881   4.073  0.1278 -0.0855  0.0742
 4199W        W20673  16.640  16.950  10.347  0.2331  0.0451  0.1181
 4200W        W20674   9.009   2.836   2.157  0.0419  0.0865 -0.1850
 4201W        W20675   6.420   8.990   1.282  0.1794  0.0012 -0.0217
 4202W        W20676  11.104   1.389  12.023  0.2061  0.0753 -0.1096
 4203W        W20677  17.029   8.976  14.627 -0.0119 -0.1404  0.0119
 4204W        W20678   5.434  17.922  11.813  0.1350  0.2378  0.2610
 4205W        W20679  10.425  18.586  13.364  0.1339  0.0674  0.4645
 4206W        W20680   2.174  16.921   3.034 -0.2692  0.2886 -0.0556
 4207W        W20681  16.652   2.841  10.887  0.1890  0.0799 -0.0777
 4208W        W20682  13.108   1.605  14.573  0.1738 -0.2862 -0.0131
 4209W        W20683  16.543  14.953  14.130 -0.0126  0.1211  0.1071
 4210W        W20684  10.040   3.270   9.517 -0.1891  0.1405  0.3888
 4211W        W20685  12.028   7.475   4.927 -0.0317 -0.2323  0.1458
 4212W        W20686  15.998  16.352  10.701 -0.2510 -0.0366 -0.1139
 4213W        W20687   1.304  16.100   2.935  0.2105  0.2835 -0.0388
 4214W        W20688  17.665  17.841   2.762  0.1914 -0.1037  0.2921
 4215W        W20689   6.189   4.101   0.361 -0.0764  0.0178 -0.2195
 4216W        W20690   0.371   0.539  14.381  0.0831 -0.0363 -0.0286
 4217W        W20691   6.024  13.546   2.568  0.1044 -0.1096  0.3740
 4218W        W20692   3.064  17.039  10.288 -0.0055 -0.1068 -0.1853
 4219W        W20693   3.823  10.097   2.175  0.4061 -0.3988  0.0827
 4220W        W20694   0.386   2.707   3.833  0.1017  0.1431  0.1113
 4221W        W20695   7.621   8.362   3.815 -0.2256 -0.2297 -0.0156
 4222W        W20696  12.651  10.407  12.927  0.1272  0.0550 -0.1467
 4223W        W20697   4.832   2.269  10.731  0.0310 -0.3509 -0.1000
 4224W        W20698  19.505  13.912   0.361  0.1504 -0.0766 -0.0726
 4225W        W20699  18.248   6.302  12.132 -0.1921  0.1314 -0.0280
 4226W        W20700   3.416  13.442  13.871 -0.0120  0.4251  0.0759
 4227W        W20701   6.479   9.184  13.366  0.0253 -0.0195 -0.2020
 4228W        W20702  16.815   3.335  13.170 -0.1589  0.1198  0.0302
 4229W        W20703  11.776  13.565   4.320  0.1371  0.1470 -0.0129
 4230W        W20704  13.966   6.469   3.323 -0.0853 -0.3397 -0.1618
 4231W        W20705   5.914  14.214  13.018  0.2533  0.1995  0.2469
 4232W        W20706   6.361  16.958  13.739  0.3627  0.0938 -0.2082
 4233W        W20707   7.564   1.482  10.298  0.0268  0.1158 -0.0032
 4234W        W20708  17.647  19.171   3.766  0.2373  0.2022  0.1441
 4235W        W20709   8.948   9.104   1.294 -0.1502  0.1912 -0.2569
 4236W        W20710   4.207  18.072  12.776 -0.0307  0.4003 -0.0914
 4237W        W20711  12.646   7.763   1.354 -0.2135 -0.0305 -0.0285
 4238W        W20712  18.026   5.963  14.206 -0.1539  0.3386  0.2466
 4239W        W20713   4.920  16.266  12.654  0.1018 -0.0382  0.1571
 4240W        W20714   7.478   8.145   2.247 -0.1873  0.1103 -0.1854
 4241W        W20715  13.398  12.857   3.023  0.0970  0.0122 -0.0692
 4242W        W20716  17.106   6.563   1.048  0.2263 -0.0667  0.0846
 4243W        W20717   8.347   9.240  13.169  0.1337 -0.0580 -0.0591
 4244W        W20718   2.695   0.777  14.624  0.1655 -0.0531 -0.4422
 4245W        W20719  16.701   5.523   4.545 -0.2806  0.0384  0.1177
 4246W        W20720  18.003  11.834  14.044  0.2824 -0.0443  0.1022
 4247W        W20721   4.516  16.915   3.382 -0.2379  0.3037 -0.3003
 4248W        W20722   2.360   8.775  13.013  0.1061  0.0076 -0.0952
 4249W        W20723   3.549   4.005   4.265 -0.0783  0.3674 -0.1953
 4250W        W20724   1.258  18.850   3.475  0.1159  0.0971 -0.0620
 4251W        W20725  15.984   8.891   0.245  0.3467  0.3455 -0.3598
 4252W        W20726  19.520  12.055  11.175  0.1466  0.0758 -0.1015
 4253W        W20727  18.877   7.797   2.545  0.0245  0.0914 -0.3782
 4254W        W20728  15.985  17.085   4.884  0.0168 -0.1683 -0.0480
 4255W        W20729   8.148   3.767   2.764 -0.2419  0.1771 -0.1077
 4256W        W20730   9.008  15.227   0.678  0.1510  0.0483 -0.2221
 4257W        W20731   9.137  15.199   0.079 -0.1496  0.0812  0.1663
 4258W        W20732   7.571  19.497   2.039  0.3277 -0.2543  0.1730
 4259W        W20733  12.185  17.293  13.954  0.1887  0.0971  0.1004
 4260W        W20734   1.938  10.034   3.272 -0.2855 -0.0263 -0.1762
 4261W        W20735  18.536   5.990  11.639  0.2165  0.3467 -0.3476
 4262W        W20736  11.365  10.212   4.554  0.1485 -0.0504 -0.0418
 4263W        W20737  12.003  14.746  12.314  0.1711 -0.1476  0.0700
 4264W        W20738   2.864  18.262  10.946 -0.2630 -0.1263 -0.1462
 4265W        W20739  13.969  17.141  12.361 -0.1047  0.2130 -0.1536
 4266W        W20740   3.162   5.939   3.203 -0.3621  0.2484 -0.1035
 4267W        W20741  13.855   2.462   1.540  0.2905  0.0717 -0.3324
 4268W        W20742  13.364   9.530   3.906 -0.1547  0.1186  0.4698
 4269W        W20743  16.918  17.928   3.143  0.3128 -0.0305 -0.0422
 4270W        W20744   7.229   8.065   3.803 -0.2499  0.0171  0.0766
 4271W        W20745  12.753   6.176  10.690 -0.1111  0.1418 -0.0745
 4272W        W20746   0.167   6.118   9.411  0.0948 -0.1551 -0.1036
 4273W        W20747   9.874   3.226   1.695  0.1538  0.0006  0.1319
 4274W        W20748   0.111  17.031   0.024  0.0945  0.0973  0.0065
 4275W        W20749   4.032  13.051  12.608 -0.4948 -0.1147  0.1361
 4276W        W20750   7.205   5.983   1.819  0.1263  0.4870 -0.4641
 4277W        W20751  13.012   6.533   3.173 -0.0899  0.1485 -0.1168
 4278W        W20752  17.647   8.657   2.922  0.1374 -0.2657  0.0963
 4279W        W20753  18.005  14.373  12.663 -0.3386  0.0491 -0.1089
 4280W        W20754   9.854  17.114   0.784 -0.1340 -0.1514  0.3526
 4281W        W20755   4.487  11.937  14.273  0.0059  0.0459 -0.0488
 4282W        W20756  13.295   2.535   3.995  0.0992 -0.0512  0.1139
 4283W        W20757   5.224   3.907   1.398 -0.3784  0.3626 -0.1886
 4284W        W20758   3.807  15.544  11.794 -0.0169 -0.0750 -0.2303
 4285W        W20759   2.979  17.183   0.042 -0.0670 -0.3102  0.1130
 4286W        W20760  18.748   7.931  11.290 -0.4837  0.1173 -0.1007
 4287W        W20761  14.920  11.915   1.179  0.2362  0.0701  0.1606
 4288W        W20762  10.684  17.778  10.326  0.0648 -0.2455  0.0134
 4289W        W20763  12.763  11.016  11.695 -0.1722  0.0670  0.0994
 4290W        W20764   7.317   3.352  10.750 -0.1463  0.3008 -0.1556
 4291W        W20765   6.165   4.679  10.291 -0.1769 -0.3924  0.5369
 4292W        W20766   9.894  16.719  12.610  0.1992 -0.2282  0.0019
 4293W        W20767   7.390  12.718  11.924  0.1687 -0.2344  0.0436
 4294W        W20768   3.678  18.045   2.616  0.2220 -0.1129  0.2061
 4295W        W20769   0.065   3.304   2.524 -0.0293 -0.2012  0.1692
 4296W        W20770  17.162   6.939   5.177 -0.0094  0.0752 -0.0669
 4297W        W20771   4.271   4.760   0.732 -0.1201 -0.1066 -0.0624
 4298W        W20772   1.220   4.737   0.864  0.1250 -0.1429 -0.1385
 4299W        W20773  12.557  10.213  12.375  0.0347 -0.0450 -0.0532
 4300W        W20774  17.682  14.919  11.938  0.6478 -0.0528 -0.2269
 4301W        W20775  11.749   4.542   1.511 -0.1799  0.0365  0.1601
 4302W        W20776   9.476   3.632   0.921 -0.1218 -0.2438 -0.1520
 4303W        W20777   7.075   1.039   3.601 -0.1043 -0.0664  0.3434
 4304W        W20778  13.505  17.213  14.531 -0.1621 -0.1261 -0.0157
 4305W        W20779  16.091   5.356   2.331 -0.0165  0.4994 -0.1777
 4306W        W20780   3.816  14.399  14.527 -0.1887 -0.0961  0.2827
 4307W        W20781   6.684  14.789   3.471  0.1744  0.0045  0.1499
 4308W        W20782   1.449  18.086   2.721 -0.3208 -0.1693 -0.2216
 4309W        W20783  16.940   4.069  11.385 -0.0263 -0.1756  0.1146
 4310W        W20784  15.549   5.740  14.374  0.2262 -0.0636  0.1056
 4311W        W20785   2.271  10.914  10.996 -0.1340  0.1379 -0.0648
 4312W        W20786  10.952   7.506   1.250  0.1763 -0.2765  0.0125
 4313W        W20787   7.380   7.165  10.450  0.5397  0.0419 -0.0664
 4314W        W20788   1.869   9.650   0.972 -0.2313 -0.1109 -0.0826
 4315W        W20789   8.868  16.788   4.035  0.0901  0.2321 -0.0957
 4316W        W20790  12.551  19.179   9.906 -0.1322 -0.1642 -0.0004
 4317W        W20791   3.872  15.220   1.330 -0.2194  0.3305  0.3817
 4318W        W20792  14.158   5.616  10.286  0.0840 -0.0423 -0.1171
 4319W        W20793   7.403  17.907   1.787  0.1099 -0.0010  0.0645
 4320W        W20794   5.672  15.083  11.845  0.1281 -0.1780 -0.0928
 4321W        W20795   7.407   0.177   0.496  0.0967 -0.1180  0.2032
 4322W        W20796  12.157  15.947   1.258  0.0473 -0.0764  0.1381
 4323W        W20797  13.917  11.400   3.374 -0.3458  0.1052  0.3428
 4324W        W20798   0.045   7.659   2.351  0.1432 -0.2920 -0.1621
 4325W        W20799   5.709   3.023   4.211  0.1749 -0.1182 -0.0486
 4326W        W20800  11.082   2.814  11.823 -0.0504  0.3259 -0.0863
 4327W        W20801  15.900  17.656  14.103 -0.0660 -0.0679  0.2512
 4328W        W20802  12.336   0.840   2.089 -0.1583 -0.0326  0.2330
 4329W        W20803   9.123  12.059   9.988  0.2031  0.1847 -0.1818
 4330W        W20804   5.503  17.483  11.042 -0.0870  0.1217 -0.0436
 4331W        W20805   5.300  14.236  12.088  0.5528 -0.0071  0.1212
 4332W        W20806   6.253   5.013  11.341  0.3489  0.2658 -0.1519
 4333W        W20807   9.406   2.394   1.296 -0.2681 -0.0819 -0.1184
 4334W        W20808   0.630  18.713  10.083 -0.0082 -0.1167 -0.0646
 4335W        W20809   4.416  15.263   1.341 -0.1486  0.0198 -0.0411
 4336W        W20810  17.712  13.880   0.310 -0.0611  0.1454 -0.0484
 4337W        W20811  18.872   3.442   4.352  0.1959  0.1375 -0.0473
 4338W        W20812  13.521  19.336   1.596 -0.2271 -0.4280 -0.2571
 4339W        W20813   3.036  11.867  10.809 -0.3598  0.1786  0.0807
 4340W        W20814   1.398  17.095  11.720 -0.4339 -0.1929 -0.1723
 4341W        W20815   2.863   9.804  13.104  0.4667  0.1575 -0.3490
 4342W        W20816   5.021   1.236  11.878 -0.1274 -0.1414  0.1248
 4343W        W20817   4.684  13.028  13.514  0.0715  0.2666  0.2011
 4344W        W20818  17.234  17.749   2.404  0.1751  0.0232 -0.1481
 4345W        W20819   1.254  19.383  10.126  0.1543  0.1436 -0.0817
 4346W        W20820  12.880  13.708   0.192  0.2295 -0.1414  0.0591
 4347W        W20821   7.496   0.082   3.244 -0.1009  0.1164 -0.2249
 4348W        W20822   3.503   3.466   1.669  0.0431  0.0760  0.1125
 4349W        W20823   3.674  12.047   2.223 -0.0418 -0.2263 -0.1275
 4350W        W20824  19.253  11.035   0.423 -0.0980 -0.3843  0.2314
 4351W        W20825  19.571   0.034   3.823 -0.0187 -0.0627  0.0012
 4352W        W20826   4.103   2.862  13.658 -0.0272 -0.2393 -0.0623
 4353W        W20827  13.430   4.914  14.650 -0.2573  0.2072 -0.0844
 4354W        W20828  18.660  10.036  11.296 -0.3103  0.0927 -0.0957
 4355W        W20829  13.507  11.364  14.113  0.0424  0.0136 -0.0446
 4356W        W20830   0.316   3.017  12.478  0.1982 -0.1236  0.1591
 4357W        W20831   1.933  19.206   1.414  0.0880 -0.1205  0.0849
 4358W        W20832  18.577   6.159   4.772  0.3871 -0.4029 -0.3872
 4359W        W20833   9.839  14.719   0.004  0.2262  0.1359 -0.2869
 4360W        W20834   4.617  10.586   2.971  0.0347 -0.0460 -0.0031
 4361W        W20835   9.667   5.792  11.395  0.1506  0.2382 -0.3005
 4362W        W20836   1.865  10.834  12.818 -0.2717 -0.0834 -0.3429
 4363W        W20837  13.260  10.580  13.508  0.2670 -0.0380 -0.2790
 4364W        W20838   5.007   8.679   0.857  0.1217  0.1881 -0.0379
 4365W        W20839  11.684  18.584  10.336 -0.3728  0.4130  0.2459
 4366W        W20840   3.594  17.228   3.234  0.0589  0.0976 -0.2689
 4367W        W20841  15.040   3.593  13.721 -0.0822 -0.1962 -0.1240
 4368W        W20842  19.092   5.978  11.488 -0.1504 -0.0945 -0.1885
 4369W        W20843  14.094  11.298  14.054 -0.3337 -0.1577  0.1957
 4370W        W20844   6.322  13.074   4.031 -0.3107 -0.0173  0.0926
 4371W        W20845   2.355  12.223  13.832 -0.0962  0.3033  0.1802
 4372W        W20846  12.933   7.207   3.739 -0.2196 -0.1314 -0.3965
 4373W        W20847  18.878  19.397   4.298  0.2666 -0.0880 -0.5331
 4374W        W20848  14.608  12.466   4.465  0.0745  0.1200 -0.1201
 4375W        W20849  11.251   3.176   3.029  0.2870 -0.3806 -0.1290
 4376W        W20850   9.179   5.504   1.432  0.0330 -0.0608  0.4838
 4377W        W20851   8.015   7.112   0.755  0.0483 -0.1322 -0.2156
 4378W        W20852  12.067  16.223  10.771 -0.0462  0.2291  0.0264
 4379W        W20853   2.244   7.894  12.067 -0.0458 -0.2681  0.2820
 4380W        W20854   5.514   7.288  13.649  0.1261  0.2813  0.0937
 4381W        W20855  19.152   9.608  13.485  0.0923 -0.0142  0.0035
 4382W        W20856   8.715   5.851  13.032 -0.0662 -0.0429  0.0963
 4383W        W20857   4.555  17.196   0.726  0.3832 -0.0860  0.3016
 4384W        W20858   1.328   0.785   3.736 -0.0302  0.1429  0.0919
 4385W        W20859   3.749   7.780   4.230 -0.1734 -0.0335  0.2267
 4386W        W20860   8.744   6.493   4.211 -0.4373 -0.1539 -0.1169
 4387W        W20861   2.465   7.443  13.979  0.0171  0.1229  0.0978
 4388W        W20862  13.330  13.061  13.082  0.0425  0.4991  0.1874
 4389W        W20863  10.536  17.013   5.094  0.2773 -0.0222  0.3070
 4390W        W20864  16.157  19.510  13.891 -0.5437 -0.2290  0.0101
 4391W        W20865   5.992  19.284  13.701 -0.0493  0.2938  0.0364
 4392W        W20866   0.440   2.112   9.480  0.2461  0.2507 -0.2470
 4393W        W20867   4.415   5.773  13.245  0.0002 -0.1659  0.1041
 4394W        W20868   9.606   7.629   1.699  0.1321  0.1006  0.1522
 4395W        W20869  13.376  16.682  14.491  0.1504 -0.0763  0.2556
 4396W        W20870   1.335  11.858   5.467 -0.0426 -0.1488  0.3023
 4397W        W20871   5.106  15.404  11.289  0.1637 -0.0817 -0.2457
 4398W        W20872  12.027  17.736   2.547 -0.1336  0.0664 -0.0787
 4399W        W20873   7.410  14.274   5.328  0.1563 -0.0230  0.2127
 4400W        W20874  19.527  11.715   4.756 -0.0812  0.1004 -0.0540
 4401W        W20875  10.024  15.363  10.583 -0.2723  0.0943  0.0094
 4402W        W20876  14.697  17.458   3.024  0.2064  0.0227 -0.1390
 4403W        W20877  17.925   5.522   2.821  0.2321 -0.0697  0.0099
 4404W        W20878  13.581   7.763  13.582  0.1046 -0.5308  0.2277
 4405W        W20879   2.782   6.663  14.574  0.1473  0.0171 -0.1509
 4406W        W20880  13.132  18.719   0.537  0.3178  0.0264 -0.1049
 4407W        W20881  12.941   5.148  13.922 -0.1044 -0.0234 -0.1041
 4408W        W20882   5.744   6.237   2.848 -0.1891  0.1068  0.0854
 4409W        W20883   5.549   4.046  11.390 -0.0219  0.2355  0.1903
 4410W        W20884  11.232  19.079   5.220  0.0207  0.0828  0.1990
 4411W        W20885  12.410  19.130  13.597  0.1291 -0.1994  0.2179
 4412W        W20886   3.175   4.053  14.176  0.0735  0.2040  0.0917
 4413W        W20887  12.079  10.246   3.237  0.2921  0.0618  0.0627
 4414W        W20888  15.749   0.536   0.693 -0.0984  0.1622  0.0880
 4415W        W20889   4.678   4.425  11.794 -0.0163 -0.0495 -0.1782
 4416W        W20890  14.174   5.017   2.286 -0.0668 -0.0212  0.2898
 4417W        W20891  15.058   2.759  14.501  0.0449  0.1938  0.0406
 4418W        W20892  12.420   8.953  11.996  0.2530 -0.2945 -0.1613
 4419W        W20893  13.491   3.287  11.031  0.1167  0.2718  0.1445
 4420W        W20894   6.075   3.563  12.741 -0.5764 -0.0867 -0.1402
 4421W        W20895  10.922   2.712   2.919  0.2416 -0.2657 -0.2089
 4422W        W20896   7.842   5.129   5.558 -0.4002 -0.2795  0.1731
 4423W        W20897   8.670  15.161   4.850  0.2261  0.4838 -0.0743
 4424W        W20898  15.783   8.901   9.486 -0.0545 -0.1510 -0.2536
 4425W        W20899  15.133  18.737  14.371  0.2444 -0.1011 -0.1203
 4426W        W20900   5.259  10.960  12.653  0.0677 -0.1095  0.2203
 4427W        W20901  12.666  14.157   1.123 -0.3311 -0.3327  0.0517
 4428W        W20902   0.904   1.533   0.085  0.3245 -0.2962  0.0978
 4429W        W20903  16.093   1.540   4.443  0.4168 -0.1711 -0.0431
 4430W        W20904  12.895   6.644  10.508  0.0086 -0.0386  0.1673
 4431W        W20905   7.918   5.041   3.909 -0.3161 -0.2260 -0.1648
 4432W        W20906   1.186   1.527  13.888 -0.0133  0.1503 -0.0026
 4433W        W20907  16.909  18.746  10.540  0.0438 -0.0543  0.2483
 4434W        W20908   5.442   8.297  13.498  0.1803 -0.0595  0.1795
 4435W        W20909  11.281  18.321   2.343 -0.0066  0.0275 -0.1560
 4436W        W20910  14.473   9.477  12.696  0.0861 -0.1707  0.0093
 4437W        W20911   1.066   5.301  12.626 -0.0828  0.3682 -0.1961
 4438W        W20912  16.979   3.523   3.957 -0.0991  0.1791 -0.0570
 4439W        W20913  10.974   8.376  10.070  0.0466  0.0682 -0.3995
 4440W        W20914   2.996   3.163   4.859  0.1824 -0.0030  0.4736
 4441W        W20915  14.540   8.065  12.964 -0.1369 -0.0306  0.1265
 4442W        W20916  17.104   0.682  10.707 -0.1514  0.2589  0.1348
 4443W        W20917   7.315   1.823   2.166  0.2218 -0.0880 -0.0575
 4444W        W20918  11.144  16.780  13.988 -0.1093  0.1738  0.1519
 4445W        W20919  19.356   7.930  12.961  0.1130 -0.3183  0.1797
 4446W        W20920  11.661  12.698   1.120 -0.2287 -0.0208 -0.0688
 4447W        W20921   6.477  11.558   3.739  0.0817  0.0204  0.0653
 4448W        W20922  12.860   6.190  13.212 -0.4918 -0.1667 -0.2292
 4449W        W20923   0.732  12.192   1.522 -0.0379 -0.0557 -0.1538
 4450W        W20924   8.534  16.305   2.240 -0.1898 -0.3117  0.0018
 4451W        W20925  17.130  11.179  11.041  0.5260  0.0629 -0.3151
 4452W        W20926  19.548   6.543   4.735  0.2704  0.1492 -0.2595
 4453W        W20927  14.939  19.272  11.374 -0.1246 -0.2960  0.1333
 4454W        W20928   3.163   6.349   4.178  0.0377  0.0793  0.0984
 4455W        W20929  13.431   4.354  11.162 -0.3041  0.1166  0.0420
 4456W        W20930   3.475  15.168   3.638 -0.0534  0.1314  0.0795
 4457W        W20931  17.751  17.568   3.666 -0.1387  0.0522  0.1538
 4458W        W20932   0.590  19.541  10.750  0.3101 -0.1930 -0.4654
 4459W        W20933   8.923  16.183  14.719 -0.1147  0.1076  0.1845
 4460W        W20934   1.238   0.289  10.130  0.2034 -0.0843 -0.0636
 4461W        W20935   1.794   7.235   1.174  0.1933  0.2040 -0.1697
 4462W        W20936  15.388  13.124  12.973 -0.1153 -0.1400  0.0559
 4463W        W20937  13.245  14.446  10.856 -0.0880 -0.2830 -0.3478
 4464W        W20938   2.481  10.124   0.276 -0.0148  0.2985  0.0005
 4465W        W20939   1.760  11.188   4.292 -0.2256  0.2176 -0.0577
 4466W        W20940   1.038  19.209   3.740  0.0377  0.0895  0.0905
 4467W        W20941   2.432  14.473   2.365  0.2596 -0.0493  0.1178
 4468W        W20942   9.908  17.642  13.510 -0.0376 -0.4023 -0.2800
 4469W        W20943   0.039   7.632   4.086 -0.3520  0.3595 -0.0044
 4470W        W20944  12.396   5.330  12.871  0.4949 -0.3192  0.1732
 4471W        W20945   7.744  12.685   0.315 -0.3483 -0.3086 -0.1353
 4472W        W20946  19.122  18.055  10.792  0.1632 -0.1157  0.0172
 4473W        W20947   8.516   1.390  14.143  0.0906  0.2174 -0.0511
 4474W        W20948  15.385   1.637  14.475 -0.1061 -0.2551  0.3337
 4475W        W20949   2.483   0.382   4.239 -0.2592 -0.2734 -0.3653
 4476W        W20950  10.873  10.543   2.959 -0.1667  0.0934  0.2604
 4477W        W20951   4.335   6.856   4.666  0.0580  0.2741  0.0124
 4478W        W20952  12.967   9.957   3.697  0.0595 -0.1249  0.2129
 4479W        W20953  17.520   8.527  12.054 -0.2362  0.0488 -0.0296
 4480W        W20954  16.971  16.993  12.902  0.1739  0.1206 -0.3465
 4481W        W20955  17.798  13.474   4.559  0.2551  0.0336  0.1845
 4482W        W20956   7.539  16.485  13.660  0.0434 -0.3975 -0.2829
 4483W        W20957  13.042  12.884   2.682 -0.1207 -0.0815  0.4675
 4484W        W20958   8.831   5.603   2.775  0.2431 -0.0987  0.2019
 4485W        W20959   9.045  11.131   5.266 -0.3268  0.1605 -0.0475
 4486W        W20960   1.427   0.963   0.293 -0.0118 -0.0618 -0.1598
 4487W        W20961   7.447   1.465  14.091 -0.1250  0.0786  0.0758
 4488W        W20962  19.504   9.410  12.229 -0.0861 -0.2409  0.1644
 4489W        W20963   1.775  16.662  13.590 -0.2303 -0.0243 -0.1219
 4490W        W20964  12.008   6.843  10.696 -0.0257  0.1681 -0.0641
 4491W        W20965  11.571  16.882  10.832  0.0993 -0.0112 -0.1104
 4492W        W20966  11.663  11.493   4.361 -0.0585  0.1072  0.2518
 4493W        W20967   8.488   5.273   2.940  0.3158 -0.2133 -0.0931
 4494W        W20968   1.173   8.268   3.857  0.2663  0.2012  0.2966
 4495W        W20969   8.230  17.283  13.606 -0.2045  0.1219 -0.3439
 4496W        W20970  13.777  11.741  12.907  0.0457 -0.0565 -0.1462
 4497W        W20971  18.392   0.020   3.328  0.0198 -0.1115 -0.1793
 4498W        W20972  10.847   6.765   0.663  0.4884  0.0353  0.3915
 4499W        W20973  19.275   8.237   0.372 -0.0222 -0.0458 -0.4651
 4500W        W20974   9.454  10.315  11.259  0.2168  0.0695 -0.4626
 4501W        W20975  19.316  12.784   0.421  0.0134 -0.0197  0.3166
 4502W        W20976   0.543   3.605  14.438  0.1463  0.2298 -0.2961
 4503W        W20977  10.266  14.672   3.992 -0.0299  0.0418 -0.2525
 4504W        W20978  15.942   4.941   4.900  0.1127  0.1790  0.2896
 4505W        W20979   9.987   5.861   4.286 -0.1255  0.0880  0.3809
 4506W        W20980   1.088  10.328  10.607 -0.3381 -0.1545 -0.0781
 4507W        W20981  13.798  15.431   0.748 -0.0910  0.1598  0.0023
 4508W        W20982   6.096   6.989   2.586  0.0114  0.4252  0.2223
 4509W        W20983   7.964   9.661  11.266 -0.0258  0.1538 -0.0553
 4510W        W20984   1.678   8.304  10.064 -0.1779 -0.1688  0.0332
 4511W        W20985  17.016   1.390   2.506 -0.1658  0.3336  0.1415
 4512W        W20986  18.962   7.770  13.979 -0.2664 -0.0484 -0.0604
 4513W        W20987   9.828  10.990   2.836  0.0479  0.0292  0.0354
 4514W        W20988  16.873  13.396  13.992 -0.0728 -0.0512 -0.0256
 4515W        W20989   6.301   4.550   4.678  0.1595  0.1696  0.0723
 4516W        W20990  16.434  12.429   4.758  0.3200  0.0309  0.1033
 4517W        W20991  15.247  10.252   0.035 -0.1532 -0.2345 -0.1084
 4518W        W20992  16.771  18.608   4.482  0.0180 -0.1825 -0.0679
 4519W        W20993   3.409   8.544  11.100 -0.0953 -0.1501  0.2159
 4520W        W20994  15.917   7.128   4.227  0.2105  0.1087 -0.0826
 4521W        W20995   4.229   2.446   0.721 -0.1839  0.2414  0.3607
 4522W        W20996   6.455  12.231   0.643  0.1981  0.3743 -0.1990
 4523W        W20997  15.893  11.391   0.952  0.2175  0.1526 -0.2462
 4524W        W20998  15.814   1.528  10.502 -0.2088  0.0859  0.1886
 4525W        W20999  19.431  10.780  12.097  0.1644 -0.0702  0.1530
 4526W        W21000  17.398   1.903  12.482  0.1053 -0.0812 -0.0187
 4527W        W21001  17.821  11.576  11.560 -0.2243 -0.0295  0.0753
 4528W        W21002  12.206   9.525  11.138 -0.0467 -0.0664  0.0866
 4529W        W21003  15.939  10.325  14.479 -0.0303 -0.1778  0.0333
 4530W        W21004  10.581   6.059   4.390 -0.0942 -0.0638 -0.0149
 4531W        W21005  18.943   9.080   2.472 -0.1898  0.1849 -0.3292
 4532W        W21006  13.130  15.938  11.580 -0.3164  0.1701  0.2219
 4533W        W21007   7.759   8.412  11.705  0.0649 -0.0885  0.0484
 4534W        W21008  17.457  12.385  12.881 -0.1573  0.0100 -0.0882
 4535W        W21009   6.378  18.814  11.111  0.1362  0.0855  0.0032
 4536W        W21010   6.831   2.477   4.212  0.0508  0.2881 -0.0814
 4537W        W21011  12.102  17.058   3.803 -0.2769  0.3036 -0.1305
 4538W        W21012  11.279  19.404   4.725  0.0484 -0.2589  0.0981
 4539W        W21013   7.735   3.666   0.281  0.0844 -0.4139  0.3900
 4540W        W21014   8.006  18.988  12.556  0.1353 -0.1502  0.0814
 4541W        W21015  14.973   5.234  13.399  0.3144  0.1757  0.3960
 4542W        W21016  14.309   2.351  10.754  0.2629  0.2698 -0.2534
 4543W        W21017  19.020   9.921   0.701 -0.4145 -0.3676 -0.0002
 4544W        W21018  14.758   5.892   0.458 -0.0943  0.4239  0.1403
 4545W        W21019   8.064   3.133   3.814 -0.3140 -0.1514  0.2783
 4546W        W21020   5.475   7.608  11.337  0.0079 -0.3976 -0.0074
 4547W        W21021  16.627   9.908   4.825  0.1597  0.0409 -0.2486
 4548W        W21022  19.354   9.907   1.956  0.0257  0.0793  0.1187
 4549W        W21023  19.074   8.084   3.866 -0.2692  0.1199 -0.0913
 4550W        W21024   3.813  12.191  14.103 -0.0544  0.0654 -0.3785
 4551W        W21025  10.183  14.309  14.601 -0.1866 -0.2909  0.0773
 4552W        W21026   7.094   4.179   3.713 -0.1276 -0.1878  0.0493
 4553W        W21027  10.329  17.909  11.366  0.1351 -0.0377 -0.2421
 4554W        W21028  14.573  16.254  12.508  0.1630 -0.3840  0.1228
 4555W        W21029  17.983   0.841   0.830  0.3420 -0.1233 -0.1151
 4556W        W21030  10.137   9.361   3.386  0.0592 -0.3488  0.2788
 4557W        W21031   0.981   8.756  12.969 -0.0873  0.3786 -0.0737
 4558W        W21032   4.592   6.582   2.841 -0.4477  0.1723  0.0896
 4559W        W21033  13.748  14.339  10.662  0.3950  0.2745 -0.4135
 4560W        W21034  11.612  15.495  11.221 -0.5660  0.0158  0.0947
 4561W        W21035  19.361  13.281  13.152 -0.0406 -0.0534 -0.1533
 4562W        W21036   7.824  13.583  11.762  0.0342 -0.1900 -0.0226
 4563W        W21037   3.500   9.612   2.695 -0.1641  0.1073 -0.2068
 4564W        W21038   9.904   5.330   2.041  0.1391  0.2244  0.1521
 4565W        W21039   9.499   5.401   4.226 -0.1544 -0.0738  0.1203
 4566W        W21040  16.037  14.499   5.019 -0.1171 -0.0389 -0.2607
 4567W        W21041   5.989  17.138   2.356  0.2985 -0.2665  0.0563
 4568W        W21042   6.034  12.841  11.677 -0.1357 -0.3050 -0.1650
 4569W        W21043  17.436  14.115  11.704  0.1645  0.1802 -0.2543
 4570W        W21044   5.620   6.951   2.130  0.1737 -0.2716  0.1341
 4571W        W21045  10.785  13.289  12.610  0.1682 -0.4388 -0.1605
 4572W        W21046  16.456   9.621   0.565 -0.4091 -0.2115  0.0718
 4573W        W21047  17.243  11.382   0.617 -0.1980  0.0489 -0.0434
 4574W        W21048   6.782  14.213  10.733 -0.1747 -0.2088 -0.0298
 4575W        W21049   0.645   4.355   5.524 -0.0139  0.1472 -0.1291
 4576W        W21050  10.936   7.120   3.266  0.4374  0.1452 -0.1537
 4577W        W21051   2.413   6.886  10.912  0.0750 -0.3762  0.0169
 4578W        W21052  14.782   4.751  14.614  0.5889  0.0080  0.0306
 4579W        W21053  12.765  15.272   4.137  0.1356 -0.1375 -0.1262
 4580W        W21054   1.134   9.366   0.867  0.2328 -0.1456  0.2117
 4581W        W21055   6.128  19.095   3.206  0.4705  0.2178  0.0317
 4582W        W21056   3.370   0.994  12.225  0.2803  0.0380  0.0783
 4583W        W21057   4.840  12.718   3.397  0.0634 -0.1460  0.1019
 4584W        W21058  11.236   8.575   2.124 -0.0043 -0.0322  0.5414
 4585W        W21059   1.410  10.236   5.473 -0.1833  0.1648 -0.0130
 4586W        W21060  11.696  19.425   1.514 -0.0290  0.1562  0.1468
 4587W        W21061  16.736   2.040  10.582  0.0552 -0.1189 -0.0428
 4588W        W21062  15.188  14.061  11.813 -0.0061  0.0244  0.0713
 4589W        W21063   0.370  10.924   1.068  0.3635 -0.0826 -0.3475
 4590W        W21064   8.357  15.050   0.304 -0.0756 -0.2531 -0.1876
 4591W        W21065   6.955   8.890  12.108 -0.0473 -0.0943 -0.2132
 4592W        W21066  17.913   8.400   3.885  0.0449  0.1221  0.2754
 4593W        W21067  11.125  16.469   1.398 -0.1474  0.0078 -0.2446
 4594W        W21068   5.586  17.435   3.497 -0.0664  0.1646 -0.2882
 4595W        W21069  12.842  15.335  12.785 -0.2893  0.1631  0.4364
 4596W        W21070  16.032  18.121   9.844 -0.0098  0.0809  0.1214
 4597W        W21071   2.344  13.783   0.707 -0.0304  0.0494  0.1545
 4598W        W21072   1.319  10.391  11.106 -0.0534 -0.1076  0.3583
 4599W        W21073  11.377   2.369   3.701 -0.4736 -0.0055 -0.2699
 4600W        W21074   8.700  12.074   0.137 -0.0630 -0.0431  0.3514
 4601W        W21075  18.654   7.203  10.677  0.2882  0.5365 -0.1071
 4602W        W21076  15.073   0.012   1.212  0.0193  0.4414 -0.0853
 4603W        W21077  12.524  17.920   4.293  0.1123  0.2325  0.0039
 4604W        W21078  18.797   9.690  12.118  0.2284  0.0005  0.1521
 4605W        W21079  16.719   6.836  14.469 -0.3075  0.1468 -0.0587
 4606W        W21080   2.581  17.423  13.663 -0.2261 -0.1788  0.0146
 4607W        W21081  11.808  19.198   2.016  0.2006 -0.0942 -0.0728
 4608W        W21082   4.267  16.712  10.496  0.1808 -0.1998 -0.2375
 4609W        W21083  13.462   5.578  10.830  0.1769 -0.2058  0.0524
 4610W        W21084  16.473   7.483  11.843 -0.0448 -0.0536  0.1627
 4611W        W21085  11.201  16.402  12.657 -0.0910  0.0131  0.0960
 4612W        W21086   5.305   9.717   1.756 -0.0102  0.0758 -0.0498
 4613W        W21087  19.173  17.936   3.372  0.1480 -0.2906  0.2319
 4614W        W21088   4.006   9.388  13.633  0.0350  0.0255 -0.4653
 4615W        W21089  14.566  17.202   1.408 -0.1567 -0.2209  0.1805
 4616W        W21090   4.813   4.520   3.416  0.1144  0.1037 -0.1488
 4617W        W21091  16.200  17.477   1.254  0.1979 -0.1464 -0.1179
 4618W        W21092  13.199   9.025   3.303  0.0804  0.0126 -0.1152
 4619W        W21093   9.960   8.084   0.751 -0.0326  0.1537 -0.2821
 4620W        W21094   2.341   8.656  11.327  0.0428  0.1295 -0.1445
 4621W        W21095   5.335   0.576   2.395  0.0847  0.3611  0.0760
 4622W        W21096  18.791  16.834  11.097  0.1185 -0.1068 -0.2721
 4623W        W21097  17.484   3.517  10.390  0.0201  0.2838 -0.0534
 4624W        W21098  19.052   6.380   4.761  0.2239 -0.0747 -0.0889
 4625W        W21099   7.219   3.865   1.028  0.1409 -0.1453  0.1437
 4626W        W21100  11.571   4.836  13.184 -0.0339  0.1286 -0.0406
 4627W        W21101  11.291   4.060  11.269  0.2788  0.1054 -0.1224
 4628W        W21102   1.572  19.150  12.717  0.1261  0.4078  0.1880
 4629W        W21103   1.189   6.597  11.904  0.1160  0.1695  0.2865
 4630W        W21104  10.491  16.226   0.151  0.0364  0.0971 -0.3960
 4631W        W21105  11.774  10.880   3.525  0.0320  0.2385  0.3844
 4632W        W21106  17.745   7.129  14.416  0.0338  0.0600  0.4044
 4633W        W21107  16.074  18.617  14.434 -0.0922 -0.0763  0.0536
 4634W        W21108  12.748   2.197  12.278  0.3205  0.1047 -0.1905
 4635W        W21109  19.259   9.948  11.024 -0.1144 -0.1437  0.2985
 4636W        W21110   4.533   0.134   3.394 -0.0282  0.0360 -0.1652
 4637W        W21111   5.677   1.403   0.585 -0.2391 -0.1538 -0.1204
 4638W        W21112  18.305   7.806   3.141 -0.2290 -0.2222 -0.1320
 4639W        W21113   3.490   1.524   2.647 -0.0446 -0.0420 -0.0066
 4640W        W21114   5.461  16.701  14.342 -0.2182 -0.1167 -0.0090
 4641W        W21115  17.685   9.384  10.857  0.1593 -0.1060  0.3556
 4642W        W21116   1.405  15.646  12.680 -0.2925  0.0123  0.0177
 4643W        W21117  10.796   3.817   3.344  0.0178  0.0017  0.0275
 4644W        W21118  18.989  12.029  12.523 -0.0716  0.2905 -0.1902
 4645W        W21119  13.012  12.230  12.538 -0.3362  0.1738  0.0920
 4646W        W21120   7.771   8.284   1.185  0.2196 -0.0879 -0.1014
 4647W        W21121   5.672   1.745  14.005 -0.2526 -0.1181  0.1505
 4648W        W21122   9.566   1.634  11.045  0.0593  0.0492 -0.1661
 4649W        W21123  10.620   9.094   1.431  0.1020 -0.4951  0.0220
 4650W        W21124  14.235   4.072  13.463 -0.1155 -0.0648  0.3166
 4651W        W21125   1.187   1.277   2.179  0.0177  0.1967  0.1850
 4652W        W21126  13.720   8.321   0.154 -0.2541  0.0828  0.2517
 4653W        W21127  12.902   2.580   2.956  0.4125 -0.0110 -0.0130
 4654W        W21128   0.123   8.565   2.765  0.1834 -0.2009  0.1266
 4655W        W21129   8.106  16.110   2.966 -0.0207  0.0504 -0.2325
 4656W        W21130  19.535  11.454   2.581 -0.0083  0.1074  0.1191
 4657W        W21131   2.199  15.418   0.339  0.2048 -0.1062 -0.0702
 4658W        W21132  18.164  11.735  12.324 -0.1297 -0.1475  0.1780
 4659W        W21133   3.265   0.415   2.635 -0.1422  0.0982  0.0733
 4660W        W21134  13.372   2.214   1.652  0.0638 -0.0892  0.0659
 4661W        W21135   6.741  15.167  11.853 -0.2243 -0.1189 -0.2986
 4662W        W21136   1.981   6.306  12.106 -0.0060 -0.0286  0.0392
 4663W        W21137   6.850  12.869   2.592 -0.3360 -0.3454 -0.1392
 4664W        W21138   8.039  18.792  13.910 -0.5082 -0.0616  0.1630
 4665W        W21139  14.013   8.508  10.280 -0.1231  0.0573 -0.2320
 4666W        W21140   2.768  18.972  14.705 -0.1422 -0.0349 -0.0219
 4667W        W21141  11.347  19.317  11.149 -0.3242 -0.0466 -0.1374
 4668W        W21142  12.849   0.112  13.850 -0.1776  0.4215  0.0120
 4669W        W21143  11.487   6.408  11.897 -0.2047  0.3554  0.0171
 4670W        W21144   7.841  14.471   3.199  0.2431  0.1419 -0.4046
 4671W        W21145   0.541  15.825  12.698  0.0669 -0.1538  0.3855
 4672W        W21146   7.737   6.276   1.798  0.2942  0.2575 -0.0497
 4673W        W21147  16.124   5.040  10.982 -0.2663 -0.2189  0.1256
 4674W        W21148   4.944   2.654   3.121  0.2693 -0.3058 -0.0396
 4675W        W21149  16.503   2.379  11.623  0.2112 -0.1948 -0.1608
 4676W        W21150   4.460   0.516   4.488  0.1017  0.1975 -0.3982
 4677W        W21151  11.749   3.860  11.112 -0.0195  0.0617 -0.1740
 4678W        W21152  17.962   6.349   5.607  0.0175 -0.0235 -0.2728
 4679W        W21153  12.972   3.783   4.511 -0.0088  0.1226 -0.2139
 4680W        W21154  18.891   0.276  11.888 -0.1145 -0.1637 -0.3173
 4681W        W21155   9.237   9.006   0.674  0.2037 -0.1665 -0.1145
 4682W        W21156  10.352   0.976   4.404  0.2669  0.3870 -0.2182
 4683W        W21157   8.812  10.768  13.760 -0.0567 -0.2245 -0.1378
 4684W        W21158  12.242  10.298   1.757 -0.2281  0.2363  0.0118
 4685W        W21159  14.017   8.525  11.099  0.4357 -0.2482  0.0998
 4686W        W21160  16.862   1.105  11.725  0.3476  0.1076 -0.2199
 4687W        W21161   2.859  10.878  10.550  0.1044 -0.1691 -0.2250
 4688W        W21162   1.094   4.653   4.807  0.2229 -0.3269 -0.0849
 4689W        W21163  10.224   7.586  12.752  0.0308  0.3604  0.1486
 4690W        W21164  16.776  18.243   3.494 -0.0467 -0.1423 -0.0755
 4691W        W21165   7.614   8.632  10.259  0.0170 -0.1169  0.0390
 4692W        W21166   1.787   5.903   2.783 -0.1371 -0.0901  0.0307
 4693W        W21167   2.093  13.337   3.065  0.0356 -0.0084 -0.0144
 4694W        W21168   8.695  11.190  14.379  0.0163  0.2023 -0.0034
 4695W        W21169  18.426   2.339   3.665 -0.1928  0.0013  0.1698
 4696W        W21170   6.910  15.289  10.798 -0.4255  0.1624  0.0840
 4697W        W21171  11.462  11.647   1.281  0.2686 -0.2185 -0.0982
 4698W        W21172  11.645  14.981  11.059  0.0112  0.1879  0.0717
 4699W        W21173   9.158   9.974  10.500 -0.0374  0.1618 -0.4006
 4700W        W21174  12.785   0.690   2.375  0.1540 -0.3259 -0.0336
 4701W        W21175   4.487   3.535   3.799 -0.2807 -0.0192  0.2502
 4702W        W21176  18.966  17.748   0.813 -0.0828 -0.1092  0.0595
 4703W        W21177   0.796  15.915   4.628  0.0126  0.1144 -0.1320
 4704W        W21178   1.488   4.031  11.219 -0.0133  0.2551 -0.0415
 4705W        W21179   3.809  12.281  10.685 -0.1551  0.2523  0.0978
 4706W        W21180   9.410   5.042   3.778  0.0585  0.4078 -0.1784
 4707W        W21181   9.667   5.949   3.290  0.0332 -0.4968 -0.0297
 4708W        W21182   5.670  16.395   9.426 -0.0217  0.1196  0.0780
 4709W        W21183   2.097   2.902  12.604  0.0584  0.1963 -0.2288
 4710W        W21184  15.051  15.626   0.365 -0.3232  0.2234 -0.1697
 4711W        W21185   3.109   0.528   0.104 -0.6062  0.0992 -0.1056
 4712W        W21186  10.491   0.781   3.612 -0.0053 -0.1473  0.2374
 4713W        W21187   4.403   3.091   1.762  0.0530 -0.1896  0.2103
 4714W        W21188  15.227   6.965   4.818 -0.1624  0.2200  0.2562
 4715W        W21189   1.113   2.778   9.889 -0.2621 -0.1014 -0.2470
 4716W        W21190  18.834   0.458   3.585  0.4142 -0.1686 -0.1645
 4717W        W21191  11.214   7.822  14.319  0.1700  0.1064 -0.0272
 4718W        W21192  11.202  18.250   0.619  0.1285 -0.1604 -0.1538
 4719W        W21193   3.613   2.585  12.834  0.1349  0.3894  0.1606
 4720W        W21194   8.188   9.527  13.527  0.1139 -0.3150 -0.3171
 4721W        W21195  13.072   4.559  13.017 -0.3069 -0.1336 -0.1952
 4722W        W21196  13.385   6.865  11.497 -0.1317  0.0752 -0.1471
 4723W        W21197   1.094   2.126   3.500 -0.3591  0.0501 -0.3181
 4724W        W21198  13.224   9.453  12.346  0.1032 -0.3082 -0.2094
 4725W        W21199   4.332  13.397  10.537 -0.0744 -0.1716  0.2448
 4726W        W21200  17.596  11.402   4.735  0.0458 -0.0101 -0.2061
 4727W        W21201  14.086   4.360  13.874  0.4262 -0.0903 -0.0451
 4728W        W21202  17.550   2.320   3.686 -0.0334  0.0313 -0.0720
 4729W        W21203   5.103   8.684   1.385  0.0521  0.0915 -0.1724
 4730W        W21204   1.834   9.341   2.365  0.3076  0.1017 -0.0856
 4731W        W21205  11.230   2.801  14.654  0.0492  0.1723 -0.3365
 4732W        W21206   9.631   7.790  12.428  0.1203  0.0568 -0.0728
 4733W        W21207  13.137  19.273   0.565 -0.2297 -0.2514  0.0254
 4734W        W21208  14.482   4.873  10.632  0.0148 -0.0249 -0.1898
 4735W        W21209  14.690  18.532  13.985 -0.3832 -0.1462  0.1495
 4736W        W21210  18.280  16.801   3.054  0.0721 -0.1954  0.0574
 4737W        W21211  13.983  14.459  10.231  0.1821 -0.4373 -0.0045
 4738W        W21212   0.516   3.503   2.505 -0.0981  0.0552 -0.0094
 4739W        W21213   7.353   0.277   1.030  0.1596 -0.4021 -0.1922
 4740W        W21214   5.989  11.516  11.698  0.0269 -0.0092  0.0217
 4741W        W21215   9.289  11.696   3.954 -0.2120 -0.0379  0.0185
 4742W        W21216  12.323   8.445   2.896 -0.0915 -0.0019  0.2500
 4743W        W21217  15.232  18.241   1.713  0.0092 -0.2483  0.3082
 4744W        W21218  15.465   9.839   2.399  0.1404 -0.1804 -0.0454
 4745W        W21219  10.252   6.058  13.520 -0.1176  0.3173 -0.2409
 4746W        W21220   4.550   2.530   0.248  0.0737  0.0367 -0.2330
 4747W        W21221   3.924  17.289  13.138 -0.2054 -0.0053 -0.1729
 4748W        W21222   5.613   3.516   4.146  0.0149 -0.0593  0.0188
 4749W        W21223   3.847   0.787   3.189 -0.0048 -0.0182 -0.3249
 4750W        W21224  14.793  14.563  10.576 -0.2930 -0.0504  0.1910
 4751W        W21225   0.724   4.416   2.338  0.2956  0.2523 -0.0358
 4752W        W21226   2.091   4.113   9.412 -0.0011  0.0340  0.0823
 4753W        W21227  17.011   8.673   3.642  0.1350 -0.0447  0.1009
 4754W        W21228   9.046   0.167  14.125 -0.0419 -0.1895 -0.3155
 4755W        W21229   5.118  16.480   9.176  0.0729  0.1325 -0.1172
 4756W        W21230  11.010   6.637   3.332 -0.0495  0.1189 -0.1328
 4757W        W21231  15.770  16.229   4.986 -0.1237 -0.2157  0.0950
 4758W        W21232   6.209   2.135  10.925 -0.2405  0.0687 -0.0833
 4759W        W21233  13.836   0.872   1.865 -0.0427 -0.0625  0.2527
 4760W        W21234   4.704  16.419  13.714  0.2235  0.1665 -0.3195
 4761W        W21235  15.487  17.928   3.690  0.4202 -0.6158  0.2629
 4762W        W21236   8.564   7.092   5.287  0.1093 -0.2034 -0.0911
 4763W        W21237   4.029   9.903   5.115  0.2169  0.0142 -0.1022
 4764W        W21238   4.949  19.513  13.657 -0.2556  0.0560  0.0065
 4765W        W21239  15.233   2.296   3.213  0.1707 -0.2547  0.1485
 4766W        W21240   5.609   0.071  11.864 -0.0142  0.0165  0.0556
 4767W        W21241  18.378   9.020   5.049  0.2553 -0.2157  0.0658
 4768W        W21242  12.616   0.192  11.669 -0.1838 -0.0151  0.0053
 4769W        W21243   7.263  17.654   3.816 -0.2487 -0.4174 -0.2912
 4770W        W21244  17.505  14.129   1.177  0.1315 -0.1885  0.1547
 4771W        W21245  12.089  10.303   5.534 -0.0090  0.1356 -0.2138
 4772W        W21246   2.801  10.357  11.848 -0.1232 -0.3874 -0.2503
 4773W        W21247   0.108  10.292   3.621  0.3240  0.2306  0.1356
 4774W        W21248  14.750   3.049  11.465  0.1034  0.0090  0.2171
 4775W        W21249   0.542  15.192   4.191 -0.0420  0.5070  0.0078
 4776W        W21250   3.395   6.748   3.857  0.1429 -0.0143  0.5042
 4777W        W21251  16.186   1.802   3.759 -0.0322 -0.1214 -0.0301
 4778W        W21252   8.951   8.062   3.863  0.2499  0.2197 -0.0600
 4779W        W21253   7.713   4.545   4.829  0.2335 -0.0549  0.2451
 4780W        W21254  18.883   1.795  13.824  0.0847 -0.1223 -0.0226
 4781W        W21255  18.450  14.837   4.268 -0.1153 -0.0292  0.1946
 4782W        W21256   3.843   5.296   1.536  0.0321 -0.1793 -0.0440
 4783W        W21257  18.986   8.773   1.166  0.1676  0.0214 -0.0176
 4784W        W21258   0.501   6.355  12.357  0.4272 -0.1051 -0.3205
 4785W        W21259  12.154  10.461  12.762 -0.0363  0.2001  0.3461
 4786W        W21260   5.042  13.116   1.315  0.2318 -0.0640  0.4945
 4787W        W21261  14.192  11.800   2.700  0.0452 -0.2648  0.2838
 4788W        W21262  10.141  13.052  11.422  0.1632  0.0424  0.2993
 4789W        W21263   5.611  16.722   9.833  0.0613 -0.0241  0.0553
 4790W        W21264  18.534  15.179   0.141 -0.0462 -0.2790 -0.2117
 4791W        W21265  18.910  16.635   0.249 -0.4220 -0.0124  0.0317
 4792W        W21266  14.980  10.687  14.297  0.1423  0.2499 -0.0278
 4793W        W21267   1.909   1.704   3.510  0.2591  0.2063 -0.0026
 4794W        W21268  17.229  15.740   1.108 -0.2529 -0.2165 -0.0311
 4795W        W21269   5.477  11.854  12.754 -0.4792 -0.0201  0.1487
 4796W        W21270  13.824   3.080  11.879 -0.2573  0.1225 -0.0268
 4797W        W21271  17.570  18.661   4.763 -0.0205 -0.0737 -0.0670
 4798W        W21272   2.536   6.812   2.096 -0.1165 -0.0997 -0.3322
 4799W        W21273   4.089   2.723  10.352  0.0038  0.1010 -0.0444
 4800W        W21274   3.748  13.909   1.532  0.1954  0.1449  0.1432
 4801W        W21275  12.510  17.673   1.094  0.3380 -0.2693 -0.0469
 4802W        W21276  11.729   7.457   0.815 -0.0871  0.2141 -0.1264
 4803W        W21277   7.943  10.818   4.161 -0.2009  0.1606 -0.1274
 4804W        W21278  19.255  16.438  14.050  0.2232  0.0500  0.0365
 4805W        W21279  15.904  14.379   1.953 -0.0257  0.1100 -0.2812
 4806W        W21280  18.343   8.628   0.272  0.1141 -0.0485  0.1810
 4807W        W21281   2.354  19.154   2.666 -0.0562 -0.1193  0.3060
 4808W        W21282  18.764   7.196  12.035  0.2703  0.0063  0.2408
 4809W        W21283   5.641  14.878   4.164  0.4168 -0.2650 -0.3468
 4810W        W21284   0.034   8.953  11.921 -0.1294 -0.0561 -0.1646
 4811W        W21285   5.060   8.305  12.130 -0.1059 -0.1794  0.0897
 4812W        W21286   4.096   1.113  11.468  0.2214  0.2782 -0.0294
 4813W        W21287   6.099   0.823   4.001 -0.0672 -0.0094  0.1389
 4814W        W21288   1.177   3.393  12.076  0.1165 -0.4269  0.1871
 4815W        W21289   3.391  19.083  12.746  0.0707 -0.2401  0.2000
 4816W        W21290  14.219   6.373  12.853  0.0154 -0.2071  0.0562
 4817W        W21291   7.927  16.401   3.916  0.4060  0.0665 -0.0588
 4818W        W21292  10.406  10.274  13.736  0.2030  0.1525 -0.1869
 4819W        W21293   9.934   0.539   0.217  0.3497  0.3036 -0.1602
 4820W        W21294   7.807   1.117   1.667  0.4182  0.1492  0.2552
 4821W        W21295   5.090  12.437   5.556  0.1007  0.0100 -0.0460
 4822W        W21296  18.884   5.252  10.033 -0.0040 -0.2746 -0.0319
 4823W        W21297  12.851  17.800   2.316 -0.2297 -0.0449 -0.3460
 4824W        W21298   9.105   6.648  13.593 -0.3017 -0.2114 -0.0260
 4825W        W21299  11.087   3.461  12.922 -0.0254  0.1118 -0.1018
 4826W        W21300  17.856  12.472  14.592  0.0412 -0.1766 -0.2606
 4827W        W21301   6.283   0.714  13.716  0.0842  0.0388 -0.1751
 4828W        W21302   2.144  18.900  11.109  0.0635 -0.0949  0.2522
 4829W        W21303   3.168  16.035  14.647 -0.0069  0.2450 -0.0991
 4830W        W21304   6.347   8.918   0.753  0.4389  0.1258  0.1296
 4831W        W21305  11.717   2.989  12.867 -0.1178  0.1040  0.1618
 4832W        W21306  17.286   5.974  10.982  0.1720 -0.1347 -0.2608
 4833W        W21307   4.860  10.465  13.519  0.1238  0.2895 -0.0637
 4834W        W21308  14.239  14.691   1.754 -0.1453 -0.4354  0.3856
 4835W        W21309   4.243  18.157  11.407 -0.0842 -0.0308  0.0696
 4836W        W21310  16.967  18.463   4.075  0.1231 -0.0511  0.3224
 4837W        W21311   9.443   8.007   0.645 -0.2233 -0.0617  0.1659
 4838W        W21312   5.711   8.056   9.652 -0.4006  0.0315  0.1721
 4839W        W21313   1.621   1.322   1.864 -0.1468  0.0392 -0.1143
 4840W        W21314  15.562   3.937   4.239  0.1642  0.1158  0.0600
 4841W        W21315  11.210  10.589   5.752 -0.0238  0.0084 -0.2217
 4842W        W21316  11.086   4.288  14.504 -0.0224  0.0736 -0.1325
 4843W        W21317  14.731  10.651   4.141  0.0067 -0.2185 -0.3064
 4844W        W21318   0.894  13.127   3.895 -0.0453 -0.2186 -0.0166
 4845W        W21319  15.791  13.350  14.029  0.1869  0.1766 -0.0991
 4846W        W21320   6.358   6.680  13.306 -0.0912  0.0310 -0.0432
 4847W        W21321  14.557  15.219  11.290 -0.1061  0.2520  0.2300
 4848W        W21322  10.920  12.104  11.562  0.0331 -0.1003  0.2328
 4849W        W21323   9.781   2.935   4.384 -0.1794  0.0526 -0.0635
 4850W        W21324  16.210   9.378  11.340 -0.0769  0.0128  0.3388
 4851W        W21325   7.147  11.622  10.631 -0.0771  0.0669  0.1206
 4852W        W21326  19.281  13.714  13.567 -0.1722  0.0786  0.3398
 4853W        W21327   8.355   9.986   1.448 -0.0627 -0.3537  0.0687
 4854W        W21328  12.828   1.317   3.561 -0.1358 -0.4050  0.0296
 4855W        W21329  14.208   8.976   4.894  0.3116  0.2020 -0.1577
 4856W        W21330   8.139  17.095   2.365 -0.0051 -0.1613  0.2590
 4857W        W21331  14.726   4.767   5.237  0.1469  0.1707 -0.2329
 4858W        W21332   5.115  13.699  11.196  0.3083  0.0450  0.0745
 4859W        W21333   1.692  19.207  12.001 -0.0175 -0.0149  0.2053
 4860W        W21334   3.220   7.409   0.068 -0.0355 -0.3187  0.1751
 4861W        W21335   1.322  16.404  13.775 -0.1585 -0.1884  0.0918
 4862W        W21336   2.697  18.367  12.513  0.2605 -0.1351  0.0494
 4863W        W21337  19.466   9.100  14.390  0.1573  0.3721  0.1095
 4864W        W21338  13.541   2.744   1.162 -0.1065 -0.1614  0.0493
 4865W        W21339   1.331  13.682  10.496  0.1641  0.3854  0.0642
 4866W        W21340  13.451   6.694   4.605 -0.2151  0.1867  0.3100
 4867W        W21341  16.159   7.845   0.973 -0.0423  0.0935  0.0039
 4868W        W21342   0.732   2.729  14.116 -0.0032  0.0918 -0.0389
 4869W        W21343  19.433  15.817  11.080 -0.1965 -0.3865 -0.2046
 4870W        W21344  19.216  19.225  12.767 -0.2684  0.0422  0.1567
 4871W        W21345   5.451   1.759   2.835 -0.1852  0.2763 -0.1476
 4872W        W21346   2.256  11.790  14.114 -0.1241  0.0556 -0.1338
 4873W        W21347  13.084  13.698   4.998  0.0647  0.2880 -0.1147
 4874W        W21348   4.847   1.654  13.819  0.0726 -0.0931  0.0480
 4875W        W21349  16.497  12.205   1.193  0.0603  0.0892  0.1414
 4876W        W21350  18.767  13.471  14.083 -0.0437  0.1210  0.1204
 4877W        W21351  15.657  13.607   2.633 -0.2110 -0.3223 -0.1991
 4878W        W21352   8.721   3.863  10.557 -0.1063 -0.3035  0.3064
 4879W        W21353  12.378   0.136   1.668 -0.2618 -0.2221  0.1074
 4880W        W21354   0.460   4.550   0.286  0.2787  0.2086  0.2897
 4881W        W21355  10.204   3.104  11.505  0.3120 -0.2249 -0.0156
 4882W        W21356   3.925   6.376   0.766 -0.0040  0.0698 -0.1242
 4883W        W21357  16.214  16.877   1.312  0.3321  0.2310 -0.0537
 4884W        W21358   9.116  16.510   0.639 -0.2093  0.4852 -0.3100
 4885W        W21359   3.873  19.580  14.586 -0.3160 -0.4798  0.1699
 4886W        W21360  11.346   7.134   4.479 -0.0164  0.2748 -0.2107
 4887W        W21361  15.664   2.727   2.382  0.2619  0.0300 -0.2459
 4888W        W21362  12.800  16.351  11.463 -0.0261  0.3857 -0.0293
 4889W        W21363  10.335  17.103   1.563 -0.1409 -0.2317 -0.2795
 4890W        W21364   2.148   6.034   2.395  0.3115 -0.1888  0.0120
 4891W        W21365  16.168   8.723  14.068 -0.0559  0.1547  0.1504
 4892W        W21366   9.253   0.945   0.521 -0.1657  0.1611 -0.0580
 4893W        W21367   4.916   6.703   0.111  0.0864 -0.1699 -0.0935
 4894W        W21368  16.619   0.162  14.401  0.3548 -0.2537 -0.2310
 4895W        W21369   0.352   8.109   2.783  0.5111  0.1283  0.2966
 4896W        W21370  10.327   9.582   0.742  0.2242 -0.2465  0.1415
 4897W        W21371   0.380   7.180   4.072  0.1505 -0.0560  0.1787
 4898W        W21372   5.670  17.783   1.034  0.0732  0.1913  0.0230
 4899W        W21373   0.228   3.814  10.410  0.0623 -0.0997  0.2644
 4900W        W21374  11.720   2.705   3.599  0.1400 -0.1157  0.3281
 4901W        W21375  11.463   1.450   1.025  0.1395  0.1870 -0.4834
 4902W        W21376  16.067   8.509   3.687  0.0216 -0.1373 -0.0614
 4903W        W21377  10.863   2.578   0.792  0.3509 -0.4100 -0.1696
 4904W        W21378   1.017   0.788  12.675  0.5099 -0.2494 -0.1963
 4905W        W21379  13.756  10.074   4.810 -0.2452 -0.0271 -0.1633
 4906W        W21380   1.698   8.750   9.825 -0.0977 -0.1091 -0.2339
 4907W        W21381  15.331  19.143  14.711  0.1007 -0.1711 -0.2673
 4908W        W21382   5.804   0.629   1.158 -0.3296  0.2422 -0.2208
 4909W        W21383  19.432   0.045   2.523  0.0964 -0.1469 -0.3343
 4910W        W21384  16.510  10.391  11.125  0.2083 -0.1792  0.2413
 4911W        W21385  13.285   8.650   1.553  0.2799  0.4170  0.1799
 4912W        W21386   4.587   9.980   4.275  0.0673 -0.1342  0.2154
 4913W        W21387  13.059   5.127  10.901  0.2296  0.1912  0.0896
 4914W        W21388  14.784   1.721  12.310  0.2894 -0.8338 -0.1846
 4915W        W21389   0.304   6.395   4.395  0.0114 -0.0026 -0.2235
 4916W        W21390  10.540   7.928   2.065  0.0257  0.0756  0.0198
 4917W        W21391  19.267  18.127  11.813 -0.0146 -0.1874  0.0482
 4918W        W21392   8.087  16.184  10.707 -0.0085 -0.1420  0.1561
 4919W        W21393  15.410  18.629   1.946  0.0167 -0.0043 -0.2123
 4920W        W21394  16.631   6.247  11.911  0.3396  0.0731 -0.3355
 4921W        W21395  12.921  15.989  11.086 -0.0947  0.4357 -0.1536
 4922W        W21396   4.416  18.540  13.463 -0.0803 -0.1286 -0.2262
 4923W        W21397   4.315  11.509  10.799 -0.0379  0.1621 -0.2485
 4924W        W21398   0.466  13.340  12.407  0.0386  0.2532  0.0566
 4925W        W21399  12.368   7.281  14.028 -0.3535 -0.2665  0.2011
 4926W        W21400   2.253  12.732   1.156  0.1906  0.3280  0.0321
 4927W        W21401   2.871  19.578  11.204  0.4582 -0.2134  0.1743
 4928W        W21402  13.868   2.605   4.695 -0.2897  0.3003  0.1657
 4929W        W21403   2.147  17.208  12.297  0.0866 -0.0110 -0.0789
 4930W        W21404   6.877   4.856   5.573 -0.0951 -0.0801  0.2030
 4931W        W21405  17.111  10.903  10.463  0.2640 -0.3879 -0.0293
 4932W        W21406  16.390  14.701  12.695  0.0275  0.0617  0.1884
 4933W        W21407  14.356  17.579   5.369 -0.0027  0.0750 -0.2150
 4934W        W21408   0.337   2.854   1.977 -0.0359  0.4511  0.2084
 4935W        W21409   4.197   7.522   0.113 -0.1029 -0.0411  0.3275
 4936W        W21410   5.704   4.530  13.365  0.1179 -0.1092  0.1041
 4937W        W21411  10.580  14.748   2.145 -0.0168  0.1771 -0.1703
 4938W        W21412   2.474   5.402   4.094  0.2639  0.1432 -0.1735
 4939W        W21413  10.086  19.125   0.551 -0.0608 -0.1251 -0.0575
 4940W        W21414  18.341  16.046   2.483 -0.2813  0.0424 -0.2388
 4941W        W21415   7.003  17.852  12.587 -0.0116 -0.1290  0.3972
 4942W        W21416  14.530   8.583  12.773 -0.0188  0.0904 -0.3078
 4943W        W21417   5.362  14.583   2.603 -0.0022 -0.1501  0.2164
 4944W        W21418   1.800   4.358  14.172 -0.1108 -0.0884  0.1254
 4945W        W21419  11.654   4.905   3.418 -0.2429  0.1595 -0.2090
 4946W        W21420  10.191   9.542   4.973 -0.0219  0.0339  0.1535
 4947W        W21421  15.655   0.076  13.469 -0.2586 -0.1890 -0.0031
 4948W        W21422   1.650  14.755  12.712  0.4259  0.0435  0.2392
 4949W        W21423   1.379  17.105  10.703 -0.1174  0.0893 -0.2041
 4950W        W21424  19.261  17.991  14.385 -0.0798 -0.1505  0.3975
 4951W        W21425   7.908   4.530  12.440  0.3154 -0.0333  0.0577
 4952W        W21426  16.281  11.200  11.485  0.1723  0.1099  0.1360
 4953W        W21427  11.684  17.897   2.928  0.2043 -0.0957 -0.3157
 4954W        W21428  14.916  15.673  11.356 -0.1247  0.1570 -0.1008
 4955W        W21429  10.180   8.304  14.177 -0.1121 -0.1461  0.0296
 4956W        W21430   4.760  15.254  10.779  0.0890 -0.1288 -0.0189
 4957W        W21431   0.891  14.153   4.137  0.0540 -0.5146 -0.3123
 4958W        W21432  16.235   0.823  12.985 -0.1092 -0.3235  0.1304
 4959W        W21433  17.256   9.103  12.759  0.2233  0.0350 -0.1701
 4960W        W21434  12.667   0.088  10.372 -0.4040  0.0023  0.3339
 4961W        W21435  19.505   2.466  11.239 -0.2906  0.1187  0.3155
 4962W        W21436  16.778   9.433   4.031  0.3073  0.0437  0.2315
 4963W        W21437   0.880  10.617   5.081 -0.2054 -0.1393 -0.0127
 4964W        W21438   6.801  12.839  10.417 -0.2739 -0.0102  0.0598
 4965W        W21439  11.244  16.813   0.170 -0.3349  0.2888 -0.1556
 4966W        W21440  18.091  13.375  12.336 -0.2559  0.3045 -0.2671
 4967W        W21441  19.305  16.173  10.038  0.2754  0.4425 -0.0329
 4968W        W21442   3.066   1.499   4.312 -0.1871  0.0172 -0.0720
 4969W        W21443   2.818  15.243   2.335 -0.1167 -0.1895  0.0251
 4970W        W21444  14.580   3.313   2.886  0.0442  0.1971 -0.2855
 4971W        W21445  12.271   8.748   2.129 -0.1165  0.0413  0.0351
 4972W        W21446   0.337   6.391   0.325  0.1732  0.0741 -0.4357
 4973W        W21447  19.301  12.686   4.258 -0.0466  0.2035  0.0339
 4974W        W21448  15.553  19.056  10.924 -0.1276 -0.0149 -0.2700
 4975W        W21449   5.639  15.813   1.217 -0.0983  0.0772  0.2873
 4976W        W21450  16.043  12.190   0.947  0.1794  0.1219 -0.0282
 4977W        W21451  14.368   5.552   2.284 -0.2210 -0.1153  0.2525
 4978W        W21452   8.042   3.530   0.699  0.1389  0.0536 -0.1089
 4979W        W21453  12.442  14.132  13.450  0.0081  0.3016 -0.1385
 4980W        W21454  17.856   1.090   3.550 -0.1028  0.0804 -0.0383
 4981W        W21455  11.453  19.512   5.693 -0.1000  0.0290  0.2376
 4982W        W21456  10.966  14.234  13.261  0.1776  0.1220 -0.5013
 4983W        W21457   9.492  12.426   5.032 -0.0231 -0.0341  0.2318
 4984W        W21458  13.005   9.582   4.926  0.2871  0.1867  0.1398
 4985W        W21459  17.218   5.427  10.317 -0.2275 -0.2484 -0.0580
 4986W        W21460   2.818  13.266   1.999  0.1494  0.0934  0.4601
 4987W        W21461  11.657  12.191  10.190  0.0775  0.2584  0.2988
 4988W        W21462   5.761  12.394  10.722 -0.1057  0.1446 -0.3281
 4989W        W21463   1.295   7.597  10.973  0.2750 -0.1505 -0.1396
 4990W        W21464   8.364  13.869  11.236  0.2964  0.2472 -0.4179
 4991W        W21465   6.055   7.649  12.348  0.2538  0.2207  0.0747
 4992W        W21466   7.978   8.568   1.543 -0.0054  0.1539  0.1294
 4993W        W21467   7.404   8.556  11.962 -0.2808 -0.0706  0.1878
 4994W        W21468   8.078  15.966   1.398  0.0707 -0.1280  0.3892
 4995W        W21469  11.990   0.582  11.963 -0.2846 -0.0016  0.2228
 4996W        W21470  19.440  14.512   1.122 -0.1850 -0.2395 -0.0370
 4997W        W21471  14.857   4.728  13.567  0.0074 -0.1448  0.0028
 4998W        W21472  11.039   7.348   0.429  0.3007 -0.2362 -0.0357
 4999W        W21473  18.730   8.393  11.654 -0.0676 -0.2311  0.0640
 5000W        W21474  17.929   4.536  12.239  0.2351 -0.2787 -0.2936
 5001W        W21475  10.421  12.386   1.084  0.0126 -0.0772  0.0305
 5002W        W21476   6.661  10.463  10.947  0.0413 -0.2621 -0.4181
 5003W        W21477  11.879   6.588   4.588 -0.2477  0.0125 -0.2135
 5004W        W21478  17.723  11.120   5.168 -0.0221 -0.0377 -0.0678
 5005W        W21479   5.533  16.653   2.486 -0.2652  0.0414 -0.3478
 5006W        W21480  15.790   2.947   1.123 -0.2887 -0.0663 -0.0907
 5007W        W21481   6.911   5.073   0.138  0.2229  0.0779  0.0647
 5008W        W21482   7.165   2.280   2.410  0.0642  0.2082 -0.1789
 5009W        W21483   8.856  11.091  12.627  0.0126  0.5398  0.0242
 5010W        W21484  11.338   8.721   0.107 -0.1278 -0.2899  0.1474
 5011W        W21485   3.928   4.530  10.463 -0.2664  0.1919 -0.4570
 5012W        W21486   3.535  16.581  12.122  0.3711  0.2071 -0.1717
 5013W        W21487  16.282  11.868   0.443 -0.0266  0.2595  0.2102
 5014W        W21488   2.746  18.682   1.457 -0.0137  0.2895  0.0598
 5015W        W21489   4.620   2.549  13.705  0.0447  0.1225 -0.1934
 5016W        W21490   1.821  11.227   2.071 -0.4293 -0.2593 -0.0400
 5017W        W21491  19.085   3.024  13.101 -0.1864  0.3591 -0.0906
 5018W        W21492  14.334   0.583   3.183  0.0773  0.0303 -0.0382
 5019W        W21493  16.956   5.489  13.384  0.1880 -0.0291  0.2701
 5020W        W21494   0.455   8.825  10.736 -0.0658 -0.0843 -0.1086
 5021W        W21495  12.609  16.059  12.366 -0.0921  0.0798  0.1238
 5022W        W21496   6.832  16.531  10.904 -0.1081 -0.0306  0.1701
 5023W        W21497   9.728   7.956   4.470  0.2392  0.0342 -0.1072
 5024W        W21498  15.107  13.734   4.311 -0.0157 -0.2127  0.2926
 5025W        W21499  17.043  16.295   3.381 -0.2137 -0.0527  0.2139
 5026W        W21500  11.851  15.613  12.445  0.1463  0.0328 -0.0387
 5027W        W21501  11.471  10.847  13.024 -0.0377  0.0626 -0.0464
 5028W        W21502   5.319  12.602  11.626  0.0320  0.3412  0.1437
 5029W        W21503   9.954   0.989  10.095  0.2431  0.0804  0.2001
 5030W        W21504   8.298   3.220  12.456  0.3846  0.2528  0.1940
 5031W        W21505   2.330  15.639   3.256  0.0564  0.2635 -0.0045
 5032W        W21506  15.349   3.086   2.267  0.0687  0.1847  0.3705
 5033W        W21507   8.548  17.881   2.444 -0.0876 -0.2266  0.1007
 5034W        W21508   2.714   9.705  11.250 -0.1292  0.0062  0.1156
 5035W        W21509   2.500  17.065   4.279  0.4468  0.0010 -0.0502
 5036W        W21510   1.839  15.451   1.040  0.1049 -0.0703  0.3508
 5037W        W21511  11.298   6.169   2.431  0.0551  0.0925  0.0009
 5038W        W21512   3.405   5.420  14.017 -0.0383 -0.0488 -0.2127
 5039W        W21513  12.979  15.139   4.598  0.2546 -0.0300 -0.0558
 5040W        W21514  13.504   1.296   0.166  0.1243  0.2255 -0.2836
 5041W        W21515  11.926   0.565   2.249  0.1606 -0.0877 -0.0427
 5042W        W21516   7.036  18.962  12.641 -0.0260 -0.3536 -0.0332
 5043W        W21517  19.214  15.151   2.731  0.0542 -0.0805 -0.0628
 5044W        W21518   8.338  10.233  14.636  0.0037 -0.0615  0.2729
 5045W        W21519   1.925  10.272   0.744  0.0212 -0.0505 -0.1452
 5046W        W21520  19.366  16.289  11.731  0.1152  0.3241  0.1383
 5047W        W21521  10.345   0.218  12.602  0.0312 -0.0763  0.0264
 5048W        W21522   4.855   4.304   1.341  0.0897  0.1918 -0.2620
 5049W        W21523  11.348   8.000  11.364  0.3929 -0.1299  0.3036
 5050W        W21524   6.247   1.977   2.390 -0.0681 -0.0865  0.2838
 5051W        W21525   3.289   2.802  10.223 -0.0352  0.0323  0.1626
 5052W        W21526   7.314   0.825  10.921 -0.2873 -0.1342 -0.2062
 5053W        W21527  16.294  13.453  13.946 -0.3711 -0.0477 -0.1614
 5054W        W21528   8.590   4.621   4.803  0.1346  0.4544  0.0724
 5055W        W21529  16.164   4.414   0.741  0.0723  0.0540  0.0649
 5056W        W21530  16.579  15.837   2.659  0.2371 -0.1514 -0.4137
 5057W        W21531   4.211   2.838  12.410  0.2693  0.3413  0.2560
 5058W        W21532   2.335  19.135   4.369 -0.0198  0.2005 -0.2183
 5059W        W21533   9.512  10.462  12.659  0.0852 -0.1279 -0.0847
 5060W        W21534  15.811  17.000   2.142  0.1112  0.3251 -0.1873
 5061W        W21535   2.147   9.925  11.762 -0.0454  0.0340  0.0276
 5062W        W21536   1.610  10.599  11.481  0.0461  0.1255  0.1506
 5063W        W21537  17.804  10.114   1.130 -0.0908  0.4786 -0.2561
 5064W        W21538   7.381  14.812  12.251  0.0565  0.2922  0.0276
 5065W        W21539   8.813  14.045  12.184 -0.1903 -0.0279 -0.2316
 5066W        W21540   9.399  18.086   2.202  0.0634  0.0123 -0.0853
 5067W        W21541  16.601   2.387  12.518  0.0161  0.1673 -0.1410
 5068W        W21542   3.087   5.564  13.025  0.2470 -0.0649 -0.1421
 5069W        W21543   6.906  11.230   4.328 -0.2144  0.2393  0.0999
 5070W        W21544   3.833   8.871  11.965  0.2032 -0.2866  0.4339
 5071W        W21545   7.655  10.059  11.472 -0.1669 -0.1985  0.1958
 5072W        W21546  14.096   1.849   2.016 -0.1305  0.0756 -0.0335
 5073W        W21547  14.439  17.858   0.348  0.1615  0.2865 -0.3905
 5074W        W21548   2.603  18.883  13.684 -0.0070  0.0583 -0.4574
 5075W        W21549  11.574   0.114   2.209 -0.0082  0.1322  0.1661
 5076W        W21550   6.239   0.411  10.173  0.2408  0.1681  0.0951
 5077W        W21551  17.992  12.976   5.316  0.0040 -0.3225  0.1385
 5078W        W21552   9.865   9.588  12.314  0.2201 -0.0184 -0.0288
 5079W        W21553   9.373  18.515   5.064  0.3051  0.1809 -0.4335
 5080W        W21554  16.118   3.527   3.500  0.3044 -0.2665  0.1007
 5081W        W21555  16.690  18.752  11.836 -0.0157 -0.2262  0.2357
 5082W        W21556  12.115  12.080  14.674  0.0862  0.4513  0.4131
 5083W        W21557  13.147   8.705   3.741  0.0934 -0.1231  0.2283
 5084W        W21558  11.799   0.098  13.100  0.2473 -0.1970 -0.2349
 5085W        W21559   6.050  12.668  11.108  0.1239  0.1931  0.2918
 5086W        W21560   9.279  12.442  12.571  0.0749  0.0835 -0.1545
 5087W        W21561   7.250  18.340  12.582 -0.0056  0.2376 -0.0068
 5088W        W21562   4.384   7.175   0.962 -0.2658 -0.1851  0.1301
 5089W        W21563   8.969  14.871  14.426  0.1466  0.2180 -0.0313
 5090W        W21564   5.724   8.801   3.996 -0.1790  0.0822  0.0581
 5091W        W21565   6.531   6.208  12.741 -0.0485  0.0068  0.2358
 5092W        W21566  15.791  18.044   2.542 -0.1711 -0.0524 -0.0950
 5093W        W21567  19.020  12.314  11.146 -0.5730  0.0428  0.2492
 5094W        W21568  15.943  15.657  12.019  0.2197 -0.4279  0.1732
 5095W        W21569   6.203  18.138   0.434 -0.0797 -0.2404  0.0210
 5096W        W21570  16.993   6.481   0.559  0.1172 -0.3288 -0.1937
 5097W        W21571  19.556  11.488  14.488 -0.0894 -0.1867 -0.0390
 5098W        W21572   1.546  18.306  14.522 -0.2618 -0.4402 -0.2821
 5099W        W21573  15.863   5.856  12.266  0.3058  0.0260 -0.0079
 5100W        W21574   2.334   1.220   9.895  0.0955 -0.2092 -0.1726
 5101W        W21575  11.315  15.417  13.649  0.4713  0.2410  0.0454
 5102W        W21576   2.444  12.604   0.724  0.0433 -0.1029  0.0477
 5103W        W21577  14.799   9.808  14.311  0.0634  0.1625 -0.0310
 5104W        W21578   1.520   8.281  12.423  0.0770  0.1062  0.1970
 5105W        W21579  10.286   6.598   2.058 -0.0675  0.2836  0.0329
 5106W        W21580   5.833   4.166   4.407 -0.1165  0.3427 -0.0006
 5107W        W21581  11.866  11.968   0.970  0.3218 -0.0236 -0.0496
 5108W        W21582   7.747  11.393  14.215  0.1433 -0.0556 -0.1198
 5109W        W21583  17.674   2.082   0.333 -0.1007 -0.0513  0.0071
 5110W        W21584  11.280   0.359   3.537  0.1566 -0.0545  0.0033
 5111W        W21585  10.735  13.159   0.642 -0.2659  0.3683 -0.0199
 5112W        W21586   3.832   1.510  14.313  0.0642 -0.0246 -0.0999
 5113W        W21587   5.884   2.401   9.515  0.1149  0.2418 -0.2013
 5114W        W21588  11.362   7.220   3.506 -0.1588  0.3563 -0.0486
 5115W        W21589   7.402  17.108  13.249 -0.0622  0.1036 -0.0342
 5116W        W21590   0.134  15.372   4.455  0.1171 -0.1220  0.1191
 5117W        W21591   6.382   6.119  11.486 -0.3501  0.0269 -0.1745
 5118W        W21592   9.498   9.176  14.604 -0.0797  0.0778 -0.2234
 5119W        W21593  17.945  14.196   9.786  0.0368 -0.2202  0.1237
 5120W        W21594   7.184  15.729  10.618  0.0453 -0.0775  0.3151
 5121W        W21595   8.586   4.206   9.798  0.0504  0.1563 -0.0594
 5122W        W21596   9.624  13.502  13.232  0.1698 -0.0994 -0.0326
 5123W        W21597  13.927   6.840  12.516  0.0302 -0.1151 -0.1909
 5124W        W21598   4.544   1.248   1.340  0.0266 -0.0378 -0.3394
 5125W        W21599   4.315  17.189  13.465 -0.3263  0.3856  0.1911
 5126W        W21600   2.317  15.056  11.257 -0.0218  0.2165 -0.1383
 5127W        W21601  15.916   3.369   4.906 -0.1510 -0.3227 -0.0814
 5128W        W21602   4.634   4.059   1.802  0.1129 -0.0595 -0.1188
 5129W        W21603   1.974   6.552   4.031 -0.2562  0.0954  0.0622
 5130W        W21604   1.466   7.911  11.427  0.1785  0.0291  0.0672
 5131W        W21605  17.541   2.514   0.635 -0.2125 -0.0459 -0.4014
 5132W        W21606   8.141  16.616   2.442 -0.1503 -0.0909 -0.1664
 5133W        W21607  11.913   2.739   4.062  0.0782 -0.0586  0.1953
 5134W        W21608  18.804  14.578  13.615 -0.2116  0.1158  0.2005
 5135W        W21609  15.132  15.798   2.379  0.1572 -0.2701  0.0391
 5136W        W21610   0.816  17.900   1.744 -0.0678 -0.2553 -0.1971
 5137W        W21611   8.199  12.891   1.780  0.0365  0.2972  0.1836
 5138W        W21612   9.013  19.342  12.785  0.3192 -0.1039  0.3618
 5139W        W21613   5.974   5.957   1.898  0.3809 -0.1495  0.2924
 5140W        W21614   4.452   4.214   6.101 -0.1069  0.0970  0.0975
 5141W        W21615  19.244   1.536   0.877 -0.0853 -0.2730 -0.0985
 5142W        W21616   1.617  18.559   2.600  0.2470 -0.3456  0.4611
 5143W        W21617  13.947  16.342  10.304 -0.3091  0.0904 -0.0690
 5144W        W21618  13.277   1.672   4.503 -0.0776 -0.0068 -0.2921
 5145W        W21619  19.548  15.903   3.240  0.2527 -0.1115  0.0806
 5146W        W21620  11.249  10.827  11.398  0.0330 -0.1871  0.2548
 5147W        W21621   9.712   7.366   5.425  0.2243 -0.0540  0.4061
 5148W        W21622  17.494   1.695   5.701  0.1300 -0.1260 -0.0175
 5149W        W21623  14.146   6.587   0.374  0.0689 -0.1984 -0.2085
 5150W        W21624  17.840  17.312  14.574 -0.0112  0.1417 -0.0239
 5151W        W21625   2.647   3.791  12.584 -0.3232 -0.1381 -0.0546
 5152W        W21626  17.741  14.772   3.863  0.0221  0.3921 -0.1844
 5153W        W21627   8.264  10.452  10.763  0.2220 -0.0522 -0.3893
 5154W        W21628   6.857  16.518  12.309  0.0425  0.1066 -0.0060
 5155W        W21629   4.058   9.033  13.261 -0.1451 -0.0367 -0.1945
 5156W        W21630   8.482  16.969  14.329  0.1315 -0.1790  0.2487
 5157W        W21631  12.341   9.988   4.618 -0.0865 -0.1150  0.1488
 5158W        W21632   6.543  17.879  11.206  0.1255 -0.0914  0.2469
 5159W        W21633  19.470   2.848  10.702 -0.0084 -0.0536 -0.1418
 5160W        W21634   1.918  19.176  10.468 -0.0485 -0.1566 -0.1915
 5161W        W21635  11.157  17.619   9.326 -0.0094  0.1328 -0.4144
 5162W        W21636  17.814   9.694   4.752  0.1238 -0.0577 -0.2819
 5163W        W21637   0.023   0.585   2.648 -0.3726 -0.0378  0.2494
 5164W        W21638   2.598  10.468  10.820 -0.1002 -0.1298 -0.1359
 5165W        W21639   6.913   3.198  14.472 -0.2244  0.0105 -0.3381
 5166W        W21640  10.644   8.011  10.245 -0.0889 -0.3679 -0.1934
 5167W        W21641   7.559  10.455  14.433  0.1256  0.0081  0.3195
 5168W        W21642  12.322   1.704   3.451 -0.1180  0.1992  0.0061
 5169W        W21643  13.476   8.769   0.756 -0.1818  0.1728  0.3988
 5170W        W21644  10.351   8.489   2.089 -0.0170  0.1625  0.3247
 5171W        W21645  16.455   7.867  12.739  0.1053  0.1178 -0.0367
 5172W        W21646   5.692   6.512   5.108  0.0107 -0.2178 -0.0726
 5173W        W21647   3.178  12.323  13.310 -0.0699 -0.0351 -0.1788
 5174W        W21648   6.909   3.143  11.406  0.3785 -0.0369  0.2189
 5175W        W21649  17.620   6.159   3.100 -0.0967 -0.2863  0.0456
 5176W        W21650   9.005  14.314  10.529  0.2553  0.0263 -0.1117
 5177W        W21651   9.386  16.316   1.321  0.0157 -0.1108  0.1748
 5178W        W21652   2.201  11.260   4.684 -0.2574 -0.0741 -0.1509
 5179W        W21653  10.966   6.310  14.086  0.0951 -0.0213  0.0262
 5180W        W21654  16.620  18.453  14.383 -0.0797 -0.1836  0.1488
 5181W        W21655   4.094   4.824   4.484  0.1199  0.1203  0.1751
 5182W        W21656   4.844   3.886  11.676 -0.0246 -0.2761  0.1164
 5183W        W21657  19.337   5.680  12.796  0.4416 -0.2400 -0.0527
 5184W        W21658   7.043  11.859   2.548  0.1126  0.1061  0.0284
 5185W        W21659   1.149  11.948   4.962 -0.2953  0.3252 -0.0474
 5186W        W21660  12.418   6.136  11.739  0.2912 -0.0029 -0.0131
 5187W        W21661   4.235  13.841   0.258 -0.2795  0.0472  0.0433
 5188W        W21662   2.020   4.743  10.714 -0.1948  0.1366  0.2926
 5189W        W21663   6.948  16.618   5.435 -0.0281 -0.1557 -0.3193
 5190W        W21664  19.384   9.163   4.451 -0.2021 -0.2448  0.6835
 5191W        W21665   8.652  12.141   4.927 -0.2606  0.3051  0.0810
 5192W        W21666  12.152  15.199  12.422 -0.0015 -0.2864  0.2338
 5193W        W21667   9.336  12.462   4.334  0.2600 -0.0123 -0.2515
 5194W        W21668   7.488  10.920   0.113  0.0787  0.0893  0.1591
 5195W        W21669  16.861  13.326  13.458  0.4171  0.0574  0.0518
 5196W        W21670   8.435   2.689  12.282  0.3538 -0.0077  0.0967
 5197W        W21671   3.259  12.204   1.898 -0.0887 -0.0954 -0.0840
 5198W        W21672  14.508  15.920  12.940  0.0490 -0.1397  0.0712
 5199W        W21673   2.745   4.339  11.900 -0.0932 -0.4407  0.1108
 5200W        W21674   8.176   6.031  13.045  0.0739  0.3348 -0.2716
 5201W        W21675   7.807   1.480  11.633  0.3202 -0.0998 -0.2143
 5202W        W21676   5.318   5.890   4.006  0.0632  0.0620  0.0562
 5203W        W21677   9.329  16.447   2.875 -0.0019 -0.0183  0.2951
 5204W        W21678  11.257  17.839  14.424  0.1573 -0.2669 -0.5359
 5205W        W21679   0.195  14.057   3.852  0.3057 -0.0983 -0.5880
 5206W        W21680  15.152   9.104  12.530  0.0152 -0.0028 -0.2773
 5207W        W21681  12.587  16.520   0.357 -0.1612 -0.1743 -0.0625
 5208W        W21682  15.509  14.591   9.945 -0.1149 -0.0697 -0.0681
 5209W        W21683   1.963  11.611   2.994  0.1443  0.1200 -0.0580
 5210W        W21684   6.227  11.957   1.535 -0.3667  0.2851  0.0495
 5211W        W21685  13.771  19.387  11.225  0.0586 -0.1580  0.2054
 5212W        W21686  18.385  13.644  11.866 -0.1475 -0.1413  0.1895
 5213W        W21687  13.392   4.957  12.993  0.0375  0.2053  0.0178
 5214W        W21688  10.763  12.289  13.108 -0.1211 -0.1810 -0.1142
 5215W        W21689   1.946   8.535  13.509  0.0734  0.2216 -0.2259
 5216W        W21690  18.102  18.401   3.415 -0.0387 -0.0603 -0.0326
 5217W        W21691  11.670  14.895  10.058 -0.1230 -0.0167 -0.3747
 5218W        W21692   7.424  16.296   3.558 -0.3440 -0.0132  0.3188
 5219W        W21693  15.174  17.061   1.203 -0.2267  0.5016  0.2020
 5220W        W21694  13.548  18.158   1.577  0.4229 -0.1520  0.1033
 5221W        W21695  15.913  10.697  12.440 -0.1453  0.4417 -0.2798
 5222W        W21696  14.149   1.664   5.647 -0.3576  0.0788 -0.4048
 5223W        W21697   2.718  18.075   1.176  0.0767  0.1444 -0.5901
 5224W        W21698   8.384  18.091  13.429 -0.1948  0.0533 -0.1479
 5225W        W21699   0.790   8.564   5.322  0.0839 -0.3805 -0.2027
 5226W        W21700   6.203  13.794  12.754  0.1140  0.0119  0.1176
 5227W        W21701   9.623   5.526  14.137 -0.0837  0.1279 -0.0245
 5228W        W21702   1.259   9.284   0.083 -0.1169  0.3620  0.2055
 5229W        W21703   4.890  19.371  10.609  0.1042 -0.1431  0.0960
 5230W        W21704  16.277   9.671   3.785  0.0534  0.1092  0.3656
 5231W        W21705  15.441   7.254   1.296  0.0197 -0.1182 -0.2438
 5232W        W21706   0.144  15.171   9.008 -0.0947 -0.1941  0.0270
 5233W        W21707  15.382  17.291   0.746  0.2068  0.1834  0.1333
 5234W        W21708   7.450   9.402   4.493  0.3541  0.0947 -0.3902
 5235W        W21709   7.936  11.381  12.314 -0.0207  0.0647  0.0550
 5236W        W21710  10.102   9.944  10.155 -0.0482  0.1535 -0.0895
 5237W        W21711   8.378   8.023   9.838 -0.0975  0.1715  0.2535
 5238W        W21712  11.247   8.763   9.923  0.1833  0.0575  0.0691
 5239W        W21713  14.569  18.800  11.684 -0.0092 -0.2567  0.3891
 5240W        W21714  14.779  18.353   3.067  0.2506  0.1220 -0.0459
 5241W        W21715   1.776   5.268  10.915 -0.0446  0.1008  0.1347
 5242W        W21716  18.519  10.789   1.554  0.0276  0.2664 -0.0596
 5243W        W21717   3.735  19.084   8.690 -0.2945  0.0527 -0.0591
 5244W        W21718  13.426  18.527  10.061 -0.1221 -0.1461 -0.4185
 5245W        W21719  16.671  14.995  11.886  0.0321 -0.2229  0.4102
 5246W        W21720   6.850  12.864   1.630  0.2640  0.1228 -0.0743
 5247W        W21721   8.746   2.452   0.194  0.1476  0.1347 -0.0755
 5248W        W21722   9.643   2.707   0.127  0.0720 -0.1408 -0.0172
 5249W        W21723   4.058   7.954   0.365 -0.1869 -0.3216 -0.4389
 5250W        W21724   7.469   2.684   1.555  0.2205  0.1104  0.0990
 5251W        W21725  14.651  16.565   5.092  0.3490  0.1058 -0.2095
 5252W        W21726   3.355   2.779   0.160 -0.1238  0.2557 -0.1673
 5253W        W21727   6.978   1.682  12.441  0.0390  0.0510 -0.1720
 5254W        W21728  18.783   1.101   9.812  0.3197 -0.0362  0.2011
 5255W        W21729   9.219  19.057   3.084 -0.0913 -0.0448 -0.0950
 5256W        W21730   9.919   4.493   4.535 -0.0516  0.1393  0.0312
 5257W        W21731  18.620   9.606   2.947 -0.1921 -0.0886 -0.1159
 5258W        W21732  14.542  17.313  10.651  0.0078  0.1930  0.1496
 5259W        W21733   2.791  12.121  13.708 -0.2720  0.1126  0.1329
 5260W        W21734   8.567  18.618  13.750 -0.0498  0.2677  0.2843
 5261W        W21735   4.059   4.715   2.466 -0.0522  0.0384 -0.2049
 5262W        W21736  15.297  18.773   3.646  0.0529  0.1297  0.0737
 5263W        W21737  17.225   4.152  14.669 -0.0875  0.0413  0.0741
 5264W        W21738  14.211  13.644  10.238 -0.1951  0.0605  0.2122
 5265W        W21739   6.927  17.634   3.491 -0.1880  0.1092  0.1301
 5266W        W21740   1.484  13.241  11.702 -0.1168 -0.3760  0.1219
 5267W        W21741   3.578  10.270   9.954 -0.0709 -0.1985 -0.0058
 5268W        W21742  13.706   4.729  11.033  0.1345 -0.0413 -0.3829
 5269W        W21743   1.918   5.077   3.306  0.0848  0.0768 -0.2459
 5270W        W21744   0.184   2.120   0.809 -0.3244 -0.1682 -0.1956
 5271W        W21745  14.067  14.015  14.044  0.4787 -0.1663  0.0792
 5272W        W21746  16.429   5.721  12.165 -0.2221 -0.1520  0.0375
 5273W        W21747   5.109   8.669   3.196 -0.4188 -0.0628  0.1395
 5274W        W21748   1.406  12.208   2.384  0.1246 -0.0080  0.4977
 5275W        W21749  11.613  11.629   0.047 -0.0951 -0.0557 -0.1130
 5276W        W21750  15.872   5.058  13.617 -0.0711 -0.1426 -0.1945
 5277W        W21751   5.029   3.122   1.768 -0.0817 -0.3492 -0.1012
 5278W        W21752   7.188  17.089   3.872 -0.3069 -0.3861  0.1023
 5279W        W21753  11.079  18.948   4.702  0.1163  0.3158 -0.1439
 5280W        W21754   6.445  16.110  11.720  0.2875  0.0067  0.4287
 5281W        W21755   5.375   2.760   4.435  0.2205  0.1738  0.2412
 5282W        W21756  12.790  15.834  12.807 -0.3808 -0.1536  0.3204
 5283W        W21757   3.379  11.357  14.075 -0.0121  0.0959 -0.0819
 5284W        W21758   3.181  18.776   0.244  0.0790  0.1139  0.3340
 5285W        W21759   4.743  10.193   3.236 -0.2777  0.0720  0.0076
 5286W        W21760   5.821  17.511  13.008 -0.1496  0.0361  0.2339
 5287W        W21761  15.370   7.274   9.324 -0.3215 -0.0302 -0.2523
 5288W        W21762   8.277   2.824   2.754 -0.1563 -0.1315 -0.0780
 5289W        W21763   6.105   4.581  14.462  0.1393  0.2307  0.0322
 5290W        W21764  17.555  10.390   0.535 -0.4182 -0.0709 -0.5940
 5291W        W21765   5.680   3.404   3.249 -0.2280 -0.0262  0.0609
 5292W        W21766  15.111   1.876  13.461  0.2391 -0.1486  0.4633
 5293W        W21767   2.118  17.011   2.564 -0.0687  0.0454 -0.1115
 5294W        W21768  14.987  11.865   2.883  0.1200  0.0364  0.1106
 5295W        W21769   6.685  18.449  11.483  0.1885  0.3594  0.0395
 5296W        W21770   4.787   9.404   0.232  0.1029 -0.1979 -0.0922
 5297W        W21771  11.058  14.782   3.471 -0.0972  0.0771  0.0340
 5298W        W21772   7.645  10.840  13.132 -0.1901  0.2858  0.3634
 5299W        W21773   0.430  16.105   0.836  0.2372  0.2614  0.2278
 5300W        W21774  15.774   1.153   4.135  0.0087  0.0142 -0.1009
 5301W        W21775   8.280   6.693   2.494  0.0521  0.0518 -0.2616
 5302W        W21776   4.553  18.989   9.886  0.0454  0.2617  0.0400
 5303W        W21777  14.456   4.610   0.358  0.0004  0.0539 -0.0205
 5304W        W21778   4.511  11.700   9.072 -0.2022 -0.3326  0.0961
 5305W        W21779  13.828   1.471  14.297 -0.0762  0.0664  0.1763
 5306W        W21780  11.860   7.045   1.096 -0.3365  0.0724 -0.1116
 5307W        W21781  10.701   6.780   2.942 -0.0174 -0.1282 -0.0274
 5308W        W21782   2.872   8.890   3.050 -0.2597  0.2860  0.2086
 5309W        W21783   9.135   8.498  13.967 -0.0544  0.0736  0.4067
 5310W        W21784  11.934  12.113  11.708  0.0839  0.0494  0.1834
 5311W        W21785   8.318  15.714  10.802  0.0383 -0.2244 -0.0335
 5312W        W21786   2.253   0.412   3.761  0.2230 -0.1168  0.2047
 5313W        W21787   3.783  14.973   0.941 -0.1574 -0.0071  0.2151
 5314W        W21788   5.969   5.846  13.175  0.1024  0.3226  0.0448
 5315W        W21789   3.090  13.347  11.302 -0.2035  0.1275 -0.1584
 5316W        W21790   6.106   0.521   5.074  0.1701  0.3322 -0.3250
 5317W        W21791  10.694   2.297   1.531 -0.0547  0.3393 -0.1897
 5318W        W21792  19.078   0.801   1.086  0.1613  0.3141 -0.3529
 5319W        W21793   7.715   2.535   3.573 -0.3191  0.1424 -0.1096
 5320W        W21794  17.985   9.408  12.135  0.0030  0.2811  0.1027
 5321W        W21795  10.337  17.013   4.650 -0.1282 -0.1568 -0.0394
 5322W        W21796   5.697  11.413   4.941  0.2754 -0.1211 -0.0526
 5323W        W21797  10.332  18.794   1.504  0.3664 -0.1251 -0.2997
 5324W        W21798  15.720   3.456   4.402  0.2337 -0.0527  0.4830
 5325W        W21799   0.289   1.593   4.547  0.2549  0.1750 -0.0447
 5326W        W21800   3.581   7.626  10.671  0.0256 -0.1970  0.0291
 5327W        W21801  17.025   1.711   9.760 -0.2272  0.1182  0.0368
 5328W        W21802   7.095   3.348  13.987  0.1118 -0.1996 -0.3489
 5329W        W21803   5.156  11.809   2.437 -0.3070  0.1038 -0.4140
 5330W        W21804  15.548   8.277   3.887 -0.1539  0.0841  0.0056
 5331W        W21805  16.813  15.748   0.892 -0.3477  0.1892  0.0207
 5332W        W21806  17.199  10.059  14.379  0.0599  0.1445 -0.4378
 5333W        W21807   8.138  13.348  12.603 -0.2156  0.1170 -0.1963
 5334W        W21808   2.644   6.543   3.550 -0.0217  0.1098 -0.0239
 5335W        W21809   8.949   0.820   0.920  0.1900  0.4744 -0.1447
 5336W        W21810   8.343   7.414  12.867  0.1419 -0.1590 -0.3010
 5337W        W21811  10.078  18.650   5.094  0.0516 -0.1532  0.0504
 5338W        W21812  15.536   7.994   1.558  0.0066  0.0581  0.2918
 5339W        W21813  11.231   6.910   0.265  0.0771  0.0761 -0.0878
 5340W        W21814  17.509  11.142  12.798  0.0857 -0.2990  0.0020
 5341W        W21815   0.206  18.952   3.388  0.0962  0.1034 -0.3163
 5342W        W21816   9.972  17.481   2.387 -0.2391 -0.0266  0.3768
 5343W        W21817  11.829   3.207  13.448  0.1031  0.0455 -0.0967
 5344W        W21818  17.725  11.953   1.329 -0.0660 -0.1694 -0.0396
 5345W        W21819   4.861   7.155   4.583  0.0631  0.3247  0.0275
 5346W        W21820   9.845   4.665   2.740  0.0387 -0.2154 -0.2473
 5347W        W21821  15.021  18.444   0.656  0.3025 -0.2323 -0.0188
 5348W        W21822   2.138  13.942  13.044 -0.1179  0.1201  0.1119
 5349W        W21823   7.790   5.953  12.693 -0.1357 -0.0108  0.0119
 5350W        W21824  13.818  14.279   0.356  0.1047  0.0932 -0.0489
 5351W        W21825   3.821  13.250   2.213  0.0682 -0.3428 -0.3432
 5352W        W21826   1.144   3.210   0.769 -0.0338 -0.0287  0.2525
 5353W        W21827  12.376   2.433  14.020  0.0967 -0.2332  0.2324
 5354W        W21828  12.903  11.667  14.318 -0.0840 -0.2242  0.2739
 5355W        W21829   0.554   8.491  12.965 -0.1115  0.1475 -0.0065
 5356W        W21830   5.512   8.731  10.598  0.0503  0.1221  0.1648
 5357W        W21831  14.822  17.725  12.418 -0.0796 -0.0674 -0.1525
 5358W        W21832  13.676  12.609  11.344  0.0094 -0.2352 -0.1924
 5359W        W21833   7.237  14.918  10.038 -0.0166  0.0200  0.1967
 5360W        W21834  14.800   7.879  10.208 -0.1344 -0.2668 -0.1280
 5361W        W21835   4.395  14.844  14.518  0.2028 -0.3981 -0.0512
 5362W        W21836   4.561  10.211   2.655 -0.2336  0.0718  0.0629
 5363W        W21837  11.076  18.849   2.232 -0.4098 -0.0938 -0.1310
 5364W        W21838  14.758  13.438  11.204  0.1517 -0.1469 -0.2752
 5365W        W21839   7.269  10.381  11.679  0.0576 -0.3614  0.0272
 5366W        W21840   1.130  11.269   1.403 -0.1396  0.0724  0.2756
 5367W        W21841  14.302   6.226   2.524 -0.2077 -0.1852  0.0973
 5368W        W21842  15.918   4.752   0.083 -0.1034  0.1123  0.2636
 5369W        W21843   1.226  18.628   0.691 -0.0240 -0.0945 -0.0005
 5370W        W21844   4.724  18.380  13.815  0.1197  0.1226  0.2966
 5371W        W21845  19.563  19.290   2.987  0.2418 -0.0901 -0.0600
 5372W        W21846   0.488   1.130   1.730  0.0937 -0.0428 -0.0939
 5373W        W21847  12.620  12.842   5.367  0.1696 -0.0454  0.0598
 5374W        W21848  18.779   2.059  11.590  0.0984  0.1081  0.1745
 5375W        W21849  16.184   1.195   9.899 -0.1682  0.4303  0.0830
 5376W        W21850   9.564  16.683  12.170  0.1980 -0.1388 -0.2650
 5377W        W21851   2.936  10.211  12.755  0.0540 -0.0878  0.0309
 5378W        W21852   8.024   3.708  11.824 -0.0747 -0.0204  0.2729
 5379W        W21853   9.789  17.799  14.360  0.0364  0.3033  0.0385
 5380W        W21854   5.760   6.451   1.931  0.2088  0.2070 -0.4808
 5381W        W21855  14.522   1.768  12.922  0.0968  0.2797  0.5239
 5382W        W21856   2.997  10.373  11.126 -0.1803 -0.0448  0.5976
 5383W        W21857  15.164  10.617  11.717 -0.0900 -0.0736  0.1643
 5384W        W21858  18.420  16.638  10.245  0.1354 -0.1330 -0.0907
 5385W        W21859   5.305   4.506  10.557  0.2667 -0.0794 -0.0571
 5386W        W21860   4.933  11.026   3.004 -0.0336  0.2112 -0.2170
 5387W        W21861  14.950   8.628   1.026  0.3298 -0.0722 -0.0373
 5388W        W21862  18.959  11.018  12.240  0.1098  0.2018 -0.1349
 5389W        W21863   5.386  10.348  11.106  0.1393 -0.1933 -0.0762
 5390W        W21864  17.765   0.909   2.995  0.3625 -0.2720  0.0895
 5391W        W21865   0.690   3.029   3.508  0.0889 -0.3856  0.1802
 5392W        W21866   1.024  17.874   3.056 -0.1852  0.0177  0.2330
 5393W        W21867  11.778  11.265   5.703 -0.0572 -0.0773 -0.0421
 5394W        W21868   4.869   3.538  14.672 -0.1653  0.1539  0.0445
 5395W        W21869   2.865   4.307   4.596 -0.2019 -0.2323 -0.1196
 5396W        W21870   0.189  16.990  12.381  0.0240 -0.0346 -0.1293
 5397W        W21871  14.350   5.686   1.745  0.1268 -0.0199 -0.0455
 5398W        W21872  10.870  14.834   0.507 -0.0384  0.4988  0.1426
 5399W        W21873   1.506  16.346   9.855 -0.0320 -0.0165  0.2219
 5400W        W21874  16.616  15.922   3.174 -0.0539  0.0687  0.2145
 5401W        W21875   1.847   9.102   4.616 -0.1967  0.1355 -0.0848
 5402W        W21876   0.277  14.445   4.152  0.2068 -0.0744 -0.0545
 5403W        W21877   8.332   2.865   1.445 -0.1733 -0.1755  0.2029
 5404W        W21878   7.495   6.731  12.745  0.1311  0.2391 -0.2176
 5405W        W21879  15.377   3.673  10.949  0.0856 -0.0559  0.1022
 5406W        W21880   4.857   8.538   3.994  0.3124 -0.1604 -0.2300
 5407W        W21881  14.836  18.596   3.819  0.1250 -0.2358 -0.0542
 5408W        W21882  19.038   4.215   9.722  0.2594 -0.4615 -0.0445
 5409W        W21883   7.143  17.358  10.663  0.2357 -0.3606 -0.2129
 5410W        W21884   6.831  15.017  10.253  0.4174  0.0260 -0.4613
 5411W        W21885  16.402   7.001   4.230  0.0892  0.1949 -0.1676
 5412W        W21886  10.334  16.143   4.976 -0.3883 -0.1112  0.1516
 5413W        W21887  16.320  14.117  10.875  0.0103  0.1778  0.1593
 5414W        W21888   7.118   3.264   4.707  0.0885 -0.2702  0.0273
 5415W        W21889   5.791  11.834   0.181 -0.2394 -0.2824  0.0137
 5416W        W21890  10.397   7.467   9.410 -0.1101  0.1270 -0.1519
 5417W        W21891  14.889  17.214  11.610 -0.2134  0.2575 -0.2330
 5418W        W21892  16.710  14.517   2.691  0.0472  0.0258 -0.1733
 5419W        W21893   8.932   4.712  12.307  0.1321  0.1058 -0.3708
 5420W        W21894  15.642   7.070  11.275 -0.2677  0.1262 -0.3058
 5421W        W21895   9.187   3.848   2.633  0.3046  0.2429  0.0320
 5422W        W21896   2.421   9.090  11.881 -0.3069 -0.1519  0.1357
 5423W        W21897   6.066   0.585  13.233  0.0231  0.3156  0.2439
 5424W        W21898   6.365  17.561   3.684 -0.1992  0.2095 -0.3321
 5425W        W21899   1.903  17.966   4.206 -0.1219 -0.3162  0.1984
 5426W        W21900   2.489   6.999  11.399  0.3228 -0.0413  0.1537
 5427W        W21901   4.479   3.845  14.628 -0.0557 -0.1916  0.1972
 5428W        W21902  14.054  15.336  10.081 -0.1641 -0.0537  0.1897
 5429W        W21903   7.897   9.943  14.281  0.0739  0.0058  0.1597
 5430W        W21904   8.176  12.924  12.943  0.0216 -0.0064 -0.0080
 5431W        W21905  18.842   8.652   3.748 -0.1331 -0.0854 -0.1957
 5432W        W21906   3.067   8.086  12.031 -0.4877  0.4484  0.1464
 5433W        W21907   3.162   5.265  13.399  0.0603  0.1792 -0.0483
 5434W        W21908  10.510   1.856  10.507  0.1557 -0.0190 -0.3105
 5435W        W21909   7.604  13.967  12.478  0.0161  0.1346  0.2016
 5436W        W21910   3.472  11.961   0.140 -0.0915  0.1029  0.3318
 5437W        W21911  16.766   1.004  13.537 -0.0024  0.0899 -0.0909
 5438W        W21912   0.920   5.679  13.797 -0.1187  0.0751 -0.1677
 5439W        W21913  19.283  14.243  13.453 -0.1750  0.3531 -0.0219
 5440W        W21914  11.716   9.253   1.545 -0.0662 -0.1983 -0.2715
 5441W        W21915   7.436   3.065  11.132  0.0085 -0.0588 -0.0116
 5442W        W21916   4.320  13.322  13.346  0.0682  0.0724  0.0762
 5443W        W21917  10.373   5.561  13.137  0.3402 -0.1002  0.0127
 5444W        W21918  13.676   8.127  11.062 -0.1427 -0.3334 -0.4591
 5445W        W21919   9.384  18.634  13.176  0.0596 -0.3717 -0.1417
 5446W        W21920  12.500   4.419  12.970  0.1686  0.2710  0.0179
 5447W        W21921   2.725   5.231   0.709  0.1455  0.1818 -0.0529
 5448W        W21922   4.860   0.333   4.264 -0.0576  0.1996 -0.1819
 5449W        W21923   4.599  19.175   0.212  0.2334 -0.1211 -0.0546
 5450W        W21924  10.498  12.464   5.345 -0.0208  0.1049 -0.0582
 5451W        W21925  14.206   1.068   3.197  0.0537  0.1598  0.0345
 5452W        W21926  14.952   3.166   0.599 -0.1218  0.0714 -0.2297
 5453W        W21927   1.261  10.981  14.307 -0.1160 -0.0763  0.2055
 5454W        W21928   4.167  16.700   2.540 -0.2754  0.2384 -0.0247
 5455W        W21929   4.274  16.863  14.179  0.0000  0.0395  0.1516
 5456W        W21930  17.379   2.775  12.784  0.1747 -0.1169 -0.0127
 5457W        W21931   8.088   2.555  13.620  0.1191  0.0599 -0.1986
 5458W        W21932   5.604  16.381   1.284 -0.2201 -0.0705 -0.1087
 5459W        W21933  15.015   0.688   3.737  0.2264 -0.0445 -0.1166
 5460W        W21934   9.128   4.856  13.837  0.0455  0.2194 -0.1714
 5461W        W21935  17.093   4.908  11.703  0.1536  0.0009  0.3393
 5462W        W21936   2.474   3.559   3.976  0.0680  0.1056  0.0398
 5463W        W21937  14.883  18.606  12.132 -0.3247 -0.0376 -0.0749
 5464W        W21938  17.548  11.615   9.652 -0.4796 -0.0216 -0.0111
 5465W        W21939  11.878   5.893   2.294 -0.0425 -0.2267 -0.3564
 5466W        W21940   8.580  13.868  10.564  0.1579 -0.1228 -0.0931
 5467W        W21941   8.230   6.613   4.526 -0.1346 -0.0092  0.0122
 5468W        W21942  14.244  15.074  11.969 -0.2194  0.0027  0.1197
 5469W        W21943   2.665   2.859   4.690  0.0928 -0.0980  0.2499
 5470W        W21944   1.100  13.307  12.876  0.2917 -0.1899 -0.0547
 5471W        W21945  17.594   8.042   3.570 -0.0850  0.0482  0.1104
 5472W        W21946  15.131  11.987   2.251 -0.1512  0.0226 -0.3426
 5473W        W21947   1.328   2.721   1.721  0.0311 -0.2865 -0.0457
 5474W        W21948  19.301   1.552   2.151 -0.0974 -0.0124 -0.1239
 5475W        W21949  12.444   5.968   2.900  0.0802  0.3163 -0.1428
 5476W        W21950  18.093  10.868   3.952  0.0099  0.0099 -0.2772
 5477W        W21951  14.934  18.815   3.235  0.1676 -0.1454  0.0291
 5478W        W21952  12.549  19.404   3.904 -0.0296  0.1241  0.1353
 5479W        W21953   0.228  10.592   4.069  0.4128  0.0203  0.4268
 5480W        W21954   2.120  13.358   4.092 -0.0838  0.1954 -0.2199
 5481W        W21955  14.644   3.526  14.184 -0.0432 -0.2629 -0.0967
 5482W        W21956  15.405  11.241   1.772  0.0084 -0.0687  0.1336
 5483W        W21957   2.517   8.494   3.283 -0.3971 -0.2159 -0.2158
 5484W        W21958  18.357   0.377  10.971  0.1678  0.0478  0.1284
 5485W        W21959  18.170  12.122  13.166  0.0766  0.0842 -0.0843
 5486W        W21960   6.390   2.369   3.404 -0.0090  0.0751 -0.0563
 5487W        W21961   5.861   5.943   0.828 -0.1626 -0.0089 -0.1060
 5488W        W21962  12.133  15.686   4.236  0.2191 -0.0972  0.2153
 5489W        W21963  16.792  11.360  11.396  0.0621 -0.0862 -0.1071
 5490W        W21964  12.002   9.371   3.922 -0.2580 -0.0206  0.0265
 5491W        W21965   1.284  18.775   3.993  0.1064 -0.0595  0.2011
 5492W        W21966   5.937   5.449  12.769  0.0299  0.0370 -0.0107
 5493W        W21967   7.335   1.242  14.609  0.3416  0.2790 -0.1657
 5494W        W21968  10.115   4.990   1.443  0.5250 -0.1359  0.0917
 5495W        W21969   8.994   3.455   2.125  0.0811  0.1971 -0.1697
 5496W        W21970   5.875  14.527  12.051 -0.1518  0.1607  0.1073
 5497W        W21971  11.934   7.742   1.952 -0.1555  0.2637  0.0580
 5498W        W21972   6.452   7.989   4.210 -0.0943 -0.1352 -0.2127
 5499W        W21973  11.517   8.322   2.459  0.0051 -0.0888  0.1997
 5500W        W21974   9.687  14.532   0.756  0.0544 -0.0832 -0.1452
 5501W        W21975  18.205  10.541  12.307 -0.0345  0.0219  0.0110
 5502W        W21976  10.486  11.237  11.803 -0.0717  0.2132 -0.2091
 5503W        W21977  12.699   8.182   0.091 -0.0287 -0.0200 -0.0260
 5504W        W21978   4.449   6.753   3.709 -0.2673 -0.1406 -0.0479
 5505W        W21979  14.389  12.496   0.413  0.1152 -0.3566 -0.1668
 5506W        W21980  19.145   6.055   0.250 -0.0630  0.0060  0.2514
 5507W        W21981   4.793  14.680   1.395 -0.1284 -0.2785 -0.1557
 5508W        W21982  11.176  18.872   3.381 -0.1262  0.0569 -0.3440
 5509W        W21983  13.133   1.167   4.502  0.0893 -0.2799  0.1537
 5510W        W21984  18.512  13.894  11.440  0.0786 -0.2851  0.3129
 5511W        W21985   3.663  12.521   2.180 -0.2091  0.1608 -0.1098
 5512W        W21986   7.343   9.895  14.000  0.0036  0.1290  0.2661
 5513W        W21987   9.194  18.507   0.608  0.2706 -0.0410  0.0032
 5514W        W21988   7.974   9.091   5.350 -0.2158  0.1755  0.1762
 5515W        W21989   7.244   2.912   2.949 -0.0930  0.2419 -0.0126
 5516W        W21990   9.937  17.459  13.966  0.1426 -0.0698  0.1270
 5517W        W21991   4.645  13.089   5.081 -0.0177 -0.2675 -0.0339
 5518W        W21992  12.654   8.473   4.553  0.0193 -0.0245 -0.2113
 5519W        W21993   7.122  17.276   3.165  0.2620  0.0756  0.1031
 5520W        W21994   9.318   2.589   1.757 -0.1456 -0.0763  0.0538
 5521W        W21995   6.220   8.761  12.612  0.1916  0.1396 -0.3763
 5522W        W21996   5.321  16.356  14.658 -0.3074  0.1991 -0.0767
 5523W        W21997  16.089  18.800   0.609  0.1119 -0.0855 -0.1412
 5524W        W21998  10.816  12.766   9.920  0.1138 -0.2524 -0.3486
 5525W        W21999   7.061  10.594   9.862  0.0736 -0.0224  0.0898
 5526W        W22000  16.135  18.611   5.019  0.2352  0.3257 -0.0358
 5527W        W22001  18.417  12.215   2.281 -0.1881  0.2150 -0.1165
 5528W        W22002   1.374   3.185   1.603  0.0954 -0.1014  0.0000
 5529W        W22003   2.969  14.850   0.333  0.0642  0.2040  0.0310
 5530W        W22004   8.602   7.217  10.581 -0.0617 -0.1952 -0.1385
 5531W        W22005  16.311   4.111  12.902  0.1407 -0.2722 -0.1394
 5532W        W22006  16.806  12.811  14.668 -0.0008 -0.0617 -0.1457
 5533W        W22007  11.067   1.325   2.599  0.2453 -0.0881 -0.0616
 5534W        W22008   8.468   6.515   2.051  0.1011  0.4168 -0.4829
 5535W        W22009  13.485  10.931   4.659 -0.0406 -0.1608  0.0251
 5536W        W22010  18.378   6.619   0.360 -0.1346 -0.0155  0.0970
 5537W        W22011   3.867   7.936  10.374 -0.3122  0.0183  0.2378
 5538W        W22012  10.071  13.573   0.651  0.0430 -0.0864 -0.1561
 5539W        W22013   4.602   7.553  14.491  0.1419  0.0193  0.2430
 5540W        W22014   6.838  17.230  13.811 -0.0111  0.0232 -0.2370
 5541W        W22015   0.722  18.561  13.218  0.1329  0.1484 -0.1732
 5542W        W22016  15.525  11.673   3.640  0.1496  0.3394  0.6646
 5543W        W22017  15.694   3.411   2.265 -0.1694  0.1375  0.2852
 5544W        W22018   6.866  14.161   3.025  0.1383  0.1790  0.1288
 5545W        W22019   9.655   0.175   0.043  0.0582  0.3284 -0.0782
 5546W        W22020   8.172  15.529   1.841  0.0493  0.1329 -0.0381
 5547W        W22021  19.272   9.790  13.032  0.1351 -0.6373 -0.1398
 5548W        W22022  14.401   0.251  13.709  0.0433 -0.2377  0.0677
 5549W        W22023  14.141  13.789   1.025  0.0626 -0.0254  0.0483
 5550W        W22024  17.000  14.186  12.044 -0.0442  0.3469 -0.0714
 5551W        W22025  11.959  17.189   0.649 -0.1095  0.0408  0.0457
 5552W        W22026   0.923   0.038  10.410  0.4605  0.1516 -0.1933
 5553W        W22027   0.766  18.761   3.247  0.1541  0.3641  0.2925
 5554W        W22028   1.263  12.760  14.666  0.1362  0.1736 -0.0448
 5555W        W22029   7.625   7.760   1.977  0.1060 -0.0981  0.2271
 5556W        W22030  10.115  15.218   0.018  0.2503 -0.4149  0.1130
 5557W        W22031  10.748   4.022   2.083 -0.3753  0.1659 -0.1168
 5558W        W22032   6.429   7.402  13.436 -0.0475  0.1271 -0.0326
 5559W        W22033  17.620   6.601   2.813  0.0507  0.0637 -0.0389
 5560W        W22034   0.328   9.674   0.778 -0.0029 -0.4194  0.1162
 5561W        W22035   6.528  10.369   5.597  0.0088 -0.2394 -0.1266
 5562W        W22036   4.908  10.987   1.480 -0.0623 -0.0411  0.1591
 5563W        W22037   8.121  11.022   3.189 -0.0257 -0.2637  0.1656
 5564W        W22038  13.428   8.646  12.510  0.2849 -0.0112 -0.0842
 5565W        W22039  10.209   7.189   2.846  0.2128  0.0006  0.0646
 5566W        W22040   9.350  19.073   2.606 -0.2209 -0.1120 -0.2692
 5567W        W22041  12.021  14.837   0.101  0.2261 -0.2244 -0.3478
 5568W        W22042  19.260   4.707   4.558  0.2169 -0.1270  0.1627
 5569W        W22043  17.835   0.454  10.781  0.0842  0.0557  0.0261
 5570W        W22044   4.935  11.982  11.090 -0.3059  0.2645 -0.0470
 5571W        W22045  12.763  10.436  14.512 -0.0341 -0.1051  0.0715
 5572W        W22046  19.122  15.560   0.956 -0.0405 -0.0744  0.3498
 5573W        W22047  16.586   7.020   3.729 -0.0830 -0.4474 -0.0092
 5574W        W22048  19.251  10.683  14.282 -0.1992 -0.1892  0.1219
 5575W        W22049  11.591   5.733  13.182 -0.2450  0.2465 -0.1819
 5576W        W22050   8.471   6.398   3.791  0.2917  0.0396  0.0447
 5577W        W22051   5.092   5.917   5.429  0.1881 -0.2488  0.0396
 5578W        W22052   8.594   9.005  13.582 -0.1350  0.0664  0.0886
 5579W        W22053  17.914   2.167   0.817 -0.1801  0.0536  0.0300
 5580W        W22054  10.519   5.713   1.809  0.0673 -0.0143  0.0250
 5581W        W22055  13.557  18.740  11.891 -0.0009 -0.1454 -0.4224
 5582W        W22056  17.871  11.642   4.066  0.2480 -0.1106  0.1308
 5583W        W22057   9.956   2.130   0.523  0.0007  0.0167 -0.0102
 5584W        W22058  17.094   5.055  13.638 -0.0136 -0.1927  0.0175
 5585W        W22059  11.757  11.220   1.397 -0.0763 -0.3507 -0.1541
 5586W        W22060   7.581  19.561  10.637 -0.1518  0.0626 -0.0525
 5587W        W22061   4.204  11.843  13.410  0.0611 -0.1359  0.0232
 5588W        W22062  13.237   5.473   1.328 -0.0097  0.4034  0.1962
 5589W        W22063  12.473   3.219   2.557 -0.0535 -0.5914  0.0621
 5590W        W22064   8.257   2.853  14.061  0.0398  0.3705  0.0862
 5591W        W22065  11.969  14.509   2.111  0.1367  0.4169 -0.1639
 5592W        W22066   7.291   5.484  10.032 -0.2682  0.3429  0.4490
 5593W        W22067  11.088   1.737   2.841 -0.1392 -0.5810  0.0720
 5594W        W22068   2.905  16.032   2.035  0.3301 -0.1731  0.1393
 5595W        W22069  14.044  18.048  10.911 -0.0155  0.2845  0.0570
 5596W        W22070  16.912   1.534  11.396  0.0784  0.1059  0.2493
 5597W        W22071   8.921   9.618  14.126 -0.0997 -0.4867  0.0936
 5598W        W22072   8.000  15.856  14.433  0.2603  0.2783 -0.1260
 5599W        W22073   9.551  17.599  11.118  0.1672  0.1387  0.0612
 5600W        W22074  10.782   3.359   0.426 -0.1194  0.2057 -0.0663
 5601W        W22075  19.349  12.586  13.076 -0.1329  0.0009 -0.2490
 5602W        W22076  18.267   0.380  12.318 -0.1107  0.0806  0.3727
 5603W        W22077   3.015  15.095   3.317 -0.0701 -0.1546 -0.3200
 5604W        W22078  14.093  16.332  12.121  0.2202 -0.0287  0.2242
 5605W        W22079   3.750   5.030  10.905  0.0333  0.0931 -0.0984
 5606W        W22080  15.257  10.558   4.305  0.1683 -0.5572 -0.0157
 5607W        W22081   1.289  15.133  12.652  0.1830 -0.4975  0.0024
 5608W        W22082  19.079  13.963   0.671  0.1010  0.0031  0.2972
 5609W        W22083   9.909   8.603   1.841  0.0386 -0.1786  0.3623
 5610W        W22084   4.202  16.374   2.988  0.0643  0.0202  0.1275
 5611W        W22085  12.672  12.637   0.465 -0.2946 -0.0012  0.3698
 5612W        W22086   1.765   2.113   2.248  0.2096  0.1290 -0.1285
 5613W        W22087  16.132  15.284   2.167 -0.1497 -0.2334  0.0541
 5614W        W22088  18.485   9.027   4.563 -0.0297  0.0494  0.0026
 5615W        W22089  16.156   2.601   9.910 -0.3463 -0.0969  0.1282
 5616W        W22090   6.112  18.053   9.763 -0.1711  0.0707  0.4114
 5617W        W22091   9.954   5.710   0.954 -0.1346  0.1065 -0.2079
 5618W        W22092  13.405  16.415  14.088 -0.0007 -0.0980 -0.0497
 5619W        W22093   3.148   5.852   0.425 -0.0237  0.3340 -0.0128
 5620W        W22094  18.757  15.823  12.136 -0.2627 -0.2054  0.1161
 5621W        W22095  13.568  10.136   2.009 -0.1964  0.4746  0.2788
 5622W        W22096  15.176  12.140  12.800  0.3016  0.3925 -0.0148
 5623W        W22097   5.139  12.505  13.071  0.4027  0.2057  0.0943
 5624W        W22098  15.085   1.204  13.495  0.0683 -0.3282 -0.0733
 5625W        W22099   9.266   3.183   4.339 -0.1269  0.0688  0.0292
 5626W        W22100   2.373   6.116  12.527 -0.1367 -0.0054 -0.0478
 5627W        W22101  10.645   3.133   5.296  0.0496  0.1299  0.1787
 5628W        W22102   1.375   6.347  13.519  0.5165  0.1587 -0.1491
 5629W        W22103   8.077   4.836   4.659 -0.1231 -0.2164 -0.1454
 5630W        W22104  16.351   8.404   0.035 -0.0936  0.3692  0.0938
 5631W        W22105  10.009  17.272   0.347 -0.0312  0.2012  0.1728
 5632W        W22106  18.499   5.321   4.418  0.2817 -0.0863 -0.4696
 5633W        W22107   9.549   3.198   3.094  0.0368 -0.2601  0.2687
 5634W        W22108   8.314   4.096   0.450 -0.1943 -0.1248  0.0192
 5635W        W22109  11.391  14.485  11.883 -0.3476 -0.0681  0.0050
 5636W        W22110   4.498  12.376   2.237  0.1462 -0.1826  0.1024
 5637W        W22111   0.027   5.125  14.012 -0.0585 -0.1922 -0.2973
 5638W        W22112   5.041  16.768  14.004 -0.0991  0.1165 -0.0613
 5639W        W22113  17.662   2.902   1.245  0.0424  0.1255  0.1397
 5640W        W22114   5.962  17.686   0.597  0.0136  0.4429 -0.2097
 5641W        W22115   3.579   9.353   3.273  0.0717 -0.4227  0.1720
 5642W        W22116   2.298   0.790  12.689  0.0144  0.1726 -0.1732
 5643W        W22117   9.057   6.746   0.541 -0.3070  0.0527  0.1188
 5644W        W22118  10.057  10.606   2.541  0.0713  0.3632  0.2287
 5645W        W22119   5.144  17.275  13.634  0.1735  0.2386 -0.0170
 5646W        W22120  18.597   8.842   1.479  0.1613 -0.0598  0.0603
 5647W        W22121   1.098  17.651   2.076 -0.1470 -0.0556 -0.0594
 5648W        W22122  19.049   2.618  12.688 -0.3085  0.1137 -0.1574
 5649W        W22123   7.063  19.409   3.447 -0.1607  0.1754 -0.0235
 5650W        W22124  18.948   8.583   0.222 -0.1377  0.3519  0.2302
 5651W        W22125  16.501   2.889  11.503 -0.1548 -0.1984 -0.2834
 5652W        W22126   2.747  11.706   0.682 -0.2847  0.0968 -0.0016
 5653W        W22127   2.550  12.239  14.565 -0.0639 -0.0915 -0.1363
 5654W        W22128   3.652   7.763  12.918 -0.0577 -0.1524 -0.1000
 5655W        W22129  13.397  17.779  12.200  0.1659 -0.1071 -0.2943
 5656W        W22130   2.278   4.230  13.190  0.2953 -0.2238  0.1052
 5657W        W22131   9.994  15.495   9.139 -0.2243  0.2043  0.1847
 5658W        W22132   1.551  12.419   3.947  0.0090  0.0243  0.1106
 5659W        W22133  18.753  17.124   0.223  0.1164  0.2637  0.1425
 5660W        W22134  11.151  18.418   0.034  0.2545  0.2491  0.1240
 5661W        W22135   2.712   5.016   3.871 -0.0720  0.0924  0.0672
 5662W        W22136  12.782  10.829   2.650  0.1697 -0.0352 -0.2190
 5663W        W22137   7.388   0.627  12.828 -0.3228  0.0331  0.0652
 5664W        W22138   2.006  18.575   3.326 -0.2671 -0.1400  0.3673
 5665W        W22139   8.213   2.772  14.711 -0.2959  0.2521  0.2335
 5666W        W22140   7.820   0.120   9.925 -0.2166  0.2514  0.1045
 5667W        W22141   7.440  19.548  14.708 -0.0093 -0.0462 -0.1575
 5668W        W22142  13.639   4.885   2.091  0.4904 -0.2822  0.0383
 5669W        W22143   9.876   5.635  10.820  0.2826 -0.2116  0.3103
 5670W        W22144   8.791   0.751  12.962 -0.4666  0.0184 -0.3784
 5671W        W22145  18.528  12.435   1.776 -0.2813 -0.0234 -0.1599
 5672W        W22146   3.833  16.701  10.174  0.0117 -0.0532  0.2725
 5673W        W22147   7.058   5.612  14.053 -0.0311  0.1172  0.2294
 5674W        W22148   6.830  15.907  11.421  0.2997 -0.0145  0.1246
 5675W        W22149   1.379   7.080  12.312 -0.3006  0.0066 -0.0083
 5676W        W22150  16.114  13.550   0.283 -0.1888 -0.5196 -0.0342
 5677W        W22151  14.020   5.883   2.152  0.0790  0.3040 -0.1622
 5678W        W22152   8.902  11.314   2.784  0.1338  0.2803  0.2209
 5679W        W22153   8.024  18.904  10.391  0.0416 -0.1005  0.0037
 5680W        W22154   8.316   9.842   4.941 -0.1440  0.4178 -0.0668
 5681W        W22155  10.805   7.597  12.194  0.2161 -0.1717 -0.3040
 5682W        W22156  13.210  17.183   3.992  0.0228  0.2762  0.2566
 5683W        W22157   6.421   2.500   0.224 -0.0149  0.0437  0.0463
 5684W        W22158  15.125  17.151  13.933  0.0720 -0.1985 -0.2791
 5685W        W22159   0.251   1.453  12.619 -0.0178 -0.0361  0.1726
 5686W        W22160   4.762  17.643  12.857 -0.1784  0.0966 -0.0414
 5687W        W22161  12.902   0.142  11.231  0.1832  0.1193 -0.1873
 5688W        W22162   8.402  15.262  12.356 -0.4880  0.3093 -0.4031
 5689W        W22163  14.723   7.905   2.988 -0.2377 -0.6736 -0.0638
 5690W        W22164   0.309  16.194   3.525  0.1356 -0.1984  0.0528
 5691W        W22165   8.998   0.608  14.431 -0.0774  0.0495  0.3276
 5692W        W22166   6.236  18.286  11.120  0.1521  0.4059  0.0173
 5693W        W22167  13.163   4.452   0.384 -0.0136  0.1119 -0.1367
 5694W        W22168  13.354  11.002   2.190 -0.0246 -0.1180  0.2135
 5695W        W22169   1.281  10.983   0.191 -0.1113  0.2772 -0.1922
 5696W        W22170   6.813   5.883   3.617 -0.0622  0.2558  0.5014
 5697W        W22171  10.867   7.601   2.430  0.5183 -0.4415 -0.2470
 5698W        W22172  17.492  18.446  11.322 -0.0765  0.0030  0.1863
 5699W        W22173  10.800  19.509   4.240 -0.1038  0.2170  0.1497
 5700W        W22174  14.036  10.229  13.002 -0.0417  0.1855 -0.2966
 5701W        W22175   0.217   6.473  11.909  0.0131 -0.3930 -0.1787
 5702W        W22176   7.595  18.735   3.909  0.2028 -0.4215  0.1582
 5703W        W22177   9.570  12.238   2.113  0.2699  0.3717  0.2253
 5704W        W22178  17.682  10.033  10.270 -0.0135 -0.0142  0.4965
 5705W        W22179   7.699   5.141  11.177  0.0393 -0.1171  0.0395
 5706W        W22180   9.927   6.667   4.890 -0.1045  0.1402  0.2361
 5707W        W22181  14.718  17.006   9.375  0.0723  0.0225  0.1283
 5708W        W22182   1.810  19.340  11.397  0.2430 -0.2456  0.1257
 5709W        W22183  19.192  16.775  11.620 -0.0373 -0.1026 -0.0396
 5710W        W22184   5.441  11.521   5.417  0.2301  0.1791 -0.0369
 5711W        W22185   5.565  14.789   3.211 -0.0753  0.0663  0.1128
 5712W        W22186  13.529  19.362   1.093  0.0392 -0.1701  0.2639
 5713W        W22187   1.228   5.981   5.079 -0.0698  0.2043 -0.3497
 5714W        W22188   4.392  16.595  12.015 -0.3108 -0.2414  0.2325
 5715W        W22189  12.823  10.943  12.224 -0.0360 -0.0456  0.0536
 5716W        W22190  13.823   7.513  13.231 -0.0147  0.4037  0.0891
 5717W        W22191  17.331  18.470  12.792 -0.0351 -0.2834  0.0335
 5718W        W22192   5.623  13.885   1.331  0.3179 -0.0774  0.2565
 5719W        W22193  12.339  12.739   1.691 -0.3382 -0.0328  0.0280
 5720W        W22194   4.061  11.881   1.801 -0.1797 -0.0072  0.2000
 5721W        W22195   3.476   0.886   4.339 -0.0704 -0.0956 -0.1673
 5722W        W22196  12.529  17.614   2.612  0.3292 -0.2788  0.0462
 5723W        W22197   7.971  11.456   1.157 -0.2685  0.2634  0.1110
 5724W        W22198  11.644  18.022  13.725  0.1230  0.2302  0.0424
 5725W        W22199  10.477   6.420  11.342  0.0317 -0.1766  0.0660
 5726W        W22200   4.320  11.226   0.193  0.0848  0.2490  0.2562
 5727W        W22201  11.659  17.877   2.211 -0.1783  0.3226  0.0795
 5728W        W22202   7.986  15.982   9.803 -0.3177  0.0977 -0.1719
 5729W        W22203   8.462   1.404   0.090  0.1523 -0.0319 -0.3273
 5730W        W22204  19.132   2.601   2.381  0.0753  0.0371  0.0736
 5731W        W22205   3.262   8.076   1.989  0.0047 -0.0716 -0.0871
 5732W        W22206   1.015  15.912  12.783 -0.1333  0.0644 -0.0052
 5733W        W22207  13.039  13.830  13.994  0.1089 -0.0596  0.0291
 5734W        W22208   8.947   5.478   0.964 -0.0447  0.2629  0.4528
 5735W        W22209  16.888  10.769   1.947  0.0412 -0.1050 -0.0201
 5736W        W22210   8.172  11.802   0.251  0.2236  0.0309  0.3373
 5737W        W22211   0.901  11.185   4.464  0.0259  0.0881 -0.0562
 5738W        W22212   8.802   8.484   2.553  0.2096 -0.2013 -0.1699
 5739W        W22213  12.227   0.785  11.571 -0.0237  0.1064 -0.0622
 5740W        W22214   6.682  19.405   1.599  0.0020 -0.0117 -0.1653
 5741W        W22215  11.486  13.774   3.960 -0.1860  0.2507 -0.2225
 5742W        W22216  17.982   1.670  14.253 -0.3145 -0.2806 -0.2044
 5743W        W22217  13.828   3.783   4.218  0.2813 -0.2218  0.1301
 5744W        W22218   6.625  12.650  11.936 -0.2388  0.0759 -0.0301
 5745W        W22219   4.751  11.380  13.789 -0.1524 -0.0557 -0.0790
 5746W        W22220  18.971   1.798   1.877 -0.3181 -0.0420  0.1046
 5747W        W22221   9.453   4.890  10.301  0.1295  0.2121 -0.2528
 5748W        W22222  16.425  16.554   0.469 -0.1435  0.1248  0.0509
 5749W        W22223   9.208   3.080  11.689  0.0640 -0.0720  0.0714
 5750W        W22224   6.980   4.163  10.333  0.0450  0.1473 -0.0893
 5751W        W22225   3.601  13.322   3.604  0.0771 -0.0858  0.1959
 5752W        W22226   9.874   2.018   2.713 -0.1029 -0.2301  0.3053
 5753W        W22227  15.734   0.170  13.964  0.4404 -0.1212  0.0575
 5754W        W22228  11.777   8.382  11.845 -0.0235  0.1757 -0.0976
 5755W        W22229  13.532   9.084  14.099 -0.1511 -0.2338 -0.2026
 5756W        W22230  18.676   4.412  14.620  0.1919 -0.0750 -0.0546
 5757W        W22231  14.082  13.536   2.736 -0.4822 -0.1194  0.1503
 5758W        W22232   8.064   0.700  14.491  0.2498  0.0985  0.0999
 5759W        W22233  16.572  18.682   2.872  0.2698  0.2878 -0.2719
 5760W        W22234  15.609  19.545   3.345  0.2446 -0.2723  0.0781
 5761W        W22235   1.033  13.197   4.455  0.0096 -0.0638  0.1735
 5762W        W22236  13.765   0.356  10.954  0.0682 -0.0962  0.1491
 5763W        W22237   4.016  14.370   3.807 -0.0112 -0.1925  0.0944
 5764W        W22238  17.039   7.403   3.067 -0.0474  0.2049  0.0328
 5765W        W22239   7.181   4.469   4.610 -0.1571  0.1130  0.0876
 5766W        W22240  16.192   6.073  13.588  0.0742  0.1039  0.3378
 5767W        W22241  18.456   6.534   3.437 -0.1255  0.1338 -0.0604
 5768W        W22242   6.309  10.536   1.266  0.2137 -0.0193  0.0645
 5769W        W22243   2.507  15.678   2.777 -0.0784  0.2907 -0.0311
 5770W        W22244  16.591   4.039  12.474 -0.1535  0.1032 -0.1489
 5771W        W22245   5.086  16.964  10.656 -0.1827 -0.1488 -0.1734
 5772W        W22246   7.489  16.261   4.213 -0.0135  0.0821  0.1112
 5773W        W22247  16.341   9.233   1.380 -0.0297 -0.2941  0.1135
 5774W        W22248   9.304   8.212   3.521 -0.1264  0.2339  0.0355
 5775W        W22249  10.705   3.227   4.643 -0.4836  0.0333  0.0595
 5776W        W22250  15.762   9.848  12.737 -0.0439 -0.3404 -0.0259
 5777W        W22251  15.200   8.778   1.916  0.0691  0.3333  0.2155
 5778W        W22252   5.896  18.407  12.991  0.1396  0.1123 -0.1647
 5779W        W22253  18.063   2.425  10.842 -0.0144  0.0762  0.1368
 5780W        W22254   6.846  18.787   0.017  0.0062  0.0646 -0.1747
 5781W        W22255  17.935   0.121   1.068 -0.1743 -0.0653  0.1228
 5782W        W22256   4.226  17.858   1.683 -0.0397 -0.2150 -0.0483
 5783W        W22257  10.060  14.242  13.173  0.3806  0.0787 -0.2959
 5784W        W22258  14.609  16.357   0.424  0.1231  0.1838 -0.0669
 5785W        W22259   0.764   5.202  10.453  0.0331 -0.1354  0.1688
 5786W        W22260   8.422   6.689   5.015  0.2024  0.0982 -0.2130
 5787W        W22261   7.380   8.725  14.166 -0.0668  0.3039 -0.1463
 5788W        W22262  19.414  13.428   4.809  0.0014 -0.0122 -0.1591
 5789W        W22263   0.795  12.644  11.259 -0.2308  0.0559  0.0530
 5790W        W22264   4.112  16.363  14.379  0.0313  0.0153  0.3558
 5791W        W22265  12.859  19.208  13.796  0.0446  0.0312  0.0088
 5792W        W22266  19.488  14.761  11.936  0.1532  0.0288  0.1039
 5793W        W22267   3.702   7.524   1.583  0.1865  0.0229  0.0483
 5794W        W22268  14.568  15.927   0.638 -0.1310  0.2171 -0.0475
 5795W        W22269  17.248   8.878   2.706  0.3151  0.0133 -0.4748
 5796W        W22270  12.136   8.538   3.365  0.2369 -0.0085  0.0515
 5797W        W22271   5.384  15.992   1.742  0.0909  0.0359  0.3186
 5798W        W22272   8.774   5.287   0.315 -0.0314 -0.1056  0.1455
 5799W        W22273   3.963   5.518  11.400 -0.1106 -0.1618 -0.0711
 5800W        W22274  12.714   9.059   2.159 -0.2360  0.2395 -0.1301
 5801W        W22275  16.268  12.834  12.666 -0.1033 -0.1631  0.0335
 5802W        W22276  15.944  15.351  14.590 -0.1223  0.0891  0.0902
 5803W        W22277  16.629  13.239   3.159 -0.0303 -0.1322 -0.0499
 5804W        W22278  14.846   7.620  12.945 -0.2313 -0.0764  0.1667
 5805W        W22279  15.397  13.590  11.665 -0.1083 -0.4540 -0.2301
 5806W        W22280   3.458  18.193  13.284 -0.0816  0.0153 -0.2840
 5807W        W22281   3.481   9.131   2.577 -0.0339  0.1007 -0.0571
 5808W        W22282  11.741  18.776   1.724  0.1310  0.3249 -0.1069
 5809W        W22283  10.213   1.346   0.343 -0.1020 -0.1239 -0.2768
 5810W        W22284  19.499   4.783   2.094 -0.1430  0.1338  0.2514
 5811W        W22285   2.483  11.285  10.297  0.1913 -0.1868  0.1996
 5812W        W22286   2.302  17.937   0.587 -0.1094  0.3239 -0.3470
 5813W        W22287  14.943  17.559   4.468  0.0899  0.2485  0.0502
 5814W        W22288  15.145  10.867   2.512 -0.1042 -0.1179 -0.1071
 5815W        W22289  14.138   9.548   0.196  0.1418  0.3740 -0.2352
 5816W        W22290   4.632  10.604  10.988  0.1161  0.2170  0.0281
 5817W        W22291   2.254  11.220  14.685 -0.0932 -0.0093 -0.1480
 5818W        W22292  16.530   1.006   1.104  0.4012 -0.0434 -0.0358
 5819W        W22293   2.932   0.235   4.374 -0.0247  0.1796 -0.1471
 5820W        W22294   7.736  16.276  11.119  0.2409  0.1648  0.0071
 5821W        W22295   7.438   1.917  13.798  0.1849  0.1845 -0.3415
 5822W        W22296   2.633   5.855   2.199 -0.3624  0.4409 -0.3507
 5823W        W22297  17.386  16.742  12.652 -0.2764 -0.0311  0.0607
 5824W        W22298   3.469   0.375  10.543  0.2018  0.1540 -0.0464
 5825W        W22299  13.019  11.512  12.471  0.0247 -0.0893 -0.0094
 5826W        W22300   1.976   7.846   0.571 -0.3314  0.3202 -0.3207
 5827W        W22301   8.074  10.843  10.475  0.1027 -0.1377  0.2578
 5828W        W22302  12.803   8.343   1.392  0.1763  0.0649 -0.0672
 5829W        W22303  18.407  15.563   3.903 -0.0071 -0.4995  0.3658
 5830W        W22304   4.294   1.745  10.596 -0.1854  0.0744 -0.0529
 5831W        W22305  13.413  17.241   3.452 -0.0963 -0.0776 -0.0326
 5832W        W22306   4.096  17.019   4.795 -0.0679 -0.2913 -0.1436
 5833W        W22307   5.434   4.430   0.972  0.1265 -0.0036  0.0642
 5834W        W22308  15.942   2.727   2.910 -0.0221 -0.1623 -0.0737
 5835W        W22309   2.154   6.891   1.385  0.0162  0.0793 -0.1420
 5836W        W22310   7.522  13.717   1.016 -0.0408 -0.0329  0.0732
 5837W        W22311   5.034   0.265  14.454  0.1558 -0.1384  0.1296
 5838W        W22312  15.932   9.882   3.490  0.5317 -0.1094 -0.4014
 5839W        W22313  13.730   1.604  12.588  0.2604  0.3568  0.1790
 5840W        W22314   4.880   3.268   3.590 -0.3189  0.4183  0.2200
 5841W        W22315   6.791  15.349   4.220 -0.1546 -0.0119  0.1034
 5842W        W22316  13.246   6.533   2.756  0.3499  0.0022 -0.1486
 5843W        W22317  16.021   2.408  11.854  0.2717  0.1503  0.1218
 5844W        W22318   2.099  17.939  10.628  0.2471 -0.0662  0.0321
 5845W        W22319   1.591  17.903  10.493  0.1533  0.2673  0.2443
 5846W        W22320   6.080  16.896  10.071  0.3058  0.0450  0.2895
 5847W        W22321  18.985  18.195   9.218  0.1129  0.0118 -0.0951
 5848W        W22322  18.755   3.522  12.320  0.0348  0.0884 -0.0606
 5849W        W22323   5.708   2.903   3.297 -0.1101 -0.1339 -0.2655
 5850W        W22324   9.733  10.976   5.859 -0.1976  0.1484  0.0305
 5851W        W22325  15.908  14.807   1.103  0.3819 -0.1099 -0.1254
 5852W        W22326  16.955   6.621  12.145  0.1978  0.0024 -0.2433
 5853W        W22327  13.226  10.468   5.510  0.2333 -0.4370 -0.0192
 5854W        W22328   3.412  14.513   0.937  0.1811  0.2683  0.2855
 5855W        W22329  10.778  18.696   1.171 -0.0528  0.2280 -0.3490
 5856W        W22330  16.432   9.281  10.846  0.2526  0.3021  0.0714
 5857W        W22331  11.647   3.968  11.618 -0.2897 -0.2630  0.2042
 5858W        W22332  14.655  16.826   0.230 -0.1284  0.3537  0.4796
 5859W        W22333  14.576   6.840   1.222  0.0322  0.2050 -0.1290
 5860W        W22334   1.931  18.217   2.427 -0.1480 -0.0692  0.0674
 5861W        W22335   1.765  10.903  14.129 -0.1839  0.0307  0.0913
 5862W        W22336  12.468   4.975  13.210 -0.2466  0.0425  0.0096
 5863W        W22337  14.861  12.991   2.390  0.1330  0.2682 -0.0543
 5864W        W22338  14.745  19.393  10.633 -0.0971 -0.1531  0.0883
 5865W        W22339   5.027   5.962   2.282  0.0192  0.0314 -0.4168
 5866W        W22340   4.064   4.136   3.064  0.0346  0.0794  0.0325
 5867W        W22341   9.014   2.417   4.767  0.3103  0.3808 -0.2046
 5868W        W22342  15.871  17.044  10.777  0.1552  0.0939  0.2389
 5869W        W22343  17.935  19.379   2.456  0.2572  0.0015  0.1180
 5870W        W22344   9.529   4.665   4.685  0.3180  0.0019  0.1549
 5871W        W22345   9.152   9.894  13.462  0.1902  0.3057 -0.5065
 5872W        W22346  13.436  15.950   1.953  0.0484 -0.1215  0.1798
 5873W        W22347   1.122  10.076  13.491 -0.1192  0.0804  0.1969
 5874W        W22348   2.835   8.316   0.099  0.1305 -0.2937  0.2934
 5875W        W22349   8.840   5.764  13.855  0.0262 -0.2470 -0.3048
 5876W        W22350  14.219  11.513  12.224 -0.1540  0.1362 -0.0343
 5877W        W22351  11.381  12.069  11.890  0.2920 -0.1799  0.0341
 5878W        W22352  11.004   6.797  14.198 -0.3360 -0.0816  0.2197
 5879W        W22353  18.042  12.307   4.745 -0.0846 -0.3101 -0.1180
 5880W        W22354  12.887   2.826   2.057  0.1475  0.0277 -0.3222
 5881W        W22355   9.900  15.438  14.211 -0.3592 -0.0564 -0.0382
 5882W        W22356  12.017  11.217   2.120 -0.3640  0.3505 -0.1498
 5883W        W22357   2.434   9.847   2.492 -0.4247 -0.2406  0.2112
 5884W        W22358  16.468  15.314   4.322 -0.1457 -0.2877 -0.0670
 5885W        W22359   0.681   0.002   3.157 -0.2313  0.1602  0.0670
 5886W        W22360  15.561   9.231   0.408 -0.0779  0.1304 -0.0414
 5887W        W22361   9.532  10.471  12.101 -0.0222  0.0961  0.0332
 5888W        W22362   3.002  15.433  11.310  0.0628 -0.0248 -0.1146
 5889W        W22363   6.314  16.453  12.835 -0.0642  0.0539  0.1589
 5890W        W22364   0.764  10.610   5.599  0.2750  0.0359  0.1583
 5891W        W22365   1.701   9.077   3.354  0.0641 -0.0335  0.0633
 5892W        W22366  16.203  10.949  12.803  0.2830 -0.0012  0.0095
 5893W        W22367  13.207   6.426  13.565 -0.0381  0.2977  0.3700
 5894W        W22368   8.899  10.347   3.052  0.0064 -0.2247 -0.2091
 5895W        W22369  16.034   3.680   0.086 -0.2216  0.1625  0.1969
 5896W        W22370  17.886   7.400  13.456 -0.2426 -0.0482 -0.3383
 5897W        W22371   2.534  17.761  10.502 -0.1682 -0.0333  0.0406
 5898W        W22372   2.829  10.519   2.212  0.0241 -0.3453  0.0812
 5899W        W22373  13.195  15.682   2.313  0.0688 -0.1137 -0.3133
 5900W        W22374   4.373  11.719  10.225 -0.0826 -0.1509 -0.1187
 5901W        W22375  11.039   9.295   4.730 -0.1018 -0.2430  0.2301
 5902W        W22376   9.314  14.238   9.943  0.0901  0.1249  0.0488
 5903W        W22377   3.597   8.077  13.304  0.1534 -0.0606  0.0735
 5904W        W22378   2.319  17.813   2.424  0.0800 -0.1544 -0.0815
 5905W        W22379  17.540  14.355  10.587  0.2269 -0.0526  0.2420
 5906W        W22380  15.411   6.556   1.761  0.1790  0.1267 -0.1221
 5907W        W22381   5.988   8.357   0.935 -0.2293  0.3832 -0.0509
 5908W        W22382  19.550  13.026   1.699  0.1511  0.3171 -0.1024
 5909W        W22383   6.140  13.532   0.471  0.0282 -0.5174 -0.2057
 5910W        W22384  16.088  15.599   4.491 -0.1315  0.2378  0.0925
 5911W        W22385   2.429  14.544  10.280 -0.0185 -0.0835  0.2615
 5912W        W22386   6.698  10.917   2.372 -0.3254  0.0476 -0.1713
 5913W        W22387   3.702  17.669  13.352  0.0987  0.1302 -0.0101
 5914W        W22388   8.051  17.820  13.668 -0.2544 -0.2424  0.5118
 5915W        W22389  12.202  12.612   0.248  0.1364  0.0426 -0.0582
 5916W        W22390   9.462   5.487   1.027 -0.3530 -0.1234  0.0674
 5917W        W22391  13.560   3.064  14.471 -0.0923 -0.2167 -0.0089
 5918W        W22392  16.001   9.188   4.812  0.0349 -0.4176 -0.0812
 5919W        W22393  13.814   4.302  14.337 -0.1944 -0.1209  0.0844
 5920W        W22394  16.733  10.166   3.496 -0.1340  0.0967 -0.0014
 5921W        W22395   9.110   8.974   4.271 -0.2294  0.3393 -0.0918
 5922W        W22396   1.866  12.224   3.332  0.0862  0.1169  0.1600
 5923W        W22397   3.675   8.587   3.150  0.3145 -0.0215  0.1166
 5924W        W22398   8.058   1.786   0.807 -0.0727  0.3035 -0.0744
 5925W        W22399  11.291  10.016  11.804 -0.0312 -0.0781  0.3284
 5926W        W22400  11.943  16.062  13.989 -0.2312  0.2192  0.0308
 5927W        W22401  17.583  16.504   9.957 -0.1673  0.4182 -0.0896
 5928W        W22402  18.409  10.643   0.842 -0.0382 -0.3646 -0.0673
 5929W        W22403   3.750   1.751  12.656 -0.1358 -0.1778  0.0027
 5930W        W22404   3.448   6.419  12.408  0.1822  0.1344  0.0514
 5931W        W22405   1.686   9.668   1.476 -0.1592  0.2683 -0.1899
 5932W        W22406   6.799   8.408   2.495  0.2914 -0.0866  0.1511
 5933W        W22407  18.845  19.464   3.514 -0.1830  0.0572 -0.0856
 5934W        W22408   5.167   3.422   1.301 -0.1182  0.0006  0.0899
 5935W        W22409  13.608   7.125   0.164  0.1192  0.1633  0.1148
 5936W        W22410   4.314  17.258  11.016  0.1542  0.0012  0.1123
 5937W        W22411   6.049   0.550  11.326 -0.1283 -0.1034  0.0418
 5938W        W22412  17.045   8.275  11.704  0.0784  0.0128  0.0129
 5939W        W22413   1.583  15.342  10.113  0.2252 -0.0155 -0.2053
 5940W        W22414   7.228   9.395   0.034 -0.1416  0.1773 -0.0252
 5941W        W22415   8.375   5.080  14.220 -0.1245 -0.5221  0.0462
 5942W        W22416  16.752  14.423   3.768 -0.2840 -0.0848  0.0912
 5943W        W22417   8.921   6.024  12.538  0.0277  0.1292  0.1998
 5944W        W22418  18.815   5.161  13.972 -0.1889  0.5794  0.2178
 5945W        W22419  10.266   9.065  12.167  0.2011 -0.0569 -0.3114
 5946W        W22420   8.132  11.378  13.861  0.0672 -0.3083  0.1340
 5947W        W22421  13.993   9.087  13.852 -0.3232  0.2321 -0.0340
 5948W        W22422  17.570   5.695   1.509  0.1438  0.1313  0.0061
 5949W        W22423   1.843   9.551   3.178  0.4153  0.2114 -0.1090
 5950W        W22424  15.199  14.056  13.817  0.0076 -0.4099 -0.2274
 5951W        W22425  12.700   1.963  10.360 -0.3165 -0.1139 -0.1191
 5952W        W22426  17.753  11.946  12.001  0.1103  0.3914 -0.0460
 5953W        W22427   9.027   3.288  11.273  0.1616 -0.2627 -0.0611
 5954W        W22428  18.586  12.555   2.707 -0.0198  0.1736 -0.0554
 5955W        W22429  14.993   1.666  12.882 -0.2832  0.0927 -0.1502
 5956W        W22430  17.281  12.597   2.639  0.0370 -0.0403 -0.0782
 5957W        W22431  13.889  12.487   2.495 -0.0354  0.2195  0.0608
 5958W        W22432   3.383   8.394  13.648 -0.0849 -0.3789 -0.0142
 5959W        W22433   3.668  10.377   3.160  0.1695 -0.1040 -0.0444
 5960W        W22434   1.794   9.170  12.773 -0.0605 -0.0082  0.0547
 5961W        W22435   0.699  18.212   1.142  0.1327  0.2159  0.1724
 5962W        W22436   5.436   6.238  10.379 -0.3373  0.3451  0.0676
 5963W        W22437  14.926   4.227  13.383 -0.0976  0.1219  0.1171
 5964W        W22438   0.161   5.528   4.352  0.0088 -0.3621  0.0421
 5965W        W22439   9.422  14.705  13.219 -0.1966 -0.0411 -0.0770
 5966W        W22440  18.606  10.250   3.254  0.3999  0.0894 -0.2741
 5967W        W22441   6.375  14.638   2.005 -0.1520  0.3741 -0.1816
 5968W        W22442  11.903  16.551  12.042 -0.1309 -0.1838 -0.0222
 5969W        W22443  19.119  14.583   3.729  0.1358  0.1604 -0.0387
 5970W        W22444  16.237   4.097   1.159  0.1437  0.0626 -0.1048
 5971W        W22445   9.302  19.164  14.717  0.0677  0.0119  0.2755
 5972W        W22446   7.065   0.577  10.408 -0.2174  0.3842  0.2084
 5973W        W22447   3.327  11.172  11.131 -0.0538  0.1028  0.1784
 5974W        W22448   3.780   0.459  14.411 -0.0656 -0.1297 -0.1925
 5975W        W22449   6.310   9.428   3.047  0.1627  0.0003 -0.1644
 5976W        W22450   3.013   2.017   0.049  0.4105  0.0167  0.3548
 5977W        W22451   7.491   7.075   1.104 -0.2360  0.0516 -0.1600
 5978W        W22452  14.345   0.903  14.389  0.1925  0.1542 -0.1213
 5979W        W22453  14.445   4.593  14.149 -0.0369 -0.1193 -0.0752
 5980W        W22454   8.980   7.313  11.963 -0.0213  0.3098 -0.0743
 5981W        W22455   0.087   4.881   1.621  0.0012 -0.0531  0.5278
 5982W        W22456  16.887  18.655   2.121  0.4667  0.0694 -0.0150
 5983W        W22457   0.913  14.062  11.267 -0.0694  0.0684 -0.2244
 5984W        W22458  18.157  18.932   2.516 -0.3358 -0.2621  0.0033
 5985W        W22459  18.917   4.334  13.083 -0.5682 -0.0380 -0.0884
 5986W        W22460  17.415  10.926   4.798 -0.6292  0.1754  0.1861
 5987W        W22461   5.884   1.279  10.799  0.0876  0.1071  0.1881
 5988W        W22462   2.475  18.562   0.297  0.1273 -0.0257 -0.2268
 5989W        W22463   1.597   8.598   1.146 -0.0864  0.1114 -0.1255
 5990W        W22464  13.473  10.400   1.420 -0.0469  0.0352  0.2228
 5991W        W22465   8.149  11.844   0.952 -0.1862 -0.0855  0.5181
 5992W        W22466  19.154   6.296   2.531 -0.1783  0.0476 -0.2379
 5993W        W22467  16.310  15.638   1.189  0.0636 -0.2181 -0.1920
 5994W        W22468  15.626  14.015  11.536  0.0574 -0.1623  0.2304
 5995W        W22469   1.150   5.731   4.644  0.1182 -0.1236  0.1623
 5996W        W22470  16.156  13.333   2.176 -0.0527  0.2329 -0.0547
 5997W        W22471  14.951   7.994   1.918 -0.2230 -0.4340  0.1079
 5998W        W22472  15.911   9.573  10.378 -0.0085  0.0752  0.0741
 5999W        W22473   7.917   3.356   3.029 -0.0263 -0.0767  0.0427
 6000W        W22474  11.936   4.866   2.105  0.1139  0.0936  0.1485
 6001W        W22475  18.398  11.629  10.822 -0.1285  0.0748  0.0408
 6002W        W22476  17.827  18.325  11.728 -0.3703 -0.1780 -0.0921
 6003W        W22477  15.086   2.274  11.418  0.0306 -0.0776  0.0704
 6004W        W22478   5.933   1.584   3.577  0.1708  0.1884 -0.3604
 6005W        W22479   2.528   3.256  12.679 -0.1175  0.1337 -0.1157
 6006W        W22480  18.263   7.168  13.201 -0.1912 -0.0791 -0.0408
 6007W        W22481  15.325  13.905   4.804  0.1661 -0.1416 -0.1004
 6008W        W22482  14.699  12.380   3.005  0.2560 -0.1778 -0.2273
 6009W        W22483   8.574   9.483   1.490 -0.0875  0.1446 -0.0874
 6010W        W22484   8.231  17.295  14.589  0.6104 -0.0109  0.2599
 6011W        W22485   3.619   6.445  11.289  0.1274 -0.1581  0.1564
 6012W        W22486  15.502   4.292   4.585 -0.0112  0.0760 -0.0356
 6013W        W22487  18.840  19.451  11.680  0.3265 -0.1001  0.2333
 6014W        W22488  12.786   4.135   0.631  0.1821 -0.2146 -0.4463
 6015W        W22489   3.557   2.783   1.711 -0.1938  0.3684  0.0611
 6016W        W22490  14.923  14.881   2.110 -0.0096 -0.0889  0.0601
 6017W        W22491  15.370  15.200   3.388 -0.1189  0.1053 -0.2225
 6018W        W22492   6.524   3.726   0.459 -0.3430  0.0837 -0.2474
 6019W        W22493  12.587   5.881  13.572 -0.0712  0.1064 -0.0067
 6020W        W22494   7.081   9.780   5.949 -0.0863 -0.2725 -0.2521
 6021W        W22495   5.166  14.639  11.330  0.4309 -0.1242 -0.2325
 6022W        W22496   0.953   6.934  11.547  0.7100  0.2241 -0.3865
 6023W        W22497  12.642  17.893  11.446  0.1909 -0.2446  0.0824
 6024W        W22498  14.454   6.657  12.498  0.0227  0.0994  0.0658
 6025W        W22499   2.476   4.822  14.466  0.1357  0.2620 -0.3202
 6026W        W22500  10.194   2.596   4.431 -0.2534 -0.3496  0.0774
 6027W        W22501  13.132  14.291   3.533 -0.0929 -0.1031  0.6461
 6028W        W22502   4.154   5.717   1.578 -0.1125  0.0878  0.6136
 6029W        W22503   8.807  11.053  11.666 -0.0233 -0.2604 -0.0873
 6030W        W22504  15.493   4.001  12.280  0.2969 -0.1055  0.1226
 6031W        W22505   3.322  14.477  10.339  0.1943  0.1351 -0.1966
 6032W        W22506  13.453  14.141   0.670 -0.0036  0.0090  0.0182
 6033W        W22507   4.058   2.527   4.424  0.0824  0.0985  0.1218
 6034W        W22508  17.638   7.331  10.797  0.2098  0.0415  0.1306
 6035W        W22509  18.978  18.547  12.574 -0.1046 -0.3607  0.0989
 6036W        W22510   8.472   8.501   1.667  0.4241  0.0937  0.1436
 6037W        W22511   7.067  17.974   4.104 -0.0026  0.2594  0.0076
 6038W        W22512   9.170   5.054   4.283  0.3258  0.0981 -0.0181
 6039W        W22513  10.352   2.656   3.005 -0.1788 -0.2678  0.0738
 6040W        W22514  16.903   5.160  10.007  0.1195 -0.3387 -0.0637
 6041W        W22515   2.764   7.031  12.828  0.1179  0.1483  0.3582
 6042W        W22516  16.715  12.764   0.424 -0.1505  0.2556 -0.2456
 6043W        W22517  15.319  18.726   0.227 -0.0265 -0.1605  0.0597
 6044W        W22518   1.834   8.146   1.264 -0.2013  0.1953 -0.2097
 6045W        W22519  11.638  15.524   5.179 -0.0384 -0.0537  0.3327
 6046W        W22520  12.735  18.954   0.499  0.0362  0.1355 -0.0627
 6047W        W22521   5.085   2.756  10.616 -0.0246  0.0945  0.0073
 6048W        W22522  10.319   0.311   0.036  0.2400  0.0575 -0.0974
 6049W        W22523  11.195   4.794   2.112 -0.3359  0.2994 -0.0172
 6050W        W22524  11.115  18.702  10.421 -0.0906 -0.2819  0.0318
 6051W        W22525  11.929  18.431   9.943 -0.0828  0.0357 -0.2965
 6052W        W22526   5.804   0.764   2.396  0.0090  0.1388 -0.0743
 6053W        W22527  13.218  11.852  12.867 -0.1352 -0.1308 -0.0023
 6054W        W22528  10.056   9.390   2.366 -0.4830 -0.1200 -0.0796
 6055W        W22529  17.384   9.605   1.505  0.0334 -0.1100  0.1073
 6056W        W22530  14.545   8.007   5.483  0.0243  0.1225  0.0065
 6057W        W22531  14.134   3.162  10.315 -0.2620 -0.4800  0.3195
 6058W        W22532  12.602   1.714   3.865  0.0440  0.2071 -0.1070
 6059W        W22533  18.123  15.378   0.937 -0.1909  0.0059  0.0748
 6060W        W22534   2.321   3.765   2.553  0.3520  0.0907  0.0075
 6061W        W22535  17.199   8.070   1.509 -0.1054 -0.0237  0.1338
 6062W        W22536  10.034   8.372   5.694  0.0344  0.1374  0.0034
 6063W        W22537  16.001   1.807   3.266 -0.0238  0.2556 -0.3962
 6064W        W22538   4.809  12.031  13.239 -0.1727 -0.1900  0.2534
 6065W        W22539   2.340  12.180   4.256 -0.0833  0.1930  0.0804
 6066W        W22540   2.918   5.953  11.795  0.2423 -0.1239 -0.3087
 6067W        W22541  13.407  15.807   4.444 -0.0902  0.1236 -0.2391
 6068W        W22542   5.000   2.451  10.204 -0.0824  0.1583 -0.0350
 6069W        W22543  17.595  12.414  11.359 -0.0659  0.0788 -0.1675
 6070W        W22544   8.558   5.210   4.894  0.2596 -0.1751  0.2149
 6071W        W22545   6.960  17.794  13.392 -0.1385  0.2878 -0.1590
 6072W        W22546   9.563   6.955  12.447  0.0489  0.0850 -0.3341
 6073W        W22547   5.604   0.229   2.097 -0.1656 -0.0126  0.2842
 6074W        W22548  15.888   8.869   3.940  0.0913  0.0725 -0.2064
 6075W        W22549  11.417   2.388   0.521  0.2904 -0.2599 -0.0173
 6076W        W22550  18.198   4.584  11.699  0.2354 -0.2183 -0.1463
 6077W        W22551   6.572   9.065   3.364  0.3062  0.0477 -0.1225
 6078W        W22552   9.231   1.713  11.455  0.2588 -0.1086  0.0495
 6079W        W22553   3.023  16.644  10.681 -0.2434 -0.0657 -0.2331
 6080W        W22554   3.696   5.692  14.464  0.0372 -0.2206 -0.2470
 6081W        W22555   2.073   8.886  10.774  0.1692 -0.2197  0.1697
 6082W        W22556  12.702   6.099  12.204 -0.0146 -0.1404 -0.1489
 6083W        W22557   8.989  14.474   2.437  0.0062 -0.3258  0.1155
 6084W        W22558  15.258   9.186   1.029 -0.2478  0.1932 -0.2531
 6085W        W22559   3.171  17.636  11.654 -0.2671 -0.0530  0.0601
 6086W        W22560  10.484   7.135  12.793  0.2328  0.0091 -0.0459
 6087W        W22561  12.026   9.754  13.472 -0.3953 -0.0608  0.2105
 6088W        W22562   7.811  15.580  13.784 -0.0810  0.0234  0.1274
 6089W        W22563   6.161   5.743  11.229 -0.0056 -0.1902 -0.0583
 6090W        W22564   8.434  12.758   2.466  0.0871 -0.1099  0.0736
 6091W        W22565  12.847   8.024   0.912 -0.4256 -0.0469 -0.1595
 6092W        W22566   6.728  19.572   3.815 -0.0372 -0.2167  0.0839
 6093W        W22567  19.285  17.537  13.294  0.3559  0.2987  0.1456
 6094W        W22568   7.383   5.491  10.505 -0.1333 -0.1554 -0.0704
 6095W        W22569   6.173   5.874  11.945  0.3388  0.0210  0.2135
 6096W        W22570  10.290  12.181   0.167 -0.1153  0.3055  0.1097
 6097W        W22571  10.524  17.298   0.215  0.4867 -0.2515  0.2617
 6098W        W22572  12.544   5.300  10.777  0.1653 -0.0636 -0.2042
 6099W        W22573   2.394  17.100  12.733  0.1836 -0.0279 -0.1465
 6100W        W22574   2.726   7.321   4.654 -0.0532 -0.1275 -0.1879
 6101W        W22575  10.024   8.067   2.088  0.1699  0.1925 -0.0339
 6102W        W22576  17.218  16.358  10.673 -0.1195 -0.1690 -0.1148
 6103W        W22577  15.340  14.280  12.314 -0.0620 -0.0494 -0.2636
 6104W        W22578   9.685   4.355   3.107 -0.4354  0.1575  0.0126
 6105W        W22579   5.256   4.513  14.529  0.1287  0.0766  0.3749
 6106W        W22580  16.139   0.076  11.156 -0.2370  0.0113  0.0368
 6107W        W22581  15.486  14.836   0.881 -0.2747 -0.2093  0.0920
 6108W        W22582   8.532  11.581  13.582  0.1618 -0.1843  0.0014
 6109W        W22583  12.249   6.214   4.399  0.3806 -0.0145 -0.1759
 6110W        W22584  19.484   3.662  14.293 -0.1273 -0.0124  0.3200
 6111W        W22585   7.446  17.980   4.384 -0.2183 -0.2942 -0.0772
 6112W        W22586  13.856   6.973   0.615 -0.1468 -0.0709  0.0656
 6113W        W22587   9.155  18.474   1.143 -0.2255  0.3182 -0.0654
 6114W        W22588   3.051   6.820   4.317 -0.2598  0.2892  0.0357
 6115W        W22589   9.099   2.534  12.066 -0.0183  0.0882  0.3256
 6116W        W22590   3.682   7.236   2.057 -0.0434  0.1597 -0.0458
 6117W        W22591  13.721   3.337  13.286  0.0418  0.0788 -0.1497
 6118W        W22592   6.620  14.187   3.458  0.1342 -0.0570 -0.3284
 6119W        W22593  18.230   4.482   4.478  0.1551 -0.0559  0.2068
 6120W        W22594   2.829   7.119  13.406  0.1794  0.0832  0.2731
 6121W        W22595   9.889   2.667  13.103  0.1344  0.2383  0.3173
 6122W        W22596   3.540   0.987   0.635 -0.2986 -0.2047 -0.0797
 6123W        W22597  18.633  17.525   4.890 -0.2515  0.1396 -0.1960
 6124W        W22598  18.840   6.051   2.823  0.1715 -0.0809  0.1752
 6125W        W22599   6.446   7.181   2.192 -0.4386 -0.2343  0.0740
 6126W        W22600   4.012  13.732  14.525  0.2808  0.1702  0.0234
 6127W        W22601   4.686  12.973   0.284  0.0117  0.1024 -0.1871
 6128W        W22602  11.787  10.609  14.378 -0.0918 -0.0318 -0.1046
 6129W        W22603  17.018  12.957   0.848  0.1434 -0.0145  0.1197
 6130W        W22604   8.584   2.035   2.198 -0.2332  0.0799 -0.1366
 6131W        W22605   8.062   6.467   5.261  0.2050  0.1938  0.0734
 6132W        W22606   4.085  14.483  10.705  0.0918  0.1729 -0.1268
 6133W        W22607  19.010   1.663   1.334 -0.0514  0.2700 -0.2877
 6134W        W22608   4.364  17.687  13.192 -0.1603 -0.0860  0.2308
 6135W        W22609   5.997   2.688  13.305 -0.4153  0.1425 -0.1004
 6136W        W22610   5.346   4.071  13.973  0.0143 -0.1439 -0.0259
 6137W        W22611  12.123   8.958   2.521  0.1987 -0.2111  0.2487
 6138W        W22612   5.086  14.050   9.448 -0.2148  0.0127  0.0816
 6139W        W22613   2.755   0.761  13.882 -0.1599 -0.1246 -0.4214
 6140W        W22614   1.639   1.128   2.374 -0.0997 -0.0983 -0.1065
 6141W        W22615  11.097   4.474  12.705  0.3075  0.0800  0.1181
 6142W        W22616   7.274  13.006   2.344 -0.1037  0.1459 -0.2922
 6143W        W22617   9.924  11.923   1.885 -0.0381  0.0195  0.0360
 6144W        W22618   5.201  18.200   2.484 -0.0636  0.0637 -0.0807
 6145W        W22619   7.505  11.188   2.794 -0.0048 -0.2196 -0.2107
 6146W        W22620   9.812   8.808   0.871 -0.0314  0.2527  0.1533
 6147W        W22621   6.830   9.906   3.897 -0.1241 -0.1725  0.0226
 6148W        W22622   9.866   9.186  13.747 -0.2389  0.1069  0.0474
 6149W        W22623  15.708  11.326  11.825 -0.0859  0.1391 -0.1969
 6150W        W22624  12.252  17.100  12.602 -0.2757  0.1429  0.1866
 6151W        W22625  11.352   7.363   5.550  0.1452  0.0102 -0.1644
 6152W        W22626   5.965   3.617   3.710 -0.0000 -0.1241 -0.1874
 6153W        W22627   5.555   7.699   2.868  0.0258  0.0542  0.2163
 6154W        W22628  19.211  11.611  13.331 -0.1548  0.0630 -0.1530
 6155W        W22629  13.087   6.565   0.407 -0.0383 -0.0361 -0.0269
 6156W        W22630   7.566   4.885   1.358 -0.0451  0.1067  0.3620
 6157W        W22631  16.078   3.078   3.257  0.3253  0.1544 -0.0866
 6158W        W22632   6.415  15.935  13.054 -0.2574  0.3789 -0.0121
 6159W        W22633   7.859  18.006   3.576 -0.1057  0.1357  0.0182
 6160W        W22634  17.459  18.426  10.021  0.0820 -0.1673 -0.0889
 6161W        W22635  13.303  19.003   4.835  0.1435  0.0828  0.3362
 6162W        W22636   8.831  19.303  14.662  0.1041 -0.0450  0.1426
 6163W        W22637  13.148   2.897  10.174 -0.1080 -0.1161 -0.0266
 6164W        W22638   2.467  10.833  14.424 -0.3748  0.4343 -0.1514
 6165W        W22639   8.312   1.425   4.012  0.2662  0.0085  0.1195
 6166W        W22640  12.757  13.332   3.587 -0.2329  0.2461 -0.1356
 6167W        W22641   0.716   9.944  12.128 -0.0607  0.2484  0.0128
 6168W        W22642  19.127  15.386  10.245 -0.0805 -0.3709  0.0712
 6169W        W22643   6.158  16.139  14.686  0.2419 -0.0643 -0.0413
 6170W        W22644   7.552  11.828  14.078  0.0851 -0.0141 -0.0904
 6171W        W22645   6.792   1.010  11.173 -0.2118 -0.2016 -0.3673
 6172W        W22646  16.525  14.360   2.180 -0.0807  0.1120 -0.2888
 6173W        W22647  15.772  16.537   1.398  0.3951 -0.0894  0.0161
 6174W        W22648   7.833   3.482   3.553  0.0703  0.1282  0.1717
 6175W        W22649   1.175   2.680   4.232  0.0272 -0.0037 -0.1048
 6176W        W22650  12.019   5.130  12.464  0.0480 -0.1683 -0.2067
 6177W        W22651  11.210   6.706   1.857  0.0115 -0.1020  0.1110
 6178W        W22652  18.208  16.362   1.367  0.0546 -0.2153  0.2712
 6179W        W22653   3.223   3.317   0.020 -0.4174  0.0295 -0.2222
 6180W        W22654   7.649   5.780  11.850  0.0900  0.2672  0.3513
 6181W        W22655  12.616  13.844  12.200  0.0916  0.2225  0.1561
 6182W        W22656   0.461  10.375  12.213  0.0659 -0.0098  0.0061
 6183W        W22657   6.320   5.016   4.590 -0.2235 -0.0083  0.0333
 6184W        W22658   5.728  17.743  10.610  0.0262  0.0500 -0.3295
 6185W        W22659   0.907  11.156  13.937 -0.2131  0.0377 -0.2466
 6186W        W22660   6.541   6.520   1.153 -0.1823  0.3098 -0.1794
 6187W        W22661  12.839   0.174   0.602 -0.1181 -0.1007  0.3030
 6188W        W22662  17.287   4.376  11.631 -0.1240 -0.2070  0.1640
 6189W        W22663  19.579   2.145   9.166 -0.2653  0.1466 -0.0962
 6190W        W22664  11.877  17.712   9.134  0.1459  0.0910  0.2302
 6191W        W22665   7.119   1.313   4.756  0.1616  0.2967  0.0523
 6192W        W22666  10.662  15.502   4.156 -0.0995  0.0568  0.1568
 6193W        W22667  13.302   4.186  13.198 -0.3532  0.0586  0.2788
 6194W        W22668   3.412  12.993  14.134  0.0264 -0.0407  0.2277
 6195W        W22669  10.207   9.532  11.983 -0.4410 -0.1020 -0.0836
 6196W        W22670   3.331   1.844   9.274  0.1349  0.0218 -0.0795
 6197W        W22671   2.022  15.785   2.010  0.0554 -0.1848 -0.1440
 6198W        W22672  13.166  10.535   0.166 -0.2616 -0.1028  0.0720
 6199W        W22673   6.446   7.597  12.656 -0.3287  0.1468 -0.1255
 6200W        W22674   3.179  19.444  13.081 -0.0737 -0.0432 -0.1929
 6201W        W22675   6.545   9.057  11.569  0.1505 -0.3252 -0.1930
 6202W        W22676   0.318  14.305  14.118 -0.2787 -0.0068 -0.0945
 6203W        W22677   0.682  14.640  12.290  0.2040  0.1527  0.2742
 6204W        W22678  11.379   7.683   2.682  0.0188 -0.5887  0.0253
 6205W        W22679   4.275   8.863   3.672  0.1678 -0.1343  0.3413
 6206W        W22680   0.226  17.352  10.441  0.3021  0.0090  0.0595
 6207W        W22681   1.091   7.238  11.936  0.1652  0.2219 -0.1410
 6208W        W22682  17.556   4.412  12.609  0.1795  0.0758 -0.1135
 6209W        W22683  15.260  16.569   1.219  0.0169  0.1407  0.1887
 6210W        W22684   9.484   6.642  11.845  0.2876 -0.1845 -0.1087
 6211W        W22685  16.218   2.719   3.594 -0.2992 -0.0486 -0.0713
 6212W        W22686   8.908   1.303   3.010  0.0677 -0.0268  0.0621
 6213W        W22687   3.151   1.244  11.910 -0.1535 -0.2148  0.0292
 6214W        W22688   7.208   6.831  13.710  0.2333 -0.2404  0.0810
 6215W        W22689  12.350   1.025   0.900 -0.1175  0.1294 -0.1648
 6216W        W22690   5.204   8.489   2.472  0.1217  0.0563  0.4378
 6217W        W22691  19.099  17.261   3.045  0.1392 -0.0463  0.3408
 6218W        W22692   7.094  14.650  14.684 -0.0629 -0.0478 -0.0704
 6219W        W22693  10.483  11.133   5.804  0.3274 -0.0151  0.0599
 6220W        W22694  13.477  18.706  12.402 -0.3198 -0.3495 -0.0090
 6221W        W22695   9.518  11.983   5.366 -0.3977  0.1452 -0.1556
 6222W        W22696  18.574  16.930   9.819  0.0378  0.0015  0.1849
 6223W        W22697   5.940   4.017  14.703  0.2234  0.0935 -0.3245
 6224W        W22698   8.041   5.726   3.577 -0.3020 -0.0291  0.0862
 6225W        W22699   4.817  14.133   0.889 -0.2157  0.5347 -0.0575
 6226W        W22700  10.781  15.912  10.865  0.4170 -0.2999  0.2211
 6227W        W22701   6.599  11.297  14.640 -0.0882 -0.0235 -0.1497
 6228W        W22702  15.847   7.437   5.020  0.0564 -0.0453 -0.1405
 6229W        W22703   0.381  17.521   0.140  0.1247  0.1329  0.2362
 6230W        W22704  15.845   4.785   0.701  0.2268  0.2201  0.0680
 6231W        W22705  14.057   3.131  14.263  0.3743 -0.0646  0.4087
 6232W        W22706   9.903  17.124  11.020  0.1839  0.0537  0.0153
 6233W        W22707   9.239   4.694   2.388  0.1749 -0.0375  0.0221
 6234W        W22708  11.679   2.411  14.712 -0.0642 -0.0991 -0.0766
 6235W        W22709  16.945   2.062   1.837  0.3701  0.1591 -0.1575
 6236W        W22710  15.572  13.444  14.602  0.3179 -0.1822  0.0841
 6237W        W22711   4.289  18.380   4.078  0.1733  0.2339  0.2380
 6238W        W22712   6.038  16.179   1.230  0.1420 -0.0334  0.0912
 6239W        W22713   3.375  15.046   2.003  0.3011 -0.2660  0.1179
 6240W        W22714   0.763  16.032   1.700 -0.1173  0.3014  0.0065
 6241W        W22715   9.087  14.958   4.921  0.1465 -0.3206  0.1532
 6242W        W22716   1.192   4.157   4.760 -0.2058  0.1312 -0.1396
 6243W        W22717  15.100   3.223  13.331  0.0066 -0.1371  0.2568
 6244W        W22718  13.050  10.613   1.479  0.0371 -0.4051 -0.1437
 6245W        W22719  15.726   5.887   3.388 -0.2582 -0.1090  0.1708
 6246W        W22720   3.961  13.431  13.627 -0.1036 -0.0944 -0.1774
 6247W        W22721   6.796   7.336   1.775  0.0719 -0.1947 -0.0770
 6248W        W22722   7.134  11.132   3.371  0.0790  0.1371  0.0888
 6249W        W22723   6.181  12.262   2.346 -0.1375 -0.1858  0.0518
 6250W        W22724   3.990  18.358   0.344 -0.4205  0.2456  0.0928
 6251W        W22725  17.141  11.179  11.834  0.2669  0.0341  0.2479
 6252W        W22726  18.081   5.231  13.478 -0.1223 -0.1974  0.2038
 6253W        W22727  14.493   3.077  12.025 -0.2874  0.2829  0.2390
 6254W        W22728   4.963  10.290  14.485 -0.0563  0.2893 -0.0623
 6255W        W22729   2.052   8.292   3.333 -0.0516  0.0038 -0.0255
 6256W        W22730   8.179   5.797   1.590 -0.0016  0.0296  0.1628
 6257W        W22731  10.119  19.262  11.261  0.0292 -0.2355  0.0080
 6258W        W22732  14.450  10.620   1.658 -0.3690  0.2034  0.2009
 6259W        W22733   9.599   2.418  10.351  0.1959 -0.2181 -0.0780
 6260W        W22734   2.445  13.290   2.357 -0.0850 -0.1263 -0.0294
 6261W        W22735   0.178  18.005   3.570  0.1321  0.0016 -0.1368
 6262W        W22736   5.264  10.572   1.651  0.0113 -0.2069 -0.1370
 6263W        W22737  17.945   4.763  13.416  0.2890  0.1405  0.1835
 6264W        W22738  11.940  15.070   0.985  0.0287  0.0993 -0.1179
 6265W        W22739   6.483   0.119  11.437 -0.1080 -0.1071 -0.1236
 6266W        W22740  16.744  17.002  13.433  0.0603 -0.0906 -0.5042
 6267W        W22741  17.979  13.418   4.074  0.0910  0.0191 -0.2774
 6268W        W22742   7.446  15.438   2.416  0.4359  0.2118  0.0995
 6269W        W22743   9.749  11.072  12.279 -0.1216 -0.0118  0.2661
 6270W        W22744   0.456   6.290  13.256  0.2895 -0.1028  0.3491
 6271W        W22745  12.138  16.266   0.222 -0.0192 -0.0900  0.2387
 6272W        W22746  15.808  10.779  14.420  0.0758 -0.4078 -0.0214
 6273W        W22747   8.024  14.462  10.561 -0.1163  0.2018 -0.0594
 6274W        W22748  11.109   0.179   9.797  0.2986  0.1137  0.1881
 6275W        W22749  12.048   8.239   2.068  0.4208  0.1312  0.2668
 6276W        W22750   8.387  18.398   2.148 -0.2946 -0.0374  0.2700
 6277W        W22751   5.119   8.725  14.524  0.1156  0.0963  0.1102
 6278W        W22752  10.742   3.100   4.113 -0.0649 -0.2493  0.1103
 6279W        W22753  14.298   4.754  13.663  0.1171  0.4125  0.5889
 6280W        W22754  15.188   1.131  12.896  0.4169  0.5415 -0.1346
 6281W        W22755   2.030   5.894  13.783  0.0771  0.0972 -0.1041
 6282W        W22756  10.433  11.043   1.766  0.3154 -0.2841 -0.0878
 6283W        W22757   9.468  14.523  10.391 -0.0778 -0.1017 -0.2717
 6284W        W22758   1.639   8.637   4.540  0.1218  0.1498 -0.1824
 6285W        W22759   8.257  10.874   4.920  0.0119  0.0081  0.2643
 6286W        W22760  11.948   0.579  10.175 -0.0165 -0.1230 -0.1028
 6287W        W22761  10.084   7.185   0.310 -0.2158  0.2601  0.0870
 6288W        W22762  10.651   3.814   1.296  0.1341  0.3531  0.1801
 6289W        W22763  18.133   3.861   1.481  0.0314  0.0326 -0.2018
 6290W        W22764  18.881  13.472   4.813  0.0623 -0.1632  0.1090
 6291W        W22765   1.101  13.064   0.401  0.4890 -0.3211  0.0296
 6292W        W22766  10.078   3.664   3.584 -0.2952 -0.2483 -0.3895
 6293W        W22767   7.089   1.865  13.411 -0.1802  0.0607  0.4227
 6294W        W22768  19.507  19.503  13.437 -0.0842  0.2091  0.3551
 6295W        W22769   8.387  16.652  11.379 -0.2663 -0.1108  0.0456
 6296W        W22770   3.871  11.470  13.385 -0.1452 -0.0076  0.0371
 6297W        W22771   2.903   2.582   3.674  0.0715  0.1910 -0.4590
 6298W        W22772   6.907  17.893   1.749 -0.2173  0.2247  0.3261
 6299W        W22773  11.716   3.615  10.640 -0.1868  0.3250 -0.0892
 6300W        W22774   4.151   7.897  11.729  0.0225 -0.2293 -0.0457
 6301W        W22775   2.410   8.056   9.809 -0.0782 -0.0747  0.2056
 6302W        W22776   6.706   3.031   9.390 -0.0240 -0.0016 -0.4117
 6303W        W22777  14.761  11.204   3.160 -0.0309 -0.0357 -0.1697
 6304W        W22778  13.513  17.010  12.661  0.1212  0.0233 -0.1717
 6305W        W22779   5.705   4.932  14.280 -0.2497  0.2043  0.0271
 6306W        W22780  16.425   5.280  11.966  0.1471  0.3999  0.0377
 6307W        W22781   0.271   0.415   3.692  0.1147  0.2931  0.3694
 6308W        W22782  16.139  17.204  11.124 -0.0812  0.0830  0.1097
 6309W        W22783   1.551  14.528  13.138  0.2723 -0.0105 -0.1237
 6310W        W22784  13.204  10.249  12.834 -0.0807  0.1811  0.3071
 6311W        W22785   0.900  11.801  11.684 -0.5765  0.0497 -0.2313
 6312W        W22786  19.071   2.568  13.442 -0.2329  0.2099 -0.0020
 6313W        W22787  18.341   5.759   0.716 -0.0699 -0.3109 -0.0006
 6314W        W22788  18.353   4.595   1.318  0.0691 -0.0825  0.0468
 6315W        W22789  14.519  16.670   3.241 -0.3877 -0.1521 -0.1331
 6316W        W22790  18.511  11.318  12.772  0.3207  0.0555 -0.2301
 6317W        W22791  12.151  12.870  14.108 -0.1733 -0.1472 -0.0825
 6318W        W22792   1.881  19.461   0.554 -0.1060  0.1648  0.0167
 6319W        W22793  19.468   2.402   3.700  0.0947 -0.1262  0.1465
 6320W        W22794   6.553   1.704   1.049 -0.3175 -0.1513 -0.0860
 6321W        W22795  17.298  16.283   4.942  0.1687 -0.1306  0.0676
 6322W        W22796   4.112   9.346  12.839 -0.0150 -0.2246  0.0610
 6323W        W22797  16.537  10.971   1.571 -0.0465  0.0573  0.3273
 6324W        W22798  10.235   3.882   0.067 -0.1623  0.0048 -0.2322
 6325W        W22799  11.025  13.069   1.744 -0.0443  0.0998 -0.2519
 6326W        W22800   9.490  15.234  14.291  0.0546  0.0912 -0.0358
 6327W        W22801  11.437  12.216   1.908  0.2823  0.0554 -0.0416
 6328W        W22802  17.545   7.138   1.604 -0.0705 -0.1453 -0.0005
 6329W        W22803   2.846  14.998  11.146  0.4778  0.1077 -0.0686
 6330W        W22804   4.804   1.363   3.996  0.5480  0.0536  0.2427
 6331W        W22805  17.163   8.396  14.432  0.3958 -0.1999 -0.2225
 6332W        W22806   7.157  12.153   0.025 -0.2497 -0.0057 -0.1364
 6333W        W22807  18.729  10.041   4.478 -0.1755 -0.0754 -0.1825
 6334W        W22808  12.701   2.238   0.330  0.2333  0.0125 -0.1126
 6335W        W22809  11.537   0.577   2.534  0.0858 -0.1112  0.1006
 6336W        W22810   2.333   3.600   0.318  0.1043 -0.0743 -0.2204
 6337W        W22811   6.665   3.957  13.690 -0.1682  0.2924 -0.0969
 6338W        W22812  19.469   9.584   4.029  0.2245 -0.1869  0.0765
 6339W        W22813   9.215   7.792   4.623 -0.0338 -0.0558 -0.1666
 6340W        W22814   3.381  17.308  12.811 -0.0679 -0.1663  0.2032
 6341W        W22815  11.564   4.273   1.115 -0.1626  0.0525  0.0042
 6342W        W22816   7.465   2.956  12.018  0.2186  0.0853 -0.2493
 6343W        W22817   1.953   8.312   1.699 -0.2186 -0.3558  0.1320
 6344W        W22818   1.213   2.434  13.336  0.2261  0.5006 -0.0738
 6345W        W22819  14.041   8.313   4.701  0.0242 -0.1937 -0.0724
 6346W        W22820  12.070   0.806   0.562  0.0270 -0.0008 -0.0747
 6347W        W22821  12.558  11.504  12.466  0.0342 -0.1083 -0.1395
 6348W        W22822  13.788  12.931  12.130 -0.0511  0.2236 -0.2697
 6349W        W22823   6.651  12.262  12.217 -0.5473 -0.1080 -0.1183
 6350W        W22824   6.467  11.871  12.526 -0.4654  0.1584  0.1030
 6351W        W22825  15.083   2.027  13.966 -0.1107 -0.0769  0.1259
 6352W        W22826   6.660   1.215   2.342  0.1227 -0.2385  0.1749
 6353W        W22827   3.281  18.689   1.743  0.1729 -0.0527  0.1608
 6354W        W22828   7.801  10.000  12.503 -0.0952  0.0644 -0.3937
 6355W        W22829   7.084  14.053  11.141  0.3317  0.0712  0.2612
 6356W        W22830   9.984  16.558  11.353  0.1037 -0.2116 -0.4567
 6357W        W22831  16.320  15.268  13.797  0.2153  0.1260  0.0396
 6358W        W22832   5.028   1.388   1.585 -0.1058  0.1566 -0.3775
 6359W        W22833  10.276  13.785  12.167  0.0938  0.3547  0.4988
 6360W        W22834  12.312   6.481   1.497 -0.4862  0.0044 -0.0585
 6361W        W22835   9.774   1.191   3.248  0.0883 -0.1692 -0.0025
 6362W        W22836   5.038  18.441   2.877  0.1592 -0.2445  0.0079
 6363W        W22837  17.279  15.458   1.998  0.0264  0.1815  0.0157
 6364W        W22838  12.339  10.178   0.010 -0.0925 -0.0694 -0.4567
 6365W        W22839  13.051   4.350   4.579  0.2388 -0.2424 -0.0113
 6366W        W22840  19.044   5.153   2.386 -0.0937  0.2721 -0.0239
 6367W        W22841   3.449   9.300   4.704  0.0419 -0.5271  0.0481
 6368W        W22842  11.896   7.739  12.671  0.0584  0.5061 -0.3243
 6369W        W22843  10.882  10.724  12.271 -0.1975  0.0525  0.6001
 6370W        W22844  18.395  16.996   4.823  0.3591  0.3843 -0.2027
 6371W        W22845   5.492   7.080  14.131 -0.0231 -0.0002  0.1863
 6372W        W22846   3.974  15.588   2.674  0.4848  0.0903  0.2132
 6373W        W22847  14.379  10.140   5.310 -0.1613 -0.0437 -0.3099
 6374W        W22848   7.400   7.015   4.199  0.2164 -0.1959 -0.1926
 6375W        W22849  15.110   0.184   0.723  0.0843 -0.0394 -0.2801
 6376W        W22850   3.705   0.496   9.616 -0.0299 -0.3618 -0.2373
 6377W        W22851   0.282   6.143   4.978  0.2035  0.0007  0.6110
 6378W        W22852   0.813  15.522  10.571  0.2757  0.1846 -0.1795
 6379W        W22853   4.246   8.758   0.818 -0.0888  0.1100 -0.0354
 6380W        W22854   2.944   2.418  12.702 -0.1550 -0.1577 -0.1231
 6381W        W22855   0.172  10.987   2.500 -0.0405  0.1305 -0.0590
 6382W        W22856   2.760  18.107   3.850  0.1335  0.0807 -0.4361
 6383W        W22857  15.465  19.455   2.330 -0.1186  0.2552  0.0421
 6384W        W22858  11.366   6.747  12.260  0.1483 -0.1959 -0.3020
 6385W        W22859   6.296  17.626  13.039 -0.1703  0.0050  0.0653
 6386W        W22860   9.068  10.730  14.233 -0.1108  0.2405 -0.2334
 6387W        W22861   4.745   7.636   4.495  0.0293  0.0296 -0.1070
 6388W        W22862   0.485   0.247   0.521  0.0052  0.1921  0.0767
 6389W        W22863  11.916  12.299   2.704  0.3902 -0.0917 -0.0908
 6390W        W22864   5.185  18.156   4.073  0.3439  0.1009 -0.0385
 6391W        W22865   5.478   9.192  11.794 -0.0419 -0.2089  0.3107
 6392W        W22866  16.083   8.300   2.754  0.0205  0.1769  0.0048
 6393W        W22867   7.702  15.423  12.984 -0.0021 -0.0285  0.1124
 6394W        W22868   8.644  16.549  14.499 -0.3207  0.1401  0.0482
 6395W        W22869   0.219   2.652   0.555 -0.3180 -0.2262  0.1317
 6396W        W22870   5.991  12.156  11.122  0.1129  0.0942  0.2326
 6397W        W22871  10.421  18.093   2.051  0.2674  0.3276  0.0843
 6398W        W22872  12.454  10.358  11.482  0.2593 -0.0739 -0.5104
 6399W        W22873  14.990   7.548   0.384 -0.0787 -0.1911  0.1997
 6400W        W22874   2.854  14.200  11.556 -0.2057  0.0964 -0.1140
 6401W        W22875  10.970  19.362  13.026 -0.0261 -0.1147  0.0520
 6402W        W22876  11.968   0.312   2.874  0.0211  0.0160 -0.2180
 6403W        W22877   0.100  16.519   9.159  0.5841 -0.3797  0.2800
 6404W        W22878  19.028  10.813   1.432  0.2029  0.0499 -0.3126
 6405W        W22879  11.448   7.515  11.424 -0.0152 -0.0526  0.1535
 6406W        W22880  12.047  16.082  12.431  0.0540  0.0620 -0.3327
 6407W        W22881  13.497   4.634  13.415 -0.1071 -0.2581  0.3560
 6408W        W22882   0.693  13.725  10.453  0.3980  0.1041 -0.1590
 6409W        W22883   4.299   9.197  14.687  0.1958 -0.2639  0.1786
 6410W        W22884   7.734   7.807   1.403 -0.1694 -0.0695  0.0071
 6411W        W22885   2.765  15.691  13.961 -0.2055 -0.0318 -0.2375
 6412W        W22886  15.503   0.600  13.603 -0.1081  0.4189 -0.1144
 6413W        W22887   9.197  16.205  13.366  0.0490  0.0743 -0.2258
 6414W        W22888  19.172   4.528   2.966 -0.2000  0.0268 -0.0930
 6415W        W22889  11.782   3.242  12.022  0.2559 -0.1270  0.1937
 6416W        W22890  10.018  14.451  10.298  0.0789 -0.0164  0.0435
 6417W        W22891   6.450   2.967  10.636  0.2753 -0.3551 -0.0937
 6418W        W22892   2.341   6.461   1.169 -0.0745  0.1723 -0.2985
 6419W        W22893   6.398   9.213   0.357 -0.3473  0.2295 -0.0948
 6420W        W22894   9.508   7.459   4.339 -0.1768  0.3977  0.2765
 6421W        W22895  11.551  16.615   1.609 -0.1825  0.2739  0.0687
 6422W        W22896   4.024   0.224  10.608 -0.1502  0.0019 -0.1133
 6423W        W22897  16.289   5.376  11.490  0.1154  0.0017  0.0250
 6424W        W22898  18.694  10.084   2.068  0.0798  0.0674 -0.2537
 6425W        W22899   2.080   8.275  12.336  0.1232  0.0641 -0.3178
 6426W        W22900   5.426   0.375  14.208 -0.3154  0.1263 -0.0368
 6427W        W22901  17.192  18.034   3.781  0.0466 -0.2593 -0.1305
 6428W        W22902  10.416  17.084  13.760  0.0403  0.1002  0.0007
 6429W        W22903   7.832  16.774  11.329  0.2697 -0.1415  0.3468
 6430W        W22904   2.076   9.368  13.862 -0.3487 -0.1767 -0.1758
 6431W        W22905   6.214  15.509   4.019 -0.0887  0.7011  0.0830
 6432W        W22906   0.693   4.277   1.820  0.2937  0.0214 -0.1435
 6433W        W22907   7.875  12.000  12.578 -0.0813 -0.0932 -0.0687
 6434W        W22908   9.086  11.736  13.878 -0.3624  0.0181  0.0092
 6435W        W22909  12.497  18.046  11.996 -0.0797  0.1511 -0.0144
 6436W        W22910   8.191  13.508  10.459  0.2212  0.1853  0.1118
 6437W        W22911  16.017   4.855   2.122 -0.4001  0.3680 -0.2870
 6438W        W22912   0.996   9.453   3.267  0.1402  0.3219  0.0971
 6439W        W22913   8.077   9.765   2.792  0.1244  0.1443 -0.2945
 6440W        W22914   2.305   1.521   4.582 -0.0474  0.2173  0.1553
 6441W        W22915   2.558   6.509  12.200 -0.1891  0.3093 -0.0669
 6442W        W22916   0.503  12.911  11.563  0.2351  0.2054 -0.1017
 6443W        W22917  19.432   5.582  13.335 -0.1030  0.0890 -0.1557
 6444W        W22918   4.233   0.680   2.662 -0.1477  0.0412 -0.0871
 6445W        W22919   0.053  17.782  12.995 -0.0454 -0.0478 -0.1200
 6446W        W22920  18.536  10.062   1.595  0.2783 -0.0534  0.0328
 6447W        W22921  11.127   1.534   0.528  0.2121  0.3855  0.5344
 6448W        W22922  19.370   4.374   4.918 -0.0383  0.2603  0.0662
 6449W        W22923   5.324  11.328   1.295  0.1812  0.0733 -0.1064
 6450W        W22924   8.915   2.375   2.051 -0.2793  0.2733  0.3327
 6451W        W22925  12.885  12.081   0.599 -0.0315 -0.1649 -0.0199
 6452W        W22926   2.960   1.421  13.552  0.0576 -0.1043 -0.1925
 6453W        W22927  18.638   1.329  12.887 -0.0886  0.0563  0.1795
 6454W        W22928  18.863   8.255   1.896 -0.2538  0.0333 -0.0247
 6455W        W22929  19.334  19.468   4.556 -0.1050  0.1370 -0.1924
 6456W        W22930   4.979   2.635   2.571  0.0077  0.1723  0.1551
 6457W        W22931  13.197   5.474   3.774  0.0420  0.1101  0.0555
 6458W        W22932   7.387   0.918   3.189 -0.3479 -0.0509 -0.1446
 6459W        W22933   9.512  14.091  12.473 -0.3862 -0.0370  0.3051
 6460W        W22934  12.070  12.356   0.705 -0.1257  0.3194 -0.2451
 6461W        W22935   3.136  17.223   4.263 -0.0366  0.3869 -0.0937
 6462W        W22936   2.198   2.139   1.911 -0.2252 -0.1127  0.1179
 6463W        W22937   0.335   2.359   1.791 -0.2589  0.1130  0.0318
 6464W        W22938  13.519  11.604   1.378 -0.0554  0.1104  0.3781
 6465W        W22939   2.194   8.554   2.925 -0.3051  0.2491  0.2690
 6466W        W22940   5.699   0.742  14.541  0.4179 -0.3384 -0.0727
 6467W        W22941  15.595   8.206   2.821 -0.0191 -0.0229  0.1645
 6468W        W22942   5.511  16.951   1.961 -0.3588 -0.0110  0.1023
 6469W        W22943   2.444   8.411   2.329  0.2073 -0.2860  0.1007
 6470W        W22944   5.364   4.872  13.514  0.2996  0.0030 -0.1767
 6471W        W22945  16.411   9.867  13.430  0.1894  0.2140 -0.0215
 6472W        W22946  14.899   0.725  12.854 -0.2148 -0.0303  0.5180
 6473W        W22947   2.677   5.919   4.751  0.0767 -0.1892  0.2373
 6474W        W22948   8.429  14.008   1.201  0.0189 -0.0695 -0.1298
 6475W        W22949   8.476  19.294   4.630  0.3203 -0.0636 -0.1829
 6476W        W22950  11.563  13.608  13.632 -0.1108  0.1005 -0.0457
 6477W        W22951  12.388  15.007   9.616 -0.0067 -0.1539 -0.1206
 6478W        W22952  10.246   3.106   4.299 -0.0686  0.0232 -0.0324
 6479W        W22953   0.804  18.537  13.674  0.0578 -0.1643 -0.4458
 6480W        W22954  15.296   1.748  10.496 -0.3748 -0.0842 -0.1165
 6481W        W22955   0.178  19.149  14.251 -0.5158 -0.3008 -0.0591
 6482W        W22956   1.997   2.918   3.247 -0.0996  0.0165 -0.0821
 6483W        W22957  15.826   1.135  13.255  0.0102 -0.1547 -0.2583
 6484W        W22958  10.662  14.982   0.944  0.0931 -0.0288 -0.1368
 6485W        W22959  19.276   5.823  14.510  0.0530  0.2139 -0.1624
 6486W        W22960  18.351   3.008   4.786  0.1924 -0.0228  0.3242
 6487W        W22961  17.744  16.975   1.255 -0.1413  0.1352  0.0314
 6488W        W22962  17.000  17.982   1.582  0.1226  0.2894 -0.1574
 6489W        W22963  15.044  19.279   4.599 -0.0790 -0.0251  0.2878
 6490W        W22964  17.578   9.524  10.362  0.4875 -0.0159  0.0446
 6491W        W22965  18.327  10.666  10.246  0.3493  0.2119 -0.0192
 6492W        W22966  18.824   8.708   5.026 -0.0257  0.1594  0.0175
 6493W        W22967   3.233  19.012  12.237 -0.0413 -0.0476  0.1680
 6494W        W22968   0.639  14.804   3.080  0.2276 -0.1222 -0.0835
 6495W        W22969   7.515   5.919   0.412 -0.0155  0.5143 -0.1161
 6496W        W22970  15.167  10.105  12.564 -0.0746 -0.2627  0.0972
 6497W        W22971  19.161   0.308   1.934 -0.1322 -0.1447 -0.1799
 6498W        W22972  18.000   7.486   5.602 -0.3503  0.0655 -0.1161
 6499W        W22973  13.913   2.322  10.086  0.4555  0.0561  0.0717
 6500W        W22974   9.435   8.737   3.390  0.2944 -0.1047 -0.0622
 6501W        W22975  14.983   2.744   3.167 -0.1751 -0.2292  0.2916
 6502W        W22976   6.211   9.684   1.912 -0.0479 -0.0475  0.0449
 6503W        W22977  17.445   3.584   3.885  0.1326 -0.0879 -0.3221
 6504W        W22978  13.386  12.868  13.636 -0.1353 -0.0001  0.1088
 6505W        W22979  16.852  12.241   1.982  0.0703 -0.0353 -0.3231
 6506W        W22980  11.440  15.536   4.728  0.1061 -0.0020  0.0648
 6507W        W22981   1.172   1.998  14.071 -0.0891  0.0638 -0.0612
 6508W        W22982   7.191   3.616   2.207  0.0326  0.0283  0.2119
 6509W        W22983   9.545   7.260  11.051  0.1658 -0.0530  0.2342
 6510W        W22984   0.861   1.969  10.199 -0.3685  0.1167  0.4449
 6511W        W22985   0.250  17.130   9.775 -0.1429 -0.0131  0.1110
 6512W        W22986   3.289   0.877  11.036 -0.2154 -0.0179 -0.0340
 6513W        W22987  14.929   7.573  14.022  0.1769  0.2177 -0.0814
 6514W        W22988   6.014   9.393  12.301 -0.2448  0.2649 -0.2707
 6515W        W22989  17.808   1.842   2.851 -0.0809 -0.0254  0.4174
 6516W        W22990  10.941   0.140   1.423 -0.1506  0.0946  0.0212
 6517W        W22991   2.985  15.767   4.581 -0.1856 -0.3571  0.1482
 6518W        W22992   7.563  12.029   4.439 -0.0648 -0.1317 -0.3493
 6519W        W22993   8.858   9.313  11.751 -0.3030 -0.0787 -0.0710
 6520W        W22994  15.437  18.505   4.174 -0.3192  0.0204 -0.2931
 6521W        W22995  10.449   3.115  14.361  0.0773  0.0296 -0.1858
 6522W        W22996   9.738   1.806   0.194 -0.1396 -0.0101  0.2269
 6523W        W22997   9.215   8.407  11.507  0.0828 -0.4962 -0.0573
 6524W        W22998  17.311   7.385  12.769  0.1915 -0.0666  0.1744
 6525W        W22999  19.160   3.548   2.639 -0.1547 -0.2388 -0.1921
 6526W        W23000  17.053  11.278  13.267  0.0386  0.1580 -0.2231
 6527W        W23001   0.619  13.766   0.383  0.1236  0.3721 -0.0850
 6528W        W23002  10.520  15.807   0.632 -0.0456 -0.2452  0.0229
 6529W        W23003   8.108   9.449   5.887  0.0783 -0.3774  0.0787
 6530W        W23004  17.890  18.710   0.006  0.1259  0.0257  0.0859
 6531W        W23005  14.637   5.160  13.766  0.0274 -0.1085 -0.0587
 6532W        W23006  15.020  18.371   0.049 -0.0828  0.3585  0.1850
 6533W        W23007   2.920   2.848   5.735 -0.0865  0.1190 -0.1314
 6534W        W23008   2.768   8.499   5.609 -0.0747 -0.3132  0.3244
 6535W        W23009  12.790  13.740  11.221 -0.1453 -0.0884  0.1161
 6536W        W23010   3.166  14.605   1.837 -0.2293 -0.1710 -0.2536
 6537W        W23011  17.516  11.783   2.788  0.1562  0.1308 -0.0393
 6538W        W23012  12.152   8.907   3.032  0.3572  0.1597 -0.0051
 6539W        W23013  17.676  15.658   0.727  0.3395  0.2064 -0.0495
 6540W        W23014   4.018   7.146   4.095  0.0843 -0.2134 -0.3863
 6541W        W23015  19.502  17.569   3.823  0.0304 -0.2604 -0.1285
 6542W        W23016  13.496   7.506   6.008  0.0476 -0.2249  0.0287
 6543W        W23017   7.699  17.182  12.840  0.2067 -0.0125 -0.1197
 6544W        W23018  15.698  11.987  12.875  0.0653  0.0846 -0.1326
 6545W        W23019  10.983  15.853   3.258  0.1741 -0.0102  0.2446
 6546W        W23020   2.905   8.234  10.985  0.1036  0.1390 -0.0222
 6547W        W23021   4.112   3.460   2.274 -0.0339 -0.2410 -0.0392
 6548W        W23022   3.654   0.652  13.579 -0.0421 -0.1950  0.2402
 6549W        W23023  19.373  15.751   2.411 -0.1674  0.0759 -0.0235
 6550W        W23024   8.861  10.561  14.714  0.0486  0.1757  0.1976
 6551W        W23025  14.105   0.810   9.883 -0.3469  0.0269  0.0592
 6552W        W23026  10.369  12.481   4.454  0.0695  0.1640 -0.2303
 6553W        W23027   0.762  16.865  10.972  0.0704  0.1107  0.2400
 6554W        W23028  17.005   9.861   0.117 -0.1247 -0.1837  0.1838
 6555W        W23029   0.815  11.722  10.204 -0.0552  0.1003 -0.1609
 6556W        W23030  15.979  14.496   3.385  0.1785  0.3629  0.1233
 6557W        W23031  14.420   0.278   2.080  0.0990  0.2749  0.2803
 6558W        W23032  13.011  17.990  11.797 -0.1139  0.1627  0.0920
 6559W        W23033  10.438  18.435   0.933 -0.1118  0.1978  0.4371
 6560W        W23034  14.136  16.084   2.541  0.1122  0.1370 -0.0284
 6561W        W23035  15.002   4.040  13.934 -0.1754  0.2703  0.2468
 6562W        W23036  10.866  14.386  12.729 -0.0520  0.0514 -0.0534
 6563W        W23037  18.427  12.584   1.238  0.2500  0.2525  0.1521
 6564W        W23038  13.318   0.250   4.257 -0.0050  0.0069  0.3760
 6565W        W23039  10.215   6.861  11.534 -0.2022  0.0937 -0.3443
 6566W        W23040  16.647   4.197   0.604 -0.0398 -0.3487  0.0977
 6567W        W23041  10.006   2.617  10.544 -0.0979  0.1272  0.1073
 6568W        W23042  17.474   7.294   3.361  0.0272 -0.0176  0.1403
 6569W        W23043   8.165   9.820   1.921 -0.0660  0.0299 -0.0587
 6570W        W23044  17.897   7.608   2.332 -0.0457 -0.1561  0.1066
 6571W        W23045  10.532   1.351  11.693 -0.1084 -0.0857 -0.2660
 6572W        W23046  19.551   1.878  11.668  0.4811  0.1225 -0.0685
 6573W        W23047   4.004   0.065  14.076  0.2768  0.0423 -0.3462
 6574W        W23048   1.673   5.664  13.037  0.1117  0.0111 -0.2855
 6575W        W23049   0.986   4.846   3.554 -0.1110  0.1251  0.1235
 6576W        W23050  17.323  18.663   0.404 -0.2096  0.1250 -0.0550
 6577W        W23051  13.053   3.367   0.522 -0.1616  0.2286  0.1752
 6578W        W23052  13.765   6.401   2.786  0.0731 -0.3886  0.2484
 6579W        W23053   2.279   6.943  12.703  0.1022  0.0168  0.0337
 6580W        W23054  14.773  18.331  11.569 -0.0590 -0.0608  0.0009
 6581W        W23055  16.216   0.504   1.079 -0.1802 -0.1524  0.0465
 6582W        W23056  10.937  12.737   0.329  0.0611  0.0434 -0.0693
 6583W        W23057  19.133   2.948   9.575  0.1219 -0.0636  0.0025
 6584W        W23058  11.045  11.490   5.155  0.1305 -0.1112 -0.0770
 6585W        W23059   6.145  10.215   3.512  0.2845 -0.0987 -0.4436
 6586W        W23060   0.952   3.476   3.352  0.0781  0.2411  0.0219
 6587W        W23061   9.405   3.396  14.255  0.2229  0.1000  0.0910
 6588W        W23062  19.034   5.463   4.079  0.1859  0.2230 -0.0253
 6589W        W23063  14.488  17.745  13.414 -0.1595  0.0636 -0.1632
 6590W        W23064  13.763  16.839  14.667 -0.2394 -0.3213  0.1152
 6591W        W23065   4.872  10.761   3.427  0.1005  0.1141 -0.0970
 6592W        W23066   5.497  17.309   1.009 -0.1875 -0.2450  0.2152
 6593W        W23067  11.210   7.193   6.018 -0.0288  0.0805 -0.0846
 6594W        W23068  18.213   3.544   1.861 -0.2390 -0.2251  0.0444
 6595W        W23069  11.505   5.859  12.190  0.2708  0.1479  0.1757
 6596W        W23070   6.811  18.786  13.203 -0.2972  0.0936  0.0249
 6597W        W23071  17.319  12.790  11.508  0.0218  0.2930  0.1105
 6598W        W23072   8.798   8.321   1.328 -0.1879  0.3079 -0.0094
 6599W        W23073   4.899   3.996  13.759  0.0378 -0.1417 -0.1312
 6600W        W23074  14.560   0.610  10.000 -0.3045  0.2963  0.1090
 6601W        W23075  15.981  12.238  14.449  0.0576 -0.2460 -0.2676
 6602W        W23076  15.848   7.741   2.547 -0.2154 -0.1282  0.0099
 6603W        W23077   8.957  18.620   3.836  0.0859  0.0940  0.0049
 6604W        W23078   6.955   4.478   4.121  0.0355  0.0288  0.1653
 6605W        W23079   3.604   3.735  12.714  0.1606 -0.3194 -0.0733
 6606W        W23080   4.873  16.575  14.634 -0.1780 -0.1627 -0.2206
 6607W        W23081  18.009   8.681  13.928  0.1631 -0.0193  0.2477
 6608W        W23082   8.632  15.052   3.789  0.1210 -0.0883  0.0348
 6609W        W23083  14.399   0.372   1.183 -0.0476 -0.2614  0.1560
 6610W        W23084   1.426  13.471  14.164  0.3407  0.3330  0.1583
 6611W        W23085  14.178   7.597   4.042 -0.0215 -0.1940 -0.2729
 6612W        W23086  10.739  13.427   4.592  0.2392 -0.2248 -0.0114
 6613W        W23087  16.687   7.137   4.696 -0.1253 -0.4058 -0.1296
 6614W        W23088   3.812  15.342   4.705 -0.0588  0.1144 -0.3024
 6615W        W23089   8.541   7.508   5.052 -0.0293 -0.0862 -0.1403
 6616W        W23090   7.772  16.385  12.116 -0.2595  0.3126  0.1767
 6617W        W23091   9.684   1.943  10.248  0.1349  0.3025 -0.1247
 6618W        W23092   1.711   7.260   2.371 -0.0543  0.2540 -0.0649
 6619W        W23093  12.083   5.595   0.076  0.2133  0.3502  0.1195
 6620W        W23094  10.842  10.035   2.877 -0.1568 -0.2341 -0.0409
 6621W        W23095   7.113   8.234  11.662  0.0260 -0.0480  0.1606
 6622W        W23096   7.654   7.939   0.477 -0.3459 -0.0887 -0.1295
 6623W        W23097  13.765  12.581   0.554 -0.0894  0.0377  0.1572
 6624W        W23098   4.671   9.283  12.151 -0.0617  0.0111 -0.0059
 6625W        W23099  14.791  18.392   2.524 -0.2351  0.0431 -0.4431
 6626W        W23100  18.723  15.813   4.474  0.0586  0.0440 -0.2031
 6627W        W23101   9.461   8.224  10.778 -0.1841 -0.1650  0.1484
 6628W        W23102  14.975  17.622  14.322  0.2456 -0.4173 -0.1869
 6629W        W23103   9.989   2.059  11.570 -0.0786 -0.0645  0.0413
 6630W        W23104  18.759  15.474   2.608 -0.1361  0.0016 -0.3534
 6631W        W23105  17.684  14.966   3.029 -0.0163  0.3083  0.0579
 6632W        W23106   2.127   9.548   1.355 -0.1595  0.3112 -0.3867
 6633W        W23107  16.222  12.797   0.490  0.1818 -0.2455  0.1561
 6634W        W23108   8.034   2.331  11.286 -0.3013 -0.0326 -0.0693
 6635W        W23109   6.333   3.006  11.717 -0.0289  0.1017 -0.5430
 6636W        W23110  14.049  13.055  14.235  0.0213 -0.1481 -0.0318
 6637W        W23111   1.528   1.567  13.494 -0.1956  0.0922 -0.1605
 6638W        W23112  13.663   8.931  11.221 -0.3795 -0.0700  0.0338
 6639W        W23113   3.583  16.909  13.020  0.0840  0.0147 -0.1679
 6640W        W23114  15.096  12.600  14.688  0.1607  0.1285 -0.4620
 6641W        W23115   8.772  13.384   0.073  0.3433  0.0073  0.2721
 6642W        W23116  11.156   5.913   0.243 -0.0328  0.2744  0.1793
 6643W        W23117  10.511  17.572  11.763 -0.1414  0.1440  0.1251
 6644W        W23118   8.127   6.079   2.565 -0.0755  0.0525 -0.2075
 6645W        W23119   6.033   8.538   2.552 -0.0713 -0.1400 -0.1098
 6646W        W23120  11.830  13.918   3.607  0.1097  0.2358 -0.1939
 6647W        W23121  11.587   6.950  14.094 -0.0679  0.0547 -0.1506
 6648W        W23122   1.192  15.894   2.452  0.7388  0.0722  0.0644
 6649W        W23123   1.278  14.552  14.696 -0.1574 -0.1273 -0.1099
 6650W        W23124   4.020  10.262   0.161 -0.3369  0.0298  0.2733
 6651W        W23125  16.374   5.306   3.342  0.1126  0.0061 -0.0691
 6652W        W23126  13.388  18.014  14.559 -0.0833 -0.0350 -0.0377
 6653W        W23127   5.937   3.186  13.407 -0.0761 -0.3598  0.2067
 6654W        W23128  14.489  13.132   0.256  0.2476 -0.0149  0.0913
 6655W        W23129  13.830   5.223  14.688 -0.1143 -0.0120  0.2285
 6656W        W23130   4.039  16.794  13.175  0.3971  0.0295  0.0046
 6657W        W23131  16.342   4.681   1.741  0.2283  0.0987 -0.0626
 6658W        W23132   1.603  10.216  10.480  0.1859 -0.0611  0.2377
 6659W        W23133   9.212   1.645  11.953  0.2989 -0.0580  0.0070
 6660W        W23134  12.666  17.726  14.421  0.2138  0.2561 -0.1994
 6661W        W23135  11.063  17.139   4.859  0.1630 -0.0978  0.0182
 6662W        W23136   5.357   2.969   2.833  0.1891 -0.0424 -0.3020
 6663W        W23137  15.335   3.855   1.745 -0.1469 -0.2806 -0.0502
 6664W        W23138  17.618   0.589  12.201 -0.2238 -0.4172 -0.1675
 6665W        W23139   7.474   1.991  12.077 -0.0618 -0.1305  0.0589
 6666W        W23140  11.666  14.617  13.536  0.0654 -0.2273  0.2897
 6667W        W23141  18.974  18.791   0.036 -0.0841 -0.0777 -0.0720
 6668W        W23142  19.220   1.324   3.044  0.2774 -0.1999  0.1217
 6669W        W23143  13.303   9.740  12.828 -0.1131 -0.2981 -0.1045
 6670W        W23144   7.806  14.548   5.144 -0.0079 -0.3606 -0.2041
 6671W        W23145  13.424  16.586   2.469 -0.0704 -0.2053 -0.2548
 6672W        W23146   3.781   9.004  11.072 -0.3310  0.2021  0.1846
 6673W        W23147   4.390  13.317  13.861 -0.2856 -0.3309 -0.0113
 6674W        W23148   0.743  15.121  13.149 -0.1825  0.2249  0.0861
 6675W        W23149   6.473  17.301  12.238 -0.3357  0.0837  0.0784
 6676W        W23150  19.133  10.056  13.833  0.3097  0.0802  0.0851
 6677W        W23151   0.192   7.179  13.279  0.3889 -0.2415 -0.1627
 6678W        W23152  13.408  13.568   0.853  0.2860  0.0546  0.1611
 6679W        W23153  19.008  12.205   1.610 -0.0296  0.0936  0.1560
 6680W        W23154  16.059   5.482  13.320  0.0098  0.1188 -0.1758
 6681W        W23155  14.739   2.580   3.605  0.1343 -0.0447  0.2433
 6682W        W23156   6.490  19.266  13.177 -0.2233 -0.0095 -0.4350
 6683W        W23157  12.457   0.124   4.910  0.1671  0.3552 -0.1230
 6684W        W23158  12.556  12.360   2.022 -0.0467  0.0033 -0.1666
 6685W        W23159   8.232  18.046   9.906 -0.1186  0.2789 -0.2861
 6686W        W23160  10.684  18.649  12.873 -0.0274 -0.2587 -0.1789
 6687W        W23161   0.188   8.903   1.311 -0.1533  0.1838 -0.0098
 6688W        W23162   6.143  16.015   9.874  0.0710  0.1895  0.3372
 6689W        W23163  19.291  15.883  12.053  0.0131 -0.0089  0.1525
 6690W        W23164   4.011  16.928  11.808  0.2373  0.1163 -0.0128
 6691W        W23165  15.941  13.022  13.133 -0.1665 -0.0434 -0.1433
 6692W        W23166  15.745  16.078  11.794 -0.1078 -0.3366 -0.0990
 6693W        W23167  15.002   1.023   4.196 -0.4733  0.1734 -0.1797
 6694W        W23168  13.020  18.765  10.473 -0.1712  0.0855  0.4111
 6695W        W23169   7.230   4.353   0.207 -0.0621  0.5658 -0.4749
 6696W        W23170   0.090  12.403   0.308  0.0999 -0.2064 -0.1672
 6697W        W23171  11.567  11.042   1.952  0.1707 -0.0668 -0.0059
 6698W        W23172   5.787   8.874   1.019 -0.0871  0.0802  0.1817
 6699W        W23173   9.499   8.891   1.225  0.0707 -0.1076  0.0041
 6700W        W23174   6.861  13.146   9.978 -0.0339  0.3468 -0.0979
 6701W        W23175   3.009   5.815   1.404 -0.2322 -0.3546 -0.0787
 6702W        W23176  19.218  13.506   0.542 -0.0119 -0.2205  0.0764
 6703W        W23177  19.031  19.151   1.852 -0.4394  0.0214 -0.0681
 6704W        W23178   9.348   0.079   2.951  0.0298  0.2070 -0.3013
 6705W        W23179   3.376  19.546   1.252  0.0978  0.2623  0.1155
 6706W        W23180   2.698   0.266   2.464 -0.5738 -0.2703 -0.2578
 6707W        W23181  18.553  16.313   4.184  0.0408  0.3729  0.0791
 6708W        W23182   7.370   8.961   3.214  0.1353  0.2316 -0.0321
 6709W        W23183  15.813   5.269   3.336 -0.2541  0.1940  0.2539
 6710W        W23184   4.763   5.719  11.425 -0.0792 -0.0765 -0.1640
 6711W        W23185  17.586  14.323   4.143 -0.0043  0.3438  0.1276
 6712W        W23186   6.076   1.556  13.820 -0.0177  0.1614 -0.2950
 6713W        W23187  14.539  11.557  13.200  0.0463  0.4759  0.0785
 6714W        W23188  13.384   4.122   4.189 -0.0779 -0.3577 -0.2193
 6715W        W23189  16.821   2.661  12.887  0.0915 -0.0301  0.1035
 6716W        W23190  12.861   3.179   4.763 -0.2439 -0.1983  0.0354
 6717W        W23191  17.654   4.702   3.221 -0.3179 -0.1697  0.1173
 6718W        W23192   2.877   3.356  14.308 -0.1774  0.4701 -0.1678
 6719W        W23193  19.142  14.317  14.254 -0.2816 -0.3473  0.1198
 6720W        W23194  15.589   8.599   5.966 -0.0518 -0.0325 -0.1993
 6721W        W23195   1.776  12.687  11.564  0.1412 -0.0336  0.0967
 6722W        W23196   5.356   0.797   3.580  0.0852 -0.0410 -0.0333
 6723W        W23197   0.918  10.119  11.098  0.1440  0.0066  0.2929
 6724W        W23198   5.559   3.292  12.063  0.1559 -0.1276 -0.1630
 6725W        W23199   0.972  12.714   1.495 -0.2900 -0.0378  0.1892
 6726W        W23200  12.083  14.126   9.778 -0.0258  0.1378 -0.0575
 6727W        W23201   5.754  15.852  14.469  0.1351  0.0179 -0.0625
 6728W        W23202   3.856   9.216  12.421  0.0734  0.2753  0.1954
 6729W        W23203  14.373  15.405  12.832 -0.2435  0.0112 -0.4195
 6730W        W23204  13.951   9.883  11.119  0.0916  0.2287  0.2415
 6731W        W23205  11.847   6.960  11.595 -0.2265 -0.3788 -0.0507
 6732W        W23206  16.585  14.529  11.227 -0.2210  0.0103 -0.2512
 6733W        W23207  17.937  13.736   1.257 -0.0246  0.0555  0.3449
 6734W        W23208  10.100  13.649   2.366 -0.1776 -0.0844 -0.0429
 6735W        W23209   0.302  14.965   3.336  0.1539  0.0010 -0.0192
 6736W        W23210   8.965  12.042  10.948 -0.1805 -0.0070 -0.0502
 6737W        W23211  17.528   3.984   1.253  0.4043 -0.1939 -0.0308
 6738W        W23212   1.097   5.722  12.862 -0.0106 -0.2310  0.1067
 6739W        W23213  17.198  14.485   2.934 -0.1269 -0.0469  0.0878
 6740W        W23214  13.612  13.949   2.356 -0.0556  0.2240  0.2747
 6741W        W23215   4.240  14.101   2.105  0.1464 -0.2647 -0.2074
 6742W        W23216  16.352  11.736  13.480 -0.1061  0.1030 -0.1063
 6743W        W23217  19.079   4.725  13.731 -0.0915  0.1038 -0.0216
 6744W        W23218   5.915   4.505  12.355 -0.1104 -0.0328  0.1038
 6745W        W23219  14.725  13.508  12.564 -0.0796 -0.0471  0.1168
 6746W        W23220   5.566  12.404  14.136 -0.2231  0.0365 -0.1896
 6747W        W23221   5.614  11.573   2.374 -0.2286 -0.3109  0.1547
 6748W        W23222   6.375  10.367  12.549 -0.3310 -0.0459  0.1181
 6749W        W23223  19.100  12.327   0.452 -0.0314  0.0492  0.0172
 6750W        W23224  17.093  18.754  11.515  0.3359 -0.1132  0.1192
 6751W        W23225  15.326  18.598  10.866 -0.0068  0.0207 -0.0372
 6752W        W23226   2.010  14.805   4.303 -0.0794  0.2365  0.0305
 6753W        W23227  12.784  10.410  13.377 -0.1649  0.1938 -0.0736
 6754W        W23228   3.121  12.764   3.862  0.0966  0.1413 -0.2576
 6755W        W23229   2.461  15.248   4.159  0.0009 -0.0357  0.3996
 6756W        W23230   2.807   9.858   3.079  0.0069  0.0093  0.2040
 6757W        W23231  14.079   0.990   3.671 -0.2591  0.2066 -0.1646
 6758W        W23232  18.090   3.049  11.117  0.0246 -0.0974 -0.1784
 6759W        W23233  16.745  15.032  10.018 -0.1224 -0.1285 -0.1438
 6760W        W23234  11.586  18.085   9.927  0.2671 -0.2526 -0.0734
 6761W        W23235   2.120   2.942   4.701 -0.2067  0.2116 -0.1025
 6762W        W23236   5.480  12.849  10.778  0.2188  0.2509 -0.2333
 6763W        W23237   9.435  11.318  13.593  0.1050  0.4111  0.1372
 6764W        W23238  12.788  14.907  13.102  0.2328  0.0174  0.1052
 6765W        W23239   2.202  16.529  13.938 -0.0310 -0.1898  0.2433
 6766W        W23240   8.789   0.545  13.440 -0.1257  0.0827  0.1163
 6767W        W23241   4.907   4.118   4.235 -0.0428  0.0023  0.0450
 6768W        W23242  19.504  12.012   2.043 -0.1323 -0.4173  0.0380
 6769W        W23243  11.658  18.245  12.700  0.0134 -0.1970 -0.3222
 6770W        W23244  12.310   2.796   0.118 -0.0223  0.3401  0.3424
 6771W        W23245  13.769  11.660  12.035  0.1043 -0.0755  0.0567
 6772W        W23246   6.242  14.783  14.072  0.0103  0.1233 -0.1192
 6773W        W23247  14.298  18.172  13.650  0.0441  0.0097 -0.0882
 6774W        W23248  17.063   5.611   9.848 -0.3022  0.2033 -0.0974
 6775W        W23249  14.241   6.181  12.351  0.0983 -0.2076 -0.0925
 6776W        W23250  16.057  14.000   0.577  0.0207 -0.0947  0.2190
 6777W        W23251  12.056   3.191   4.328 -0.1030 -0.3731 -0.0668
 6778W        W23252  11.051   0.496   0.949  0.0753 -0.1079  0.2305
 6779W        W23253  17.956  14.662   1.674  0.2133 -0.0700 -0.1491
 6780W        W23254   1.440  16.627  13.194 -0.1841  0.1936  0.2859
 6781W        W23255   0.708  15.084  10.279 -0.1778  0.0242 -0.1899
 6782W        W23256   8.402  14.862  11.266 -0.3820 -0.0773 -0.2482
 6783W        W23257  10.547   0.412   1.647 -0.1044 -0.0615 -0.4004
 6784W        W23258  13.748  18.884  13.668  0.0601 -0.0684 -0.0007
 6785W        W23259  11.477   7.487   2.216 -0.0012 -0.0553  0.1743
 6786W        W23260   1.177   4.904  11.618 -0.0406 -0.1368  0.4318
 6787W        W23261   5.511   0.770  13.097  0.0875  0.2579 -0.1168
 6788W        W23262  13.532  17.575   1.544 -0.1910  0.0732 -0.1952
 6789W        W23263  17.373   5.475  10.857 -0.0435  0.0545  0.0827
 6790W        W23264  10.787   8.390   2.394 -0.0478  0.0510 -0.0687
 6791W        W23265   3.044   6.650  12.608 -0.1045  0.0411  0.3010
 6792W        W23266   9.758   3.153  11.757  0.2800 -0.0353 -0.0738
 6793W        W23267   9.617   0.312   3.341 -0.2370 -0.1337  0.1359
 6794W        W23268   9.146  14.813   0.850  0.3710  0.0844 -0.1190
 6795W        W23269   6.834  16.882   4.150  0.0808  0.0978 -0.0611
 6796W        W23270   3.330  12.920   0.829 -0.1913  0.1264  0.0446
 6797W        W23271  16.483  11.957   2.259  0.2780 -0.0165 -0.2078
 6798W        W23272   2.145  18.453  10.839  0.0906  0.3780  0.1401
 6799W        W23273   6.423   1.657   4.431 -0.5207 -0.0655 -0.2918
 6800W        W23274   9.161  19.508   1.508 -0.1631  0.1447  0.2891
 6801W        W23275  17.087  18.963   3.280 -0.2014 -0.2966 -0.3925
 6802W        W23276   4.569  12.357  12.931  0.1367  0.2038  0.1550
 6803W        W23277   2.739   8.476  13.142 -0.4760 -0.1411 -0.0535
 6804W        W23278  12.933   1.730   2.303 -0.1004 -0.1584  0.0671
 6805W        W23279  15.271  17.925   4.293  0.1051  0.2301  0.3508
 6806W        W23280   9.173   8.827  14.385  0.0099  0.2060  0.1049
 6807W        W23281   6.444   5.811   3.093 -0.1271 -0.1606 -0.0613
 6808W        W23282  16.281  19.005   0.998  0.2404  0.2672 -0.2127
 6809W        W23283   6.989  11.076   0.089 -0.0613  0.4243  0.1407
 6810W        W23284  13.253   1.022   0.583  0.0971  0.2329  0.0033
 6811W        W23285   8.279   8.306   1.262 -0.1253  0.1021  0.1585
 6812W        W23286  18.272  10.795  11.214 -0.4077  0.3685  0.0146
 6813W        W23287   7.885  18.207   4.611 -0.1671 -0.2310 -0.0074
 6814W        W23288   7.305   6.178  12.455 -0.0541  0.0654 -0.1248
 6815W        W23289  16.749   1.846   0.906 -0.0470  0.1486  0.0073
 6816W        W23290   1.780   6.938  14.452  0.3325 -0.1514  0.2037
 6817W        W23291   7.545   8.755  13.249 -0.1446 -0.2610 -0.1353
 6818W        W23292   7.965  11.832   4.212 -0.2859  0.1691  0.4313
 6819W        W23293   3.775   2.411  13.502 -0.0310 -0.3128  0.0033
 6820W        W23294   1.202  12.063   1.589 -0.0439  0.1408 -0.3050
 6821W        W23295   7.938   2.879   2.264 -0.2933  0.3158  0.0440
 6822W        W23296   5.865   0.050  12.339  0.1647 -0.0386 -0.0745
 6823W        W23297  14.049   9.278  11.828 -0.1173 -0.2884 -0.1618
 6824W        W23298   0.239  14.026  11.710 -0.0091  0.1934 -0.0925
 6825W        W23299  16.950   2.591  11.525 -0.3349  0.1370 -0.3357
 6826W        W23300  15.346   5.445   2.185 -0.1919 -0.0047 -0.0320
 6827W        W23301   3.634  17.438  11.813 -0.0225 -0.0881 -0.0900
 6828W        W23302   3.404  12.980  10.199  0.0297 -0.5117  0.1712
 6829W        W23303  11.679   6.244  11.348  0.0917  0.1080 -0.1725
 6830W        W23304   3.264  13.154   0.357 -0.0594  0.0022  0.1651
 6831W        W23305   9.488  16.742   1.027 -0.2135  0.2759  0.1494
 6832W        W23306   7.584  17.289   2.375  0.2664  0.0888  0.2165
 6833W        W23307  18.687  17.674   3.226 -0.2403  0.0318  0.0908
 6834W        W23308   8.953   7.582   3.290  0.0195  0.0420 -0.1393
 6835W        W23309  16.233  10.455  12.803  0.2799 -0.0767 -0.1609
 6836W        W23310   0.445  17.596  10.884  0.0951  0.1751  0.1763
 6837W        W23311  11.567  18.008   3.920  0.0663 -0.5644 -0.3547
 6838W        W23312   3.878  11.583   2.274 -0.2232  0.4420 -0.0390
 6839W        W23313  11.048   7.969   1.152  0.0764 -0.1419  0.0826
 6840W        W23314   1.909  16.797   0.656 -0.0061  0.2954  0.1185
 6841W        W23315  15.297  16.771  12.480  0.4310 -0.4115  0.5374
 6842W        W23316   2.820   7.800  14.647  0.0736  0.1395 -0.1887
 6843W        W23317   3.575  17.523  12.377 -0.3025  0.2079 -0.0385
 6844W        W23318  10.973  16.956  14.504 -0.2266 -0.3113  0.2816
 6845W        W23319  13.919  17.749  12.407 -0.0306  0.0202 -0.1089
 6846W        W23320   4.830   6.529   1.082 -0.0593  0.0340  0.1673
 6847W        W23321  10.259   6.451  10.219 -0.1906  0.0546 -0.0005
 6848W        W23322   7.399   4.639   3.938 -0.1013 -0.3095  0.0520
 6849W        W23323  10.133  15.855  11.021 -0.0399  0.2373  0.2398
 6850W        W23324  16.639   3.758  11.628  0.0368  0.0889  0.1639
 6851W        W23325  17.730  12.838   0.521  0.1228 -0.1797  0.0849
 6852W        W23326   8.137   3.787  11.332 -0.1958 -0.1956  0.0671
 6853W        W23327  16.611  16.994  10.867 -0.6131  0.3855  0.2341
 6854W        W23328   5.124   0.916  12.200  0.1492  0.1684 -0.0291
 6855W        W23329  15.899  15.814   0.268  0.4175  0.2322 -0.3192
 6856W        W23330  17.533  18.146  13.138 -0.3062  0.1441  0.0180
 6857W        W23331  11.758   2.293   0.893  0.2574  0.1888  0.0600
 6858W        W23332  12.416  15.914  13.123  0.1029  0.0062  0.2626
 6859W        W23333  17.779  11.276  14.493 -0.0899  0.2205 -0.1665
 6860W        W23334  12.459  11.461   3.731 -0.3139  0.2044 -0.1139
 6861W        W23335   5.794  19.258  13.261  0.1828 -0.2418  0.2025
 6862W        W23336  13.687  13.870   0.034  0.0002  0.1146  0.0307
 6863W        W23337  10.420   3.661   4.517 -0.1679  0.1930  0.0976
 6864W        W23338   2.641  11.986   1.801  0.0771  0.0836 -0.1159
 6865W        W23339  13.154   1.097  11.512 -0.0300  0.1493  0.1973
 6866W        W23340   6.685   0.826   1.582  0.0159 -0.1937  0.1358
 6867W        W23341   7.737   6.668   0.919  0.1669 -0.1072  0.1993
 6868W        W23342  19.447  13.984  12.341  0.0232  0.1487  0.2507
 6869W        W23343   0.857  13.972   4.637  0.1483  0.0757 -0.1705
 6870W        W23344   1.195  16.617  14.207 -0.1571  0.2894  0.3113
 6871W        W23345  10.335   1.967   2.894  0.0332  0.2698 -0.1415
 6872W        W23346  18.382   0.451   0.193 -0.1031 -0.0404  0.0941
 6873W        W23347  10.222  17.108   1.073 -0.2907 -0.2094  0.1966
 6874W        W23348   1.288  10.915  11.194 -0.2389 -0.0768 -0.3914
 6875W        W23349  15.175   2.712   4.468  0.0050 -0.0657  0.1263
 6876W        W23350  10.972  15.796   1.761  0.1812  0.4608  0.1461
 6877W        W23351   2.780   8.003  12.983  0.3353 -0.1439 -0.3941
 6878W        W23352   0.906   9.509   3.757  0.1272  0.2021 -0.2001
 6879W        W23353  17.974  10.116   1.733  0.1630 -0.0520 -0.1022
 6880W        W23354   8.916   3.471  10.752 -0.1930  0.1298  0.1630
 6881W        W23355   6.055  13.457  10.500  0.2075  0.3097  0.1206
 6882W        W23356  13.642   0.780   5.811 -0.1813  0.3351  0.1356
 6883W        W23357  17.486   5.342  13.261 -0.0122 -0.5172  0.0450
 6884W        W23358   7.881   0.091   0.722 -0.4627 -0.2520  0.0731
 6885W        W23359   5.942  19.006  10.422 -0.1765 -0.0859 -0.0982
 6886W        W23360  11.428   5.348  14.082 -0.0510  0.1264 -0.1544
 6887W        W23361   3.770   7.111  13.527  0.2631 -0.0889 -0.3256
 6888W        W23362  11.100   8.712   2.567 -0.4206 -0.0703  0.2754
 6889W        W23363   7.533   2.301   5.029 -0.0581  0.3651  0.1251
 6890W        W23364   2.461  12.049   3.257 -0.0005  0.0983 -0.0138
 6891W        W23365  17.896  11.229   4.366 -0.0405  0.0403  0.1648
 6892W        W23366   6.875  18.403   3.376 -0.2696  0.1416  0.1785
 6893W        W23367   0.852  14.790   2.025  0.0334  0.0579  0.0394
 6894W        W23368  19.382   8.946  12.629  0.0475  0.0828  0.3057
 6895W        W23369  14.188   2.632  11.531  0.2578  0.3653  0.2613
 6896W        W23370   7.363   1.506  12.156 -0.1941  0.1589 -0.2866
 6897W        W23371   2.579   7.315   3.816  0.1068  0.3227 -0.0988
 6898W        W23372  14.771  13.709  13.008 -0.0403 -0.1188  0.2110
 6899W        W23373   6.726   2.408   1.125 -0.2029  0.1517 -0.0481
 6900W        W23374   4.965   2.318   2.170  0.0600 -0.0134 -0.0966
 6901W        W23375   7.253   9.837   3.393  0.0313 -0.1935  0.2627
 6902W        W23376  15.999  19.295   0.754 -0.2413  0.0579  0.2317
 6903W        W23377   3.870   7.698   2.662  0.1762 -0.1410  0.1706
 6904W        W23378   0.843  18.907  12.154  0.2093  0.2137  0.0926
 6905W        W23379   9.465   0.431  14.299 -0.0159  0.3482  0.1203
 6906W        W23380   4.602   8.109  13.234 -0.0160 -0.1098 -0.2733
 6907W        W23381  13.678  13.774  13.830  0.1736  0.0044  0.0457
 6908W        W23382   8.504  18.576   3.448 -0.3263  0.1647 -0.1869
 6909W        W23383  12.096  17.979  10.070  0.1222 -0.3495  0.2137
 6910W        W23384  12.119   6.528   3.548 -0.0058  0.1403 -0.1508
 6911W        W23385  13.648   2.849  13.932  0.0361 -0.2775  0.1156
 6912W        W23386  15.026   8.893   3.801  0.2013 -0.2183  0.2889
 6913W        W23387   0.398   7.053  11.921 -0.1008  0.0680 -0.0954
 6914W        W23388  18.440   7.512  11.034  0.2133 -0.1288 -0.0528
 6915W        W23389  10.562  12.579  13.852  0.2264 -0.1450 -0.0934
 6916W        W23390   8.344   3.264  13.179 -0.0034  0.1639  0.0357
 6917W        W23391   1.807   9.642   4.580  0.0975 -0.3648 -0.3331
 6918W        W23392  15.836   1.813   1.226  0.1936  0.1461  0.4957
 6919W        W23393  12.786  18.640  14.040 -0.2673 -0.1674 -0.0772
 6920W        W23394  12.692  18.250  14.580 -0.2898  0.2172 -0.0522
 6921W        W23395  16.286   4.800   1.269 -0.0010 -0.0791  0.0744
 6922W        W23396   6.229  12.002  13.231  0.5979  0.1030  0.0679
 6923W        W23397   6.403   7.218  12.972  0.0855 -0.1167  0.0557
 6924W        W23398   2.078  15.996   1.016  0.1489  0.2125  0.2946
 6925W        W23399  12.133  18.653  12.642 -0.1430  0.1614  0.0527
 6926W        W23400  16.915  12.540  12.040 -0.2857 -0.0476 -0.2432
 6927W        W23401   6.334   4.172   2.182  0.0827  0.3933  0.2180
 6928W        W23402   2.592   7.042   4.271  0.0771 -0.1520 -0.0930
 6929W        W23403  17.222   0.603   3.860  0.0818  0.2597 -0.3423
 6930W        W23404   6.800   9.702   0.747  0.8217  0.2431 -0.2886
 6931W        W23405   3.998   5.581  13.479 -0.3695  0.1538 -0.0640
 6932W        W23406   6.971   6.003  12.860 -0.0968  0.3325  0.3179
 6933W        W23407  14.021  15.400  11.197  0.0590 -0.2945 -0.0409
 6934W        W23408  11.051  10.922   1.755  0.0351  0.1490 -0.2950
 6935W        W23409   5.005   6.210   2.815 -0.0851 -0.1046 -0.1950
 6936W        W23410   2.331   5.975   5.641 -0.1819 -0.5770  0.0327
 6937W        W23411  16.565  14.232  13.667 -0.0175  0.1169  0.1210
 6938W        W23412  11.966   7.584  10.292  0.0009  0.1468 -0.3520
 6939W        W23413   3.564   0.020   2.968 -0.0511  0.2480 -0.0127
 6940W        W23414  17.807  10.603   0.959  0.1080 -0.1910 -0.1890
 6941W        W23415  10.525   6.344  14.368 -0.0960  0.3549 -0.1814
 6942W        W23416   0.675   8.864   0.721 -0.2234 -0.1093 -0.0526
 6943W        W23417  13.699  12.254   0.953  0.1159  0.4619  0.1202
 6944W        W23418   9.951   0.655   5.039  0.1332 -0.1780 -0.0460
 6945W        W23419  15.681   8.314   4.937  0.1156  0.1285 -0.1402
 6946W        W23420   8.069  17.903   0.568 -0.1802 -0.1770  0.1344
 6947W        W23421  15.854   3.350  13.971  0.1813 -0.0911 -0.0321
 6948W        W23422   3.528  17.948  11.898 -0.0140  0.2353 -0.2803
 6949W        W23423  10.795   5.532   4.350 -0.0941  0.5994 -0.4431
 6950W        W23424  18.633  16.593   2.732 -0.1249  0.1498  0.1023
 6951W        W23425  16.535  12.738   3.226 -0.1772  0.2594  0.2818
 6952W        W23426   1.106  12.216  11.008  0.1232 -0.0972  0.0184
 6953W        W23427  13.680   6.832  11.888  0.0494  0.0337  0.1761
 6954W        W23428  14.466   4.202   1.353  0.1814 -0.0021  0.0691
 6955W        W23429   1.040   6.636   0.552 -0.2001 -0.0667 -0.2795
 6956W        W23430   7.860  13.223   0.517 -0.1935 -0.2365 -0.0206
 6957W        W23431   6.164   5.028  14.148  0.0713  0.4616 -0.0201
 6958W        W23432   8.349  17.973   1.467  0.2208  0.2100  0.0444
 6959W        W23433  12.309   1.519  11.395  0.0674  0.2407 -0.1346
 6960W        W23434  11.233  17.357  14.338  0.2196 -0.1105  0.0834
 6961W        W23435  18.884   1.502  12.391 -0.2671  0.1701  0.0343
 6962W        W23436   6.777  10.415   1.044 -0.0477 -0.1056  0.0156
 6963W        W23437  17.248  19.197   4.981  0.1122 -0.3576  0.0102
 6964W        W23438   5.088  19.181  10.204 -0.0964 -0.1865 -0.0136
 6965W        W23439   3.038  10.963  14.262  0.4496 -0.0752  0.0638
 6966W        W23440   8.290   1.239  11.947  0.1572  0.1552 -0.1556
 6967W        W23441   2.752   3.335   5.447 -0.2401 -0.3497  0.1178
 6968W        W23442  19.179  16.753  13.092  0.0816 -0.1833  0.2598
 6969W        W23443  10.522  11.755   0.022  0.0401 -0.0357  0.1417
 6970W        W23444  11.318   5.294   4.103 -0.0835  0.2939  0.1735
 6971W        W23445   7.900   4.946  13.212  0.0751 -0.0343  0.0693
 6972W        W23446  12.492  17.770   0.602  0.3099 -0.1559 -0.1676
 6973W        W23447   6.408  16.763  10.902 -0.1099  0.1740  0.0376
 6974W        W23448   2.396   1.750  12.215  0.0414 -0.1128  0.2170
 6975W        W23449   8.513  11.092   0.697  0.1067  0.0651  0.0164
 6976W        W23450   1.319   9.073   4.518 -0.0856  0.1364  0.3560
 6977W        W23451  17.691   9.242   4.492 -0.3948 -0.1701 -0.4652
 6978W        W23452  15.085   4.762  14.167 -0.1728  0.2261 -0.1938
 6979W        W23453  18.961   3.919   0.781  0.1063 -0.0560 -0.1945
 6980W        W23454   3.928  13.044   3.402  0.0592  0.1807  0.1613
 6981W        W23455  11.476   8.277  10.905  0.1578  0.2702 -0.3285
 6982W        W23456  18.368   8.410   1.950 -0.1480 -0.0879 -0.1736
 6983W        W23457   8.884   5.874  11.040 -0.0305 -0.0144  0.0328
 6984W        W23458  12.588  17.162   5.666 -0.1639 -0.0843 -0.2663
 6985W        W23459  16.042   0.789   2.383  0.0269 -0.2745 -0.2453
 6986W        W23460  13.984   7.966   2.403 -0.1853  0.0166  0.6182
 6987W        W23461   6.932  17.296  12.427 -0.3675  0.0020  0.1342
 6988W        W23462  12.311   2.150   4.720 -0.0525  0.2670  0.3690
 6989W        W23463   3.724   1.968  12.176 -0.2601 -0.0712  0.1761
 6990W        W23464  14.321   7.800   5.092 -0.0293  0.0358  0.2743
 6991W        W23465  13.448   2.421  11.169  0.2070  0.0747 -0.0679
 6992W        W23466   8.572   4.891   2.511 -0.0847  0.6270  0.1780
 6993W        W23467   0.157  11.917  10.173  0.2072 -0.1535  0.0823
 6994W        W23468   0.582   5.376   0.421  0.0247  0.1772  0.1687
 6995W        W23469   6.031  13.825  14.399 -0.3804 -0.5990 -0.2858
 6996W        W23470   0.265   3.027   4.203 -0.1546 -0.2518  0.0303
 6997W        W23471   4.019   5.630  12.473  0.0739  0.1605  0.0589
 6998W        W23472   2.359   3.247   1.885 -0.0060  0.3587  0.0935
 6999W        W23473   3.914   7.267   1.247 -0.1238  0.0424  0.6225
 7000W        W23474  11.333  14.230   5.057 -0.1114 -0.5070 -0.0700
 7001W        W23475  15.765   2.871   9.597 -0.1071 -0.1805 -0.0337
 7002W        W23476  17.559  15.009   1.772  0.0254  0.0719 -0.1505
 7003W        W23477  12.648   1.228  13.038 -0.1315  0.0809  0.1948
 7004W        W23478  15.850   7.147   5.828  0.2473  0.0258 -0.1691
 7005W        W23479  15.452   2.552   1.085  0.1058 -0.2325  0.0990
 7006W        W23480  15.520   8.655  14.714 -0.2268  0.1817  0.0665
 7007W        W23481  15.280   7.440   4.942  0.0506 -0.2632 -0.0816
 7008W        W23482   2.704  13.744   0.246 -0.0566 -0.3010  0.0311
 7009W        W23483   7.466  14.252  10.524  0.2987 -0.1260  0.1327
 7010W        W23484   5.631  16.176  10.572 -0.2017 -0.3281  0.1551
 7011W        W23485   1.990  11.738  13.031  0.2975 -0.0678 -0.1597
 7012W        W23486  17.792  12.894  11.411  0.2122 -0.2468  0.0777
 7013W        W23487  10.320   0.020   1.839 -0.2373 -0.1478 -0.1320
 7014W        W23488   4.292  15.900  14.243 -0.1073  0.0874 -0.0893
 7015W        W23489   6.124   8.690   0.411  0.0005  0.3754  0.0788
 7016W        W23490   4.338   6.612   3.240 -0.4858  0.2085 -0.4446
 7017W        W23491  13.745   9.548   4.372 -0.3122  0.1516  0.0024
 7018W        W23492   4.999   9.416   3.771  0.0776 -0.0737 -0.3743
 7019W        W23493  15.653  18.964   3.875 -0.1683 -0.2541 -0.1149
 7020W        W23494  18.567   7.005  11.151  0.2339  0.1553  0.1874
 7021W        W23495  14.038  15.774   3.383  0.1584 -0.1996 -0.1121
 7022W        W23496  15.860  15.256   3.668 -0.4936  0.4784  0.1594
 7023W        W23497   2.793  15.597  14.507  0.1726 -0.2149  0.1733
 7024W        W23498   5.594  18.057   9.661  0.2483 -0.4002  0.1746
 7025W        W23499   4.802  19.269   0.719 -0.1401  0.0169  0.0367
 7026W        W23500  14.581  13.757  12.124  0.2047  0.1307  0.2511
 7027W        W23501  12.572  16.010  11.831 -0.0298  0.0412  0.2270
 7028W        W23502  17.402  16.280   3.853  0.1715  0.0399 -0.1274
 7029W        W23503   0.142   1.827  13.236  0.1931  0.1982 -0.0991
 7030W        W23504  19.126  17.218  11.379  0.1381 -0.2121  0.2621
 7031W        W23505   8.461  17.406   2.068 -0.0238 -0.0359  0.0137
 7032W        W23506   4.394  16.501   4.695 -0.1024 -0.1635 -0.2316
 7033W        W23507   5.716  19.172   0.259 -0.1363  0.1565 -0.1441
 7034W        W23508  10.545  10.797   4.944  0.1710  0.1347 -0.0022
 7035W        W23509  19.500   8.133   4.154 -0.0632  0.2387 -0.1431
 7036W        W23510  13.451  18.256  11.483  0.0863 -0.2098 -0.0168
 7037W        W23511   3.557  13.961  13.280 -0.3263  0.1150  0.1526
 7038W        W23512   9.865   1.028  12.232 -0.1561 -0.0392 -0.0397
 7039W        W23513  15.389  13.149  10.304  0.0195  0.1637 -0.0070
 7040W        W23514  14.019  10.463   3.334  0.7008 -0.0568  0.0855
 7041W        W23515  12.421  17.427   4.114 -0.1778 -0.1098 -0.2391
 7042W        W23516   3.482  11.102  12.213  0.2974  0.3673  0.0355
 7043W        W23517   4.179   8.468  11.752 -0.0394 -0.1517  0.2271
 7044W        W23518   1.764  17.137   0.192  0.0375 -0.0689 -0.0891
 7045W        W23519  12.669   5.947   1.941 -0.0288  0.5888 -0.1792
 7046W        W23520   5.810   1.057   2.785  0.1223  0.1160 -0.1880
 7047W        W23521   5.362  14.288   3.073  0.1957 -0.1939  0.2543
 7048W        W23522  11.419  13.349   5.240 -0.0037  0.0531  0.0979
 7049W        W23523  14.035   7.446   0.941  0.0731  0.3030  0.2625
 7050W        W23524   4.874   7.494   9.959  0.1216 -0.0775 -0.1550
 7051W        W23525  16.099  17.920   0.551  0.0093  0.0328  0.0583
 7052W        W23526  11.457  15.661  12.090  0.3581 -0.4813 -0.3615
 7053W        W23527   4.299  10.705  11.735 -0.1205  0.3375 -0.2225
 7054W        W23528  16.213  10.392   2.634  0.1642 -0.0439 -0.1534
 7055W        W23529  12.216   0.749   0.082 -0.0769 -0.1121  0.1744
 7056W        W23530   1.221  10.169   0.016 -0.0883 -0.2311 -0.0354
 7057W        W23531   8.264  14.462   0.968 -0.1707 -0.1291 -0.2433
 7058W        W23532  15.821  14.367  12.373 -0.1323  0.1077 -0.0987
 7059W        W23533   9.963  10.406  10.212  0.1493 -0.0937  0.1612
 7060W        W23534  14.853   8.646  10.869 -0.0625  0.0466 -0.0036
 7061W        W23535   8.498   3.198   0.243 -0.4567  0.0222 -0.2731
 7062W        W23536  15.321   0.708  10.471 -0.0148 -0.2287  0.1854
 7063W        W23537   4.692  15.458  13.807 -0.0271  0.3171 -0.2299
 7064W        W23538  12.720   3.862   3.084 -0.2510 -0.0877 -0.2137
 7065W        W23539   3.111   0.073   2.153  0.1823 -0.0483  0.0960
 7066W        W23540  11.031  11.444  12.650  0.0943 -0.2983  0.0574
 7067W        W23541  12.941  18.087  10.110 -0.0499 -0.1301 -0.0191
 7068W        W23542  10.407  13.400   5.561 -0.1075 -0.1724 -0.1003
 7069W        W23543  18.710   0.329  14.127 -0.0032 -0.2831 -0.0503
 7070W        W23544   5.899   9.129  13.536 -0.4072  0.1454  0.0136
 7071W        W23545   0.086   6.745  10.416  0.1179  0.2673 -0.0195
 7072W        W23546   5.547   4.138   4.944  0.2409  0.0012  0.1673
 7073W        W23547   7.567   9.561  12.144 -0.2496  0.3279  0.0658
 7074W        W23548   9.210  15.676   4.430  0.4718  0.0323  0.1838
 7075W        W23549  11.903   3.965   5.494  0.0997  0.0520  0.1827
 7076W        W23550   7.062  13.757   1.422  0.3090 -0.2794  0.1539
 7077W        W23551   7.329  12.306   0.610  0.2721 -0.3000  0.3213
 7078W        W23552   7.104   0.376  12.095 -0.1294 -0.0621 -0.2122
 7079W        W23553   5.137   3.601  12.009 -0.3813 -0.1813  0.1161
 7080W        W23554   5.553  16.250  11.485 -0.0253 -0.1223  0.0825
 7081W        W23555  13.036  12.055   5.811 -0.3724  0.2271  0.1266
 7082W        W23556   1.498   2.386  11.359 -0.0214  0.0908  0.0007
 7083W        W23557   8.455   9.773  12.458 -0.2506 -0.0127  0.1289
 7084W        W23558  10.551  10.631   4.354 -0.0862 -0.3073  0.1440
 7085W        W23559   9.841   2.730  12.551 -0.0617 -0.0488  0.2086
 7086W        W23560  19.568   8.137  13.929  0.1612  0.0767 -0.0761
 7087W        W23561   8.999   3.528  11.852 -0.3027  0.0046  0.4889
 7088W        W23562   3.264  10.665   3.300 -0.1439 -0.2195 -0.0119
 7089W        W23563  14.969   6.809   2.181  0.3124 -0.1082 -0.0848
 7090W        W23564   3.020   8.309   3.145  0.1363 -0.0631  0.2152
 7091W        W23565   6.961   8.885   1.898 -0.1878  0.2040  0.2060
 7092W        W23566   0.726   5.594   3.525 -0.1764 -0.1502 -0.0221
 7093W        W23567   8.095   7.730   3.417  0.0496  0.0119 -0.4584
 7094W        W23568  16.796  12.645   2.274  0.0683  0.0658 -0.0195
 7095W        W23569   9.517   8.523   0.046  0.0652 -0.2022 -0.0804
 7096W        W23570   5.368  14.088  12.985  0.0399  0.2035  0.4694
 7097W        W23571  13.289   1.241  12.313 -0.0265  0.2514 -0.1789
 7098W        W23572   8.127   1.828   2.281  0.1877  0.2804 -0.2308
 7099W        W23573   5.965   2.725  12.801  0.2342 -0.1347 -0.1030
 7100W        W23574   5.836   7.111   0.128 -0.0742  0.1459 -0.2054
 7101W        W23575   2.537  11.646   4.752  0.1388  0.0982 -0.0448
 7102W        W23576   9.236   8.672  12.530  0.0268 -0.3825 -0.4565
 7103W        W23577  13.878  12.550  14.319 -0.1239  0.2987  0.2292
 7104W        W23578  13.805   2.635  14.398  0.3787  0.0359 -0.3483
 7105W        W23579  16.778   6.344   2.568  0.0593 -0.2554 -0.3241
 7106W        W23580  12.017  14.729  14.346  0.1883  0.0283  0.1117
 7107W        W23581   0.252   5.828  11.110  0.2907 -0.1033  0.1654
 7108W        W23582   9.045  18.577  11.562 -0.4231 -0.2194  0.1005
 7109W        W23583   2.558  11.961   2.789  0.1086  0.1920  0.0733
 7110W        W23584  15.021   5.537  10.285 -0.2346  0.1345 -0.0305
 7111W        W23585  14.162   1.151   0.932 -0.0607  0.3896  0.2353
 7112W        W23586   5.684  17.232  13.545  0.0158 -0.0297  0.1877
 7113W        W23587  15.823  11.249  13.723  0.1415 -0.0990  0.0317
 7114W        W23588  13.207  18.275   5.255  0.0222 -0.4993 -0.2694
 7115W        W23589  18.676   9.288  12.705 -0.1891 -0.0930 -0.2599
 7116W        W23590   7.697   0.166  13.900 -0.2253 -0.0953 -0.2196
 7117W        W23591   2.070   3.324   2.784 -0.0400 -0.0627  0.1868
 7118W        W23592   2.134   6.399   1.597  0.0270 -0.2196 -0.0595
 7119W        W23593   5.787   7.205  12.675 -0.0133  0.3265 -0.0156
 7120W        W23594   5.840   4.226   0.812  0.2517  0.2293 -0.1909
 7121W        W23595   2.703   0.064   1.870 -0.1316  0.1794  0.2484
 7122W        W23596  15.487   2.001   2.531  0.1440 -0.1200  0.0315
 7123W        W23597  10.122  13.174  13.397 -0.2823 -0.1236  0.1088
 7124W        W23598  15.724   7.652   3.783 -0.2505  0.1767  0.2949
 7125W        W23599  10.570   4.233   0.367  0.0573 -0.1508 -0.1278
 7126W        W23600  15.453   6.697   2.971 -0.1110 -0.0487 -0.1021
 7127W        W23601  10.322   7.339  13.677 -0.1082 -0.1440 -0.0710
 7128W        W23602  10.554  13.922  10.489  0.0698 -0.1885  0.1880
 7129W        W23603  17.746   3.971   3.817  0.2409 -0.1433  0.3154
 7130W        W23604   0.557  14.729   5.045  0.1649 -0.1044  0.0590
 7131W        W23605  13.335  15.517   0.877 -0.0031  0.0695 -0.1681
 7132W        W23606   7.501  12.718  10.367 -0.3517 -0.2358  0.1097
 7133W        W23607  15.089  14.897  14.294 -0.3030  0.0191  0.3475
 7134W        W23608   7.612  16.768  14.127  0.0119  0.0070 -0.3052
 7135W        W23609  17.515  14.437  12.983  0.1121  0.1796  0.1083
 7136W        W23610  14.555   0.873   3.536  0.1041 -0.3467  0.2722
 7137W        W23611  14.645  12.160  12.091  0.1147  0.5055 -0.0974
 7138W        W23612   5.610  12.172   0.610  0.2388 -0.4109 -0.4986
 7139W        W23613  17.185  16.191   0.356  0.5383  0.1247  0.1597
 7140W        W23614  19.480  17.634   3.119  0.0254 -0.3057  0.1766
 7141W        W23615  12.306   6.277  13.567  0.2012 -0.0551 -0.1044
 7142W        W23616  18.500   9.550   0.742  0.0101 -0.1406 -0.2282
 7143W        W23617  12.682   7.617  13.794  0.0434  0.1835  0.1049
 7144W        W23618   6.830   5.236   2.317 -0.1988 -0.2110  0.1161
 7145W        W23619   0.606   2.084  11.868  0.5076  0.1595 -0.2660
 7146W        W23620   8.524  19.003   0.909  0.1535 -0.2797  0.1185
 7147W        W23621   0.387  11.387   3.657  0.1063 -0.1678 -0.0118
 7148W        W23622   7.997  18.846   2.803  0.2580 -0.4344 -0.4110
 7149W        W23623  16.360   2.106  12.055 -0.1056 -0.1281 -0.0974
 7150W        W23624  16.041  15.023   4.737  0.4531 -0.1746  0.2373
 7151W        W23625  15.424   8.720   4.668  0.4388  0.1187 -0.0915
 7152W        W23626  19.158  15.708   5.141  0.1564 -0.0744 -0.0944
 7153W        W23627   5.632   9.361   1.084  0.0368 -0.2024  0.1233
 7154W        W23628  18.954   9.325   0.713 -0.0060 -0.0607  0.1053
 7155W        W23629   0.439   0.427  10.518  0.0299 -0.4979  0.2087
 7156W        W23630  12.284   7.871   4.078 -0.2220 -0.5328 -0.1254
 7157W        W23631  10.832  16.926  13.525 -0.2570 -0.1390  0.1512
 7158W        W23632  15.039  15.312  11.024  0.0253 -0.3391  0.2719
 7159W        W23633   4.318  17.603   9.503 -0.1496  0.0240 -0.1014
 7160W        W23634  12.875  18.353   4.158  0.0894  0.0499 -0.2170
 7161W        W23635   2.485  19.312   0.857 -0.0134  0.1962  0.2408
 7162W        W23636   4.437  15.288  12.807  0.0096 -0.0935 -0.2173
 7163W        W23637  14.077  15.331   3.697  0.1879  0.0220  0.0420
 7164W        W23638   4.261  10.672   0.247  0.0693 -0.0385 -0.2401
 7165W        W23639   0.619   9.920   2.106  0.0267  0.6350  0.3648
 7166W        W23640  13.048   4.578  13.861  0.1377 -0.1715  0.1500
 7167W        W23641   7.188  17.405   1.427  0.0947 -0.3603 -0.0234
 7168W        W23642  12.008   2.827   1.896  0.1243 -0.2370  0.1985
 7169W        W23643  15.497   1.519  10.877 -0.1902  0.0333 -0.1997
 7170W        W23644  19.484  15.377   3.293  0.0216 -0.2149  0.0463
 7171W        W23645  13.160  13.989  12.807 -0.0842 -0.1358  0.2835
 7172W        W23646   3.717   0.373   3.435 -0.4972 -0.1402 -0.0592
 7173W        W23647  14.182   0.051  14.382  0.0436 -0.1893  0.1906
 7174W        W23648  19.388   8.557   4.362 -0.1227  0.1501  0.3996
 7175W        W23649   8.602   5.128  11.017  0.2685  0.2622  0.2660
 7176W        W23650  13.838   2.200  11.778 -0.2067  0.3853 -0.2214
 7177W        W23651   7.267  10.947  14.002  0.0103 -0.1730  0.1494
 7178W        W23652  11.932   6.622  11.190 -0.1774  0.0644  0.0530
 7179W        W23653   6.014   5.928   2.545  0.2246  0.5856 -0.2517
 7180W        W23654   1.303  17.669   0.931  0.2154 -0.1178  0.2813
 7181W        W23655   2.785   1.964  13.678 -0.0695  0.2304  0.0435
 7182W        W23656   9.622  14.282   0.134  0.2625  0.1080 -0.0985
 7183W        W23657  12.152   0.486  12.481 -0.3252 -0.1345 -0.2507
 7184W        W23658  13.210  17.057   2.564  0.0840 -0.1672 -0.0762
 7185W        W23659  14.545   3.867   0.395  0.0001 -0.0714  0.0542
 7186W        W23660   8.719   3.855   4.036 -0.0934  0.2144 -0.0415
 7187W        W23661  13.054  16.044  12.045 -0.0847 -0.0400  0.4267
 7188W        W23662  17.404  10.216  11.129  0.1407  0.0507 -0.1313
 7189W        W23663   2.891   7.527   0.392 -0.0677 -0.1193 -0.2006
 7190W        W23664   3.497  12.411   0.675 -0.3139  0.3285  0.2675
 7191W        W23665   2.408   4.440   0.651 -0.3173 -0.1835 -0.1256
 7192W        W23666   4.217  15.236   0.887 -0.4171 -0.0388 -0.1237
 7193W        W23667   4.648  13.436   1.478  0.2843  0.0876  0.1261
 7194W        W23668  16.525   3.053   2.578 -0.0128 -0.1311  0.0481
 7195W        W23669  10.524  15.562  12.292 -0.4591  0.2709  0.0500
 7196W        W23670   3.129   5.692   4.511 -0.1259  0.1430 -0.2812
 7197W        W23671   0.563  19.333  11.987  0.3924  0.2366  0.4785
 7198W        W23672  12.045   1.980  12.097  0.2558  0.1426 -0.4519
 7199W        W23673   9.192   5.666  10.188  0.0097 -0.4260  0.1374
 7200W        W23674   1.989   2.011  12.294 -0.3934 -0.1149 -0.1735
 7201W        W23675  11.421  17.131   2.228 -0.0240  0.1111 -0.0780
 7202W        W23676   4.680   1.777   2.958 -0.1319 -0.1752 -0.2894
 7203W        W23677  11.216   1.673  14.195  0.0970  0.2758  0.5541
 7204W        W23678   0.148   5.367   4.936  0.0855 -0.3013  0.5828
 7205W        W23679  15.755  17.520  14.581  0.1821 -0.2994  0.0604
 7206W        W23680  12.994   7.973   5.002  0.2595  0.1983 -0.3345
 7207W        W23681  14.513  19.421  14.047  0.0873 -0.0249 -0.2369
 7208W        W23682  16.618   2.423   2.107  0.2362 -0.1811 -0.2537
 7209W        W23683   2.272  18.892   3.646 -0.1704 -0.2819 -0.1092
 7210W        W23684  18.026   1.277  12.761  0.0158  0.1892 -0.0597
 7211W        W23685   7.161  10.633   2.001  0.1793  0.0978 -0.3143
 7212W        W23686  11.887  12.197   1.738  0.0609  0.4681  0.0388
 7213W        W23687  13.290   5.428   2.680  0.1006  0.4893 -0.0067
 7214W        W23688   7.595   7.877  12.679  0.0586 -0.2124 -0.0730
 7215W        W23689  19.445   0.608  11.714 -0.0694  0.1559  0.0686
 7216W        W23690  19.073  19.221   3.844  0.1161 -0.1044  0.0852
 7217W        W23691  11.016  11.785   1.570 -0.3329  0.0000  0.1204
 7218W        W23692  17.311   0.548   8.779 -0.1523 -0.1779 -0.3580
 7219W        W23693  14.282  13.721  11.704  0.0495 -0.2423  0.1253
 7220W        W23694  15.494   1.732  12.208  0.4239  0.2666 -0.1650
 7221W        W23695   0.995   3.203  10.278  0.1945  0.2850 -0.0235
 7222W        W23696   9.546  10.221   2.010 -0.1313 -0.2976 -0.1345
 7223W        W23697  16.654   0.099   1.495  0.0099  0.2152 -0.2337
 7224W        W23698   9.119   3.309   9.634 -0.1539  0.1275 -0.1330
 7225W        W23699  15.639  14.987  13.079  0.2096  0.3399  0.0711
 7226W        W23700   2.537   5.582  13.847 -0.1095 -0.1120 -0.5771
 7227W        W23701   6.551   6.270  11.982 -0.3178 -0.2296 -0.4409
 7228W        W23702   5.316  12.403   1.700  0.0120  0.2488 -0.1700
 7229W        W23703  17.555   4.070  14.184  0.0747  0.2759  0.0738
 7230W        W23704  11.474  19.118   2.376  0.0032 -0.2344 -0.0296
 7231W        W23705  18.083   6.519   1.182  0.2459  0.0129 -0.1884
 7232W        W23706   6.373  12.313   9.685 -0.0217  0.0114  0.1847
 7233W        W23707  11.791   7.095  14.705  0.1723  0.0099  0.2080
 7234W        W23708  18.824   6.406   1.661 -0.0139  0.1952 -0.1436
 7235W        W23709  14.122  18.640   2.480 -0.1242  0.3356 -0.2779
 7236W        W23710   6.665  14.756   0.769 -0.0305 -0.2745 -0.1277
 7237W        W23711  11.668  14.342  10.656 -0.4616  0.0937 -0.3988
 7238W        W23712  18.072   9.027   4.227  0.3290 -0.0854  0.0225
 7239W        W23713   8.985   7.755   5.101  0.3261 -0.2824 -0.1262
 7240W        W23714   1.832   7.307  13.441 -0.3317 -0.0761  0.0459
 7241W        W23715   5.380  11.710  10.415 -0.0888 -0.3583 -0.0880
 7242W        W23716  16.921   3.466   1.458 -0.0408  0.3154  0.1468
 7243W        W23717   2.514   8.048  13.425  0.2240 -0.0876  0.5360
 7244W        W23718  12.633   5.622  12.475 -0.2240  0.1910 -0.2555
 7245W        W23719  11.085   8.264  14.144 -0.1809 -0.0690 -0.0481
 7246W        W23720  13.601   5.244   0.400 -0.0223 -0.2653 -0.1503
 7247W        W23721   0.981   9.179   2.264 -0.0553 -0.2793 -0.0211
 7248W        W23722   1.178   2.436  11.793  0.0693 -0.1595  0.1407
 7249W        W23723  13.881   5.803   4.384  0.2011 -0.0034  0.2105
 7250W        W23724  10.258  11.228   4.097 -0.2929 -0.0569  0.4623
 7251W        W23725  12.994  17.473   2.778 -0.1288  0.3132 -0.1137
 7252W        W23726  18.338  17.047  14.640  0.1092 -0.0798  0.2041
 7253W        W23727   8.113  16.916   3.297  0.1275 -0.0155 -0.0673
 7254W        W23728  10.233   7.783  13.351  0.0250  0.2439  0.0878
 7255W        W23729  11.518   3.809   2.043 -0.2215  0.0468  0.3417
 7256W        W23730   5.525  11.184  10.780  0.1609 -0.0241  0.2749
 7257W        W23731   0.663   4.201   1.059 -0.2346  0.1867  0.2999
 7258W        W23732  18.553  19.503  12.325  0.2368 -0.0637 -0.6661
 7259W        W23733  10.098  13.878   1.167 -0.1660  0.1872  0.1129
 7260W        W23734  11.524   4.190   4.039  0.3127 -0.2209 -0.0646
 7261W        W23735   6.517  16.447  11.296 -0.2635  0.2769  0.3116
 7262W        W23736   1.876  17.412   3.527 -0.0485 -0.3600  0.1150
 7263W        W23737   9.625  11.443   2.691  0.1138  0.1079  0.0299
 7264W        W23738  16.899  12.749   1.260 -0.1474 -0.0296 -0.3550
 7265W        W23739  10.459   9.241   5.359  0.0756  0.3383  0.1636
 7266W        W23740   8.988   5.837   4.698 -0.1610 -0.2292  0.0598
 7267W        W23741  19.252  12.161   4.632 -0.3203  0.0121 -0.0888
 7268W        W23742   9.595  19.521   2.547  0.1630 -0.1013 -0.1905
 7269W        W23743  14.664   8.551   0.015  0.0553 -0.1567 -0.3329
 7270W        W23744  17.203   4.817   0.802  0.0984 -0.0732  0.0366
 7271W        W23745  11.697   7.202  12.412 -0.2629 -0.2765 -0.0502
 7272W        W23746   3.046   4.412  13.739  0.2333  0.0944 -0.1677
 7273W        W23747   5.809  16.390  14.455 -0.1244 -0.2623  0.3033
 7274W        W23748   1.492  16.663   0.489  0.0771  0.0880  0.3608
 7275W        W23749   2.094   2.838   2.731 -0.0862  0.0431  0.1653
 7276W        W23750   6.729  10.389   2.194  0.0377 -0.0966  0.2225
 7277W        W23751  15.500   0.424   0.219  0.1953 -0.3710 -0.2570
 7278W        W23752  15.382   3.020   1.354  0.3194  0.0164  0.0086
 7279W        W23753  11.662   4.866   4.483 -0.0427  0.0261  0.1191
 7280W        W23754  17.716  14.248   3.665  0.3219 -0.1761  0.0939
 7281W        W23755  13.927   6.048   3.635 -0.1179  0.1924 -0.0044
 7282W        W23756  14.412  11.534  11.258 -0.0573 -0.1780  0.1971
 7283W        W23757   0.600  10.859   3.892 -0.0886  0.3776 -0.1586
 7284W        W23758   8.117   9.107  11.458 -0.4620  0.2084 -0.3488
 7285W        W23759  13.358   7.559   0.130 -0.0215  0.0114 -0.0237
 7286W        W23760  11.119   2.801   2.254 -0.2185 -0.2333  0.3208
 7287W        W23761  11.134   2.799   4.417  0.0191 -0.1478  0.1101
 7288W        W23762  12.244  10.655  12.222  0.0560  0.3152 -0.1341
 7289W        W23763   0.381  19.342   1.791 -0.2499 -0.1866 -0.4710
 7290W        W23764  11.450   5.752  12.695  0.1809 -0.1751 -0.0159
 7291W        W23765  17.204  13.902   1.622  0.0928 -0.0367 -0.1014
 7292W        W23766   0.115  18.122  14.043 -0.1215 -0.5027  0.0073
 7293W        W23767  17.936  14.197  10.857 -0.4061 -0.2814  0.0498
 7294W        W23768   9.356   8.322  14.368 -0.1163  0.0890 -0.1174
 7295W        W23769   9.600   6.909  13.648 -0.1488 -0.1691 -0.0674
 7296W        W23770   5.091  13.641   3.800 -0.3749  0.1950  0.0987
 7297W        W23771  14.405   7.025   2.229  0.3103 -0.0710 -0.2364
 7298W        W23772   8.412   4.504   1.094  0.1811  0.1991  0.0463
 7299W        W23773  12.146  13.503  14.106 -0.2817 -0.1479  0.1232
 7300W        W23774  14.901  13.228   1.545 -0.1191  0.2795  0.0599
 7301W        W23775  15.671  13.514   2.083  0.1652  0.0331  0.0263
 7302W        W23776   6.127   4.940   0.854  0.0089  0.6276  0.0171
 7303W        W23777   9.959   2.993   2.829  0.2647  0.2119 -0.0271
 7304W        W23778   8.033   7.839  11.118 -0.0834  0.1299 -0.0838
 7305W        W23779  12.104  15.114   2.164 -0.0789 -0.0014 -0.4127
 7306W        W23780   5.924   8.297  13.716 -0.2554 -0.0145 -0.1991
 7307W        W23781   8.913   5.100   2.870  0.1439 -0.1242  0.0506
 7308W        W23782  11.055  17.913  13.148 -0.1333 -0.2731 -0.1830
 7309W        W23783  13.840   4.840  14.330  0.1324  0.0796  0.1610
 7310W        W23784   6.732  11.258   5.100  0.1330 -0.1035 -0.0032
 7311W        W23785  10.269  12.863  12.772  0.2490 -0.2031 -0.2597
 7312W        W23786  16.830   4.281  13.004  0.1527  0.1794 -0.1686
 7313W        W23787   0.637   2.381  10.001 -0.0913 -0.2500 -0.2306
 7314W        W23788   7.192   4.396   1.968 -0.3557 -0.1505  0.0707
 7315W        W23789   2.360  11.715  11.378  0.1502 -0.2404 -0.1298
 7316W        W23790  17.078  15.376   3.429 -0.2008 -0.2628 -0.0748
 7317W        W23791  11.702  10.512   4.254 -0.0126 -0.1626 -0.3382
 7318W        W23792  16.347   6.508  14.528  0.1031 -0.3911 -0.2192
 7319W        W23793  14.622   3.009  14.513  0.2348  0.0449  0.1699
 7320W        W23794   5.221  17.627   9.806 -0.1635  0.3181  0.0313
 7321W        W23795   6.739   8.012  13.047 -0.1555 -0.1105 -0.0203
 7322W        W23796  16.518   8.504  13.676 -0.1477  0.0529 -0.0948
 7323W        W23797  11.646  12.682   4.458 -0.4982 -0.3118 -0.1345
 7324W        W23798   4.032  12.279  12.829  0.2238 -0.0631  0.0507
 7325W        W23799   7.248   5.295  11.050 -0.1956 -0.3131  0.4402
 7326W        W23800  13.407  17.628  13.196 -0.0356  0.0708 -0.0677
 7327W        W23801  15.334   6.003   2.176  0.1171  0.1688  0.1588
 7328W        W23802   6.965  18.076  11.826 -0.1522 -0.1784  0.2533
 7329W        W23803  15.259   3.597  12.614  0.0603  0.2873 -0.0861
 7330W        W23804  14.331   5.948  13.732 -0.3578 -0.2073  0.2125
 7331W        W23805   4.466   0.736   0.423  0.2153  0.0173 -0.1540
 7332W        W23806  13.719   4.054   0.278 -0.2860 -0.1830  0.1279
 7333W        W23807  17.223  15.694   0.471  0.2786 -0.0868 -0.2721
 7334W        W23808  12.780   2.666  10.434  0.1619  0.3697  0.1321
 7335W        W23809  17.395  16.780   3.366 -0.4185  0.0607 -0.0898
 7336W        W23810  13.421   9.922   4.443 -0.2125 -0.0345 -0.0187
 7337W        W23811   3.982  15.129  11.536 -0.0674  0.0077  0.1089
 7338W        W23812   7.239  10.243   4.699 -0.3949  0.0095 -0.3119
 7339W        W23813   2.990   6.883  11.606  0.2042 -0.1088  0.3395
 7340W        W23814  19.380  14.991  12.471  0.0108 -0.2091 -0.1642
 7341W        W23815   0.372  16.025   2.052  0.1494 -0.0844  0.0542
 7342W        W23816   5.652  13.564  10.117 -0.0133  0.0293  0.0706
 7343W        W23817  12.721   8.673   5.318 -0.0652 -0.3343  0.1939
 7344W        W23818   1.302   4.701   0.378 -0.0036  0.2719  0.3074
 7345W        W23819  10.124   5.640   3.672  0.2102  0.1445  0.1286
 7346W        W23820  10.141   6.031  14.195  0.1878 -0.2427  0.3318
 7347W        W23821  13.983  19.003   0.751 -0.0432 -0.1341  0.1641
 7348W        W23822   9.647   5.809   3.876  0.1304 -0.0243  0.0800
 7349W        W23823  16.463   0.049  10.715  0.2994  0.1920 -0.0146
 7350W        W23824   7.133   6.552   1.912 -0.0325 -0.0813 -0.1898
 7351W        W23825   6.622   9.272   3.872 -0.0452 -0.1493  0.0402
 7352W        W23826  18.236   5.208   3.147 -0.0056 -0.0430 -0.2050
 7353W        W23827   3.984  14.923  14.187 -0.1535 -0.1876  0.0093
 7354W        W23828   5.238  18.977   0.032  0.0464  0.2719 -0.0627
 7355W        W23829   7.562  16.483   0.806  0.1040  0.0767  0.4170
 7356W        W23830  16.553  12.210  13.415 -0.0531  0.1353  0.1456
 7357W        W23831   4.795  12.990  10.071  0.3463 -0.4042  0.0851
 7358W        W23832  15.610  11.075   2.251  0.0971 -0.2198  0.1036
 7359W        W23833   1.277   3.971  13.753  0.0772 -0.1438 -0.4023
 7360W        W23834   8.454   9.266   3.282 -0.2589  0.2443  0.1578
 7361W        W23835  17.475  16.362  14.658  0.0733  0.4408 -0.0955
 7362W        W23836  14.411   4.912   3.611  0.2052  0.1180  0.0516
 7363W        W23837   7.036   2.917   1.600 -0.3080  0.1170  0.1623
 7364W        W23838  16.822   5.695  12.497 -0.1462  0.0694 -0.1447
 7365W        W23839  19.245   1.573   4.852  0.2726 -0.2146 -0.1686
 7366W        W23840  14.550   9.002   0.250 -0.2655  0.0620  0.1726
 7367W        W23841  16.980   3.085  11.437  0.0895  0.0185  0.1675
 7368W        W23842  18.887   1.557  13.374 -0.2224  0.1756  0.4063
 7369W        W23843   6.350  12.630   0.979 -0.2442 -0.2188 -0.3290
 7370W        W23844  16.508   1.529   4.208 -0.0624 -0.1626 -0.1706
 7371W        W23845   6.057  10.036   0.512 -0.3271  0.0123  0.1347
 7372W        W23846   0.297   5.187   2.876  0.0392  0.0310  0.1811
 7373W        W23847  17.323   9.103   1.614 -0.1712 -0.3353  0.2653
 7374W        W23848   7.519  18.571   3.449  0.1691 -0.0455 -0.1683
 7375W        W23849   3.072   2.533   1.690 -0.1866 -0.1923  0.3075
 7376W        W23850   5.077  13.226   4.786 -0.0138 -0.1072 -0.1242
 7377W        W23851   0.593   2.302  10.499 -0.1527  0.2055 -0.2907
 7378W        W23852  16.560   2.885   0.283 -0.0005  0.1314  0.1139
 7379W        W23853   5.118  16.779  10.137  0.0291  0.2455 -0.1561
 7380W        W23854   3.301   9.129   0.158 -0.1757 -0.1077  0.3019
 7381W        W23855   9.277   5.404   0.513 -0.0181  0.1548 -0.3541
 7382W        W23856  15.653   0.984   0.559  0.1636  0.1056  0.1733
 7383W        W23857   1.880  15.668   3.585 -0.1589 -0.0414  0.5131
 7384W        W23858  11.602  16.814  13.736 -0.0824  0.0954 -0.1761
 7385W        W23859  12.741  17.562  11.923  0.1105 -0.0616  0.3514
 7386W        W23860  12.195   1.274  10.013  0.0441  0.0588 -0.1436
 7387W        W23861   2.472   2.038   0.296  0.1470  0.0732 -0.0268
 7388W        W23862  15.466  10.974  11.517 -0.1001 -0.0295  0.0287
 7389W        W23863  18.715   8.229  14.447  0.0505 -0.1531 -0.2675
 7390W        W23864   1.998  14.361  12.807  0.2545 -0.6214 -0.1231
 7391W        W23865   1.726   5.859   1.701  0.0573 -0.1586  0.0017
 7392W        W23866   4.334  10.097   1.325 -0.0462 -0.0430 -0.0650
 7393W        W23867   5.729  16.339   3.820  0.0518  0.3253 -0.0148
 7394W        W23868  11.527   6.725   3.347  0.2179 -0.0750  0.1604
 7395W        W23869   4.762  13.425  12.396 -0.1464  0.1729 -0.1167
 7396W        W23870  15.389  18.097  13.612  0.1411 -0.1880 -0.1332
 7397W        W23871   6.668  19.352   3.159 -0.3498  0.0730 -0.0291
 7398W        W23872   0.199   9.000  13.938  0.0325  0.1060 -0.2745
 7399W        W23873  17.513  18.813   4.119 -0.0704  0.1143  0.2851
 7400W        W23874   8.172   5.584  14.305  0.2133 -0.1008  0.0124
 7401W        W23875  17.634  12.744  10.932 -0.2301 -0.0616  0.3512
 7402W        W23876   1.822  15.077  14.277 -0.0478 -0.0999 -0.2029
 7403W        W23877  13.747   7.835   3.116 -0.1555 -0.2085  0.0913
 7404W        W23878   6.302  19.094   1.344  0.3043  0.0280  0.2232
 7405W        W23879   1.071   0.361  11.793  0.0217 -0.0204 -0.2518
 7406W        W23880   1.082   1.030  13.982 -0.0107 -0.0091  0.1357
 7407W        W23881   5.610   2.709   5.072  0.1242 -0.1692 -0.1299
 7408W        W23882   1.542  17.682   2.998  0.1370 -0.2107 -0.0578
 7409W        W23883   6.030   2.686   3.604  0.0078 -0.1461  0.1627
 7410W        W23884  11.322  10.816   3.981  0.4520  0.1695  0.0140
 7411W        W23885  12.126  15.066  13.919  0.2561  0.2066 -0.2082
 7412W        W23886   7.984  18.456  10.672  0.1640 -0.1775  0.0086
 7413W        W23887  15.680   7.605   9.528  0.0391  0.1580 -0.1601
 7414W        W23888   7.687  16.240   1.271  0.0210 -0.1109  0.2403
 7415W        W23889  10.152   8.209   5.204 -0.1217  0.3038  0.1523
 7416W        W23890   4.720  10.297   1.573 -0.2529 -0.0655 -0.1019
 7417W        W23891   8.920   3.185   5.357  0.0646 -0.0547 -0.2127
 7418W        W23892   3.150  17.428  12.066  0.3123 -0.2248  0.2358
 7419W        W23893  15.066   0.269   4.681  0.0271  0.0503 -0.2528
 7420W        W23894   1.339   5.408   4.973  0.0647 -0.0852 -0.0876
 7421W        W23895  15.489  13.931  14.406  0.0584 -0.0616 -0.1499
 7422W        W23896  19.172   4.362   0.838  0.1362 -0.1234  0.0340
 7423W        W23897  13.353   2.865  12.905  0.2187 -0.0024 -0.3035
 7424W        W23898  11.797   1.857   3.480  0.0612 -0.1203 -0.1522
 7425W        W23899  16.115   7.340   0.276 -0.3762  0.1696  0.0494
 7426W        W23900   9.539  16.776  14.174  0.2201 -0.0780  0.0893
 7427W        W23901   3.281  10.471  14.158  0.0458 -0.0939 -0.1431
 7428W        W23902   5.699   2.119  10.190 -0.0319 -0.3273 -0.1387
 7429W        W23903  19.016   8.035  12.586  0.5011 -0.1955  0.0798
 7430W        W23904  11.642   9.684   0.462 -0.0403  0.3818  0.0139
 7431W        W23905   5.170  17.433   3.999  0.2571  0.1269  0.0514
 7432W        W23906   9.906  12.274   1.261  0.0914 -0.2817 -0.0245
 7433W        W23907   1.697  10.791  11.965 -0.0541 -0.2730 -0.3311
 7434W        W23908   9.947   0.423  14.411 -0.1809 -0.1492  0.2942
 7435W        W23909   4.224   9.073   1.387 -0.1309 -0.1945 -0.0582
 7436W        W23910  18.088   5.768   5.403  0.0268  0.1986 -0.1287
 7437W        W23911  11.403   7.966  11.964  0.1117  0.2692 -0.2412
 7438W        W23912  11.003   5.975  12.279  0.1505 -0.0575  0.3131
 7439W        W23913  15.759   4.885  10.618 -0.1052 -0.0814 -0.1124
 7440W        W23914   6.804   5.604   0.955 -0.1618 -0.2243 -0.0898
 7441W        W23915  15.617  11.462  14.577 -0.2382  0.0829  0.0285
 7442W        W23916   5.081  16.677  12.390 -0.0949  0.2577 -0.4469
 7443W        W23917   4.360  15.691   4.838 -0.0845 -0.3577  0.3965
 7444W        W23918  14.239  11.292   5.739  0.3163 -0.1853 -0.0674
 7445W        W23919   9.461   3.595   5.672 -0.2808  0.3077  0.0690
 7446W        W23920  10.115   3.256  13.021 -0.1461 -0.1934 -0.2894
 7447W        W23921  15.813   6.670  13.618  0.2934  0.0034  0.1703
 7448W        W23922  12.970  16.829  10.646 -0.2009 -0.2174  0.1243
 7449W        W23923  16.679   3.290  12.146 -0.1341  0.0856  0.0473
 7450W        W23924   7.137  15.394   1.680 -0.1259 -0.0777  0.1714
 7451W        W23925   3.850  10.619  11.423  0.0689  0.0226  0.1440
 7452W        W23926  19.541   3.861   1.915  0.1783  0.1113 -0.0387
 7453W        W23927   8.402  12.606   3.698 -0.1073  0.0138 -0.0926
 7454W        W23928   7.398   3.420  14.555 -0.0927  0.2948  0.0503
 7455W        W23929   9.499   0.897  14.128 -0.2469  0.1377  0.0159
 7456W        W23930  10.794  11.874  13.530  0.1983 -0.1001 -0.2374
 7457W        W23931   2.797   0.183  10.777 -0.1521 -0.2188 -0.2906
 7458W        W23932  14.552  19.389   4.596  0.0377  0.0916  0.0480
 7459W        W23933  12.603  19.358   3.280  0.1422 -0.0815  0.3179
 7460W        W23934  14.666   1.899   1.953  0.1176 -0.0600  0.0172
 7461W        W23935  19.465   0.712   3.973  0.1635 -0.0230 -0.0846
 7462W        W23936  18.605  16.385  10.718  0.3711  0.0097 -0.1059
 7463W        W23937  14.634  17.111  14.092  0.1225 -0.0925  0.0549
 7464W        W23938  14.082   3.617  13.541  0.1964 -0.0516  0.0008
 7465W        W23939   6.367   7.190   3.387 -0.2500  0.0115 -0.0894
 7466W        W23940  10.710  19.187  14.552 -0.2792 -0.0752  0.1465
 7467W        W23941   0.437   2.098   4.894  0.0262  0.1912  0.1599
 7468W        W23942   1.164   9.584  11.777 -0.1537 -0.0554 -0.0321
 7469W        W23943   6.558   7.899   4.732 -0.3714  0.0870 -0.2151
 7470W        W23944   6.990  12.405  13.273  0.0341  0.2978 -0.3568
 7471W        W23945   9.633  13.683  10.860  0.1874  0.0343 -0.0279
 7472W        W23946   1.378   8.525   0.411  0.3132  0.2303  0.0671
 7473W        W23947   4.666  17.815  14.090  0.0954  0.0389 -0.0473
 7474W        W23948   5.628  12.378   3.540 -0.0597  0.0579 -0.1531
 7475W        W23949   8.538   6.802   1.579 -0.1124 -0.0577 -0.2372
 7476W        W23950   6.559   1.900  11.412  0.1642  0.1294  0.0627
 7477W        W23951  13.211   8.526   3.261  0.0732 -0.0531  0.1136
 7478W        W23952  10.680  14.117   2.492  0.2512  0.0074  0.1722
 7479W        W23953   5.273  14.980   0.192 -0.4011  0.1971 -0.1842
 7480W        W23954   8.342  11.715   5.008 -0.1549  0.1704 -0.5107
 7481W        W23955   7.406  10.706  12.614  0.0831 -0.2157  0.1818
 7482W        W23956   7.570  15.480  12.160 -0.4114 -0.0177 -0.1927
 7483W        W23957   0.014  13.597   3.719  0.0669  0.0049 -0.1066
 7484W        W23958   4.148  14.747  13.607  0.1131  0.1306  0.1084
 7485W        W23959  15.007  12.846  13.365 -0.1993  0.1471 -0.3033
 7486W        W23960   0.046  17.884  10.249  0.1119  0.0113 -0.1092
 7487W        W23961   9.761  18.421   4.851  0.3394  0.1558  0.2647
 7488W        W23962   2.864   1.545   3.271 -0.1584 -0.1324  0.3112
 7489W        W23963   5.801  18.691  12.058  0.2904  0.1259 -0.2547
 7490W        W23964   0.637  11.052  12.552 -0.0245  0.2126  0.2005
 7491W        W23965  14.502  11.449   0.116 -0.0883 -0.1065  0.3551
 7492W        W23966   4.810   8.528  11.673  0.5242  0.1829 -0.1240
 7493W        W23967   4.343   4.300  14.689  0.1865  0.0487 -0.0478
 7494W        W23968   6.229  19.334  10.076  0.1274 -0.1125 -0.1978
 7495W        W23969  19.341   0.885  13.764  0.2216  0.0740 -0.0201
 7496W        W23970  18.066   8.912  10.707  0.3440  0.0919 -0.2130
 7497W        W23971   0.583   8.040   5.437  0.0849  0.1782 -0.0006
 7498W        W23972   1.525   5.763   0.550  0.0485  0.3567  0.1037
 7499W        W23973  18.232  16.077   4.611 -0.3916  0.0840  0.0159
 7500W        W23974   3.006   0.995   1.738 -0.3211 -0.0198 -0.1015
 7501W        W23975   1.156   6.815  13.625  0.0380 -0.2948 -0.3479
 7502W        W23976  13.284  10.659   0.970 -0.1035 -0.0738 -0.1974
 7503W        W23977   5.947   3.203  10.789  0.2278 -0.3074  0.0473
 7504W        W23978  17.390  17.884  14.585 -0.0112  0.0422  0.1136
 7505W        W23979   0.041  10.554  11.020  0.0655 -0.3919  0.1065
 7506W        W23980   2.487  15.022   1.583 -0.0127  0.2056 -0.3086
 7507W        W23981  13.273   7.816   1.007 -0.0721  0.4033  0.0122
 7508W        W23982  15.620   4.240   3.798  0.0984 -0.0730 -0.2515
 7509W        W23983   7.067   2.069  11.267  0.0046  0.0339 -0.1920
 7510W        W23984  13.680  17.133   1.151 -0.0742 -0.0220 -0.1177
 7511W        W23985   6.946  14.529  10.384 -0.2863  0.0114  0.0440
 7512W        W23986   4.029   3.632  11.173  0.0755 -0.4568 -0.1272
 7513W        W23987   6.525  17.693  12.594  0.0386 -0.2078 -0.0588
 7514W        W23988  11.931  15.876  10.359 -0.0894  0.0939 -0.0188
 7515W        W23989   1.056   2.868   5.483 -0.5602 -0.1646  0.2430
 7516W        W23990  16.450   3.702  12.176 -0.0338 -0.3401 -0.0704
 7517W        W23991  10.244   1.095  11.308 -0.0763 -0.1013  0.0716
 7518W        W23992   5.526   9.629   9.686  0.0707  0.1835  0.1824
 7519W        W23993  18.174   5.682   1.605 -0.0455  0.1450 -0.2444
 7520W        W23994  12.917   1.683  11.699 -0.0402 -0.1152  0.0654
 7521W        W23995  13.767   5.923  12.288 -0.0914 -0.1986  0.1778
 7522W        W23996   0.237  16.421  10.187 -0.1013  0.2368  0.2556
 7523W        W23997  16.760  15.883   0.366  0.2018  0.2101 -0.0861
 7524W        W23998  15.095   5.781  11.248  0.1384 -0.2687  0.3232
 7525W        W23999  13.085   1.031   2.132  0.1453 -0.0060  0.3218
 7526W        W24000   1.817  10.850   0.487 -0.1248 -0.1886  0.0420
 7527W        W24001   1.385   4.827  14.128 -0.0613  0.0455 -0.2400
 7528W        W24002  14.468  15.192   2.783  0.0174 -0.1736  0.1193
 7529W        W24003   8.845   8.436  10.575  0.2212  0.1358  0.3152
 7530W        W24004   7.338  18.465   1.739 -0.3579 -0.2205 -0.0177
 7531W        W24005   7.620   5.980   3.786  0.3601  0.0771  0.2586
 7532W        W24006  14.178  16.349  10.819 -0.1220 -0.2640  0.0054
 7533W        W24007   9.826   1.173   1.302  0.0762  0.1263  0.2322
 7534W        W24008  11.759   9.333  13.508 -0.0297  0.0463 -0.0323
 7535W        W24009   7.037  13.234  11.342  0.0711 -0.1522  0.1933
 7536W        W24010  17.536  10.909   4.259  0.1795 -0.2535 -0.2234
 7537W        W24011   4.366   4.337   4.284  0.1207 -0.2807  0.2789
 7538W        W24012  10.979   9.748  12.102  0.0554  0.1105 -0.2796
 7539W        W24013   4.007   6.516   2.769  0.1711  0.1168 -0.0489
 7540W        W24014  15.398  16.929   0.182 -0.0843  0.2287  0.0894
 7541W        W24015   3.743   6.360   1.394  0.0751  0.3065  0.1879
 7542W        W24016  13.818  12.573   4.809  0.4669  0.2686 -0.1692
 7543W        W24017   4.334  15.468   0.400  0.1664 -0.1522 -0.0227
 7544W        W24018  17.106   2.966  11.877  0.3285  0.2569 -0.3603
 7545W        W24019   6.812  16.648  12.822 -0.0348  0.2228  0.0774
 7546W        W24020   8.095  13.411   2.255  0.0347 -0.1864 -0.0461
 7547W        W24021  13.897  16.004   4.242  0.1258  0.0605 -0.0608
 7548W        W24022  13.929  15.600  12.772  0.0720 -0.0712  0.0372
 7549W        W24023   1.928   4.137   0.819  0.0291  0.1437 -0.3719
 7550W        W24024  10.436  11.703  14.008 -0.0349 -0.0405 -0.2597
 7551W        W24025   3.119  13.780   4.026  0.0136 -0.0450  0.0505
 7552W        W24026  16.308   1.802   2.863 -0.1304  0.1409 -0.3296
 7553W        W24027   4.607   1.380  10.216  0.2233 -0.2549  0.0187
 7554W        W24028  11.558  18.213  14.248  0.3949 -0.1632 -0.1740
 7555W        W24029   7.633   7.428   0.761  0.2859 -0.1524  0.0717
 7556W        W24030   2.713  11.985  11.108  0.1639 -0.1145  0.0788
 7557W        W24031  14.830   4.014   2.033 -0.0443  0.1064  0.2263
 7558W        W24032   1.945   9.309   1.755 -0.0081 -0.2941 -0.0097
 7559W        W24033  12.537  12.083  12.538 -0.2863 -0.2500  0.2781
 7560W        W24034  11.672  18.681   2.224  0.0173  0.3175  0.1524
 7561W        W24035  14.421  17.657  12.158  0.2646  0.2248 -0.3468
 7562W        W24036   0.243   8.995   0.408  0.1160 -0.1748  0.0293
 7563W        W24037  17.571   8.623  14.159  0.2798 -0.0328  0.0927
 7564W        W24038   7.235  14.900  10.600 -0.1858  0.1111  0.0693
 7565W        W24039   9.243  13.675   0.198 -0.1655  0.0873  0.1445
 7566W        W24040  18.497   0.706   4.204  0.0218 -0.2451  0.1584
 7567W        W24041   9.083   5.559   5.584  0.1848  0.4165  0.2358
 7568W        W24042   9.649   8.730  14.307 -0.1963 -0.2936  0.0684
 7569W        W24043  15.778   5.191   5.956 -0.1253  0.1753 -0.0244
 7570W        W24044   3.215  16.318   2.688 -0.0039  0.2234  0.2563
 7571W        W24045  15.655  12.185   3.525  0.2587 -0.3228  0.3994
 7572W        W24046  17.009  18.290  10.174 -0.0357  0.3968 -0.2150
 7573W        W24047   0.323  19.345  11.521 -0.0519 -0.1883 -0.1014
 7574W        W24048   9.159   5.156  11.128  0.3317 -0.0427  0.1022
 7575W        W24049  10.931  16.636   3.890 -0.0654  0.0243 -0.2188
 7576W        W24050   6.713  15.685  12.617  0.1224 -0.2433  0.0514
 7577W        W24051  12.614   4.887  12.060  0.1724 -0.0301  0.1428
 7578W        W24052   1.898   6.983  13.104  0.1205  0.1086 -0.1936
 7579W        W24053  16.973   8.623  11.028 -0.0819 -0.0455 -0.2453
 7580W        W24054   1.311   1.319   2.668 -0.2524  0.0314  0.2025
 7581W        W24055  11.075  18.764  12.474 -0.0314  0.2556  0.2596
 7582W        W24056  14.255   3.086   3.678 -0.1396 -0.0068 -0.1743
 7583W        W24057  11.963  15.150   3.224  0.1501 -0.1390  0.0694
 7584W        W24058   8.030   8.047  10.482 -0.0049  0.3167 -0.1591
 7585W        W24059   1.695   2.588  12.903 -0.1732 -0.2378  0.1198
 7586W        W24060  12.147  13.111  11.896  0.0561 -0.3337 -0.0498
 7587W        W24061   0.370  15.602   0.723  0.0257  0.2867 -0.0053
 7588W        W24062   3.591   7.345   2.896 -0.4031 -0.1404  0.0665
 7589W        W24063  17.592   3.656   2.918  0.0547  0.2498  0.3851
 7590W        W24064   0.721   7.028   3.111 -0.1167 -0.3196  0.2748
 7591W        W24065   0.262  13.831  12.624 -0.3088  0.1841  0.0573
 7592W        W24066  13.654   4.773   1.608 -0.5317  0.3092 -0.2785
 7593W        W24067   9.351   1.875   0.633 -0.0884 -0.0591 -0.0055
 7594W        W24068   0.830  15.002  11.730  0.2761 -0.0033  0.1789
 7595W        W24069   4.768  15.954   3.553 -0.0982 -0.0166 -0.1810
 7596W        W24070  15.578  12.571  11.915  0.1407  0.0334  0.3702
 7597W        W24071   7.189   2.799   4.382  0.2242  0.1560  0.0412
 7598W        W24072   6.706  14.384   2.549 -0.0543 -0.0874  0.0774
 7599W        W24073  16.037   4.477   2.813  0.1994 -0.1012 -0.0532
 7600W        W24074   9.286  12.816  13.241 -0.1281  0.0882  0.4422
 7601W        W24075  13.076   2.104   1.313 -0.0348  0.2402  0.1480
 7602W        W24076  12.918  18.408  13.095  0.1560 -0.0432 -0.1995
 7603W        W24077  16.889  17.206   3.790 -0.5207  0.0325  0.0379
 7604W        W24078  10.694  11.873   4.478 -0.1998  0.1296 -0.0467
 7605W        W24079  14.728   0.142  14.642 -0.1808 -0.3951  0.1894
 7606W        W24080  15.271  12.215  12.181  0.4209  0.0464  0.0114
 7607W        W24081   4.189  16.198   1.339  0.1353  0.1142 -0.0103
 7608W        W24082  18.037   5.430   4.398  0.0624  0.4256 -0.1729
 7609W        W24083  17.181  19.018   4.413 -0.2726  0.0941  0.2896
 7610W        W24084   3.220   4.855   5.342 -0.3801  0.3561  0.1889
 7611W        W24085  13.888  17.081   4.786  0.0132 -0.2244 -0.1078
 7612W        W24086  13.295  17.876   2.529  0.3487 -0.0216 -0.2660
 7613W        W24087   1.342  10.490  14.201 -0.0869 -0.1952  0.0172
 7614W        W24088  12.877   6.596  12.811 -0.1834  0.1205 -0.0704
 7615W        W24089  12.234   9.884   1.227 -0.2751  0.2795 -0.2267
 7616W        W24090   5.232   0.294  13.366  0.0254  0.0710 -0.3263
 7617W        W24091  14.645  16.408  11.047 -0.0210 -0.1636  0.1488
 7618W        W24092  16.879  16.666  14.494  0.0673  0.0313  0.1046
 7619W        W24093  14.636   8.011  14.471  0.0681  0.0962  0.5146
 7620W        W24094   7.782   0.183   4.244  0.0845  0.1474  0.1749
 7621W        W24095   1.669   5.710   1.058  0.3824  0.1602  0.3217
 7622W        W24096   3.913   2.358  10.723 -0.1305  0.3625 -0.0463
 7623W        W24097  15.426  12.164  11.493  0.1814 -0.0722 -0.0765
 7624W        W24098  12.889  17.478  13.456 -0.2996  0.2846 -0.1282
 7625W        W24099  17.844  18.435   0.451 -0.0490 -0.1446 -0.2391
 7626W        W24100   8.781  15.798   2.435  0.6474  0.0264  0.2355
 7627W        W24101   2.591  10.857  11.812 -0.3285  0.0120  0.5819
 7628W        W24102   7.444  18.899   0.761 -0.0205  0.1161  0.2524
 7629W        W24103  19.191  16.240   0.230 -0.1615  0.2524 -0.1518
 7630W        W24104   1.114   8.022   3.399  0.0994 -0.2686  0.1172
 7631W        W24105   3.906   7.811  14.522 -0.1247 -0.1724  0.1484
 7632W        W24106  14.494  17.280   0.366 -0.0117  0.0486  0.0827
 7633W        W24107  15.193   5.087   2.634  0.3374  0.1605  0.0481
 7634W        W24108  14.408   5.381  10.900  0.0405  0.1718 -0.1282
 7635W        W24109   3.442  13.491   4.365 -0.1058  0.3954  0.0671
 7636W        W24110   2.338   6.066  10.977 -0.0610  0.0027 -0.2192
 7637W        W24111   6.248  19.060   3.684  0.1827  0.2676  0.0157
 7638W        W24112   3.708  10.453  10.888  0.1703  0.0500 -0.1113
 7639W        W24113  15.190  16.011   1.860 -0.3005  0.0846 -0.0410
 7640W        W24114  14.106   3.442   1.538 -0.1898 -0.2202 -0.1462
 7641W        W24115  13.547  12.235  12.765 -0.2264  0.2246  0.1182
 7642W        W24116   2.115   3.882  14.220  0.0642 -0.2483  0.0589
 7643W        W24117  16.145  10.561  10.604  0.5862 -0.1293  0.0873
 7644W        W24118   8.564   3.873   1.858 -0.0461  0.1037  0.2166
 7645W        W24119   3.013   8.225   0.536 -0.2660  0.1010  0.0340
 7646W        W24120  10.894   9.630   0.916  0.0371 -0.2906 -0.3127
 7647W        W24121   1.915  17.311   0.690  0.0644  0.3119 -0.3005
 7648W        W24122   8.680  13.111  11.779 -0.0293 -0.0949 -0.2510
 7649W        W24123   6.326   5.849  10.741  0.0588  0.0201 -0.0479
 7650W        W24124  11.391  13.490  14.117 -0.1845  0.0031 -0.0961
 7651W        W24125  15.664   7.777  12.499 -0.2616 -0.3487  0.1733
 7652W        W24126  16.605  15.331   3.826  0.1271  0.3187  0.0940
 7653W        W24127  10.092  12.964   0.055 -0.0128 -0.0412 -0.3115
 7654W        W24128   8.601  19.514   4.135 -0.3690  0.1816  0.3565
 7655W        W24129   7.027  17.953   3.069 -0.0377 -0.2283  0.1737
 7656W        W24130  18.005  10.643  12.736 -0.1905  0.3551 -0.0316
 7657W        W24131  12.809   4.898   2.066 -0.0021  0.0659  0.1434
 7658W        W24132   2.864  18.370   4.633  0.0891 -0.2089  0.0586
 7659W        W24133  11.454  11.804   0.543 -0.3893 -0.0567 -0.3910
 7660W        W24134   9.373  11.403   3.098  0.2794  0.1625  0.1067
 7661W        W24135  17.605  13.789  10.466 -0.3635  0.0244  0.1124
 7662W        W24136  11.961  10.583  13.179  0.1358  0.0882 -0.2182
 7663W        W24137   7.215  11.744   1.647  0.0869  0.0955  0.4603
 7664W        W24138   8.005  18.919  14.395 -0.0609  0.1625 -0.0195
 7665W        W24139  16.338  11.948   4.123 -0.0674 -0.0418 -0.0094
 7666W        W24140  10.685   9.576  14.690  0.0367  0.1043 -0.0664
 7667W        W24141  16.443   0.833  13.887 -0.1139  0.3611 -0.0905
 7668W        W24142   9.817   7.007   0.768  0.0679 -0.2824 -0.1147
 7669W        W24143  10.097   9.158   0.686  0.0315 -0.1606 -0.5458
 7670W        W24144   9.402  13.174  14.063 -0.4393  0.0700  0.1678
 7671W        W24145  10.622   3.611  13.105  0.1813 -0.2035  0.3089
 7672W        W24146  12.399   5.896  10.832 -0.1967  0.2376  0.0667
 7673W        W24147  10.913   7.311   5.188 -0.2387 -0.2017 -0.1311
 7674W        W24148  16.534  10.037   4.012  0.0738 -0.2028  0.0095
 7675W        W24149   1.185   8.709  14.682 -0.1459 -0.0468  0.1006
 7676W        W24150  14.872  17.694  10.508  0.0481 -0.0899 -0.1764
 7677W        W24151   6.286   5.656   1.007 -0.1226 -0.2828  0.0611
 7678W        W24152  18.193  19.067  11.117 -0.0105  0.1367  0.1199
 7679W        W24153  18.109   9.653  14.419  0.2127 -0.1041  0.0767
 7680W        W24154  16.972   5.364  13.986 -0.0335 -0.3856  0.0731
 7681W        W24155  17.038   3.154   3.649  0.0245  0.0386  0.0027
 7682W        W24156  10.873   9.123  10.833  0.1657 -0.0652  0.0591
 7683W        W24157  14.216   2.353  14.230  0.0025  0.0827  0.1070
 7684W        W24158  16.366  14.998  14.655  0.0613 -0.1738 -0.1346
 7685W        W24159   0.127  12.874   1.208  0.1655 -0.2681 -0.1914
 7686W        W24160   4.020   3.410   1.290  0.2997  0.0354  0.1663
 7687W        W24161  16.207  10.797   2.883 -0.0774  0.1692  0.1491
 7688W        W24162  19.011   7.331  11.032  0.1255  0.0393  0.0428
 7689W        W24163   1.959  19.265   0.077 -0.1598  0.0197 -0.1484
 7690W        W24164   3.999   6.656   3.851  0.0393 -0.2384 -0.2724
 7691W        W24165  19.214   8.956   2.884 -0.0700  0.2183 -0.0321
 7692W        W24166  15.366   8.530  13.829 -0.0056 -0.1200 -0.0084
 7693W        W24167   6.731  16.059  10.979  0.0012 -0.2913 -0.1032
 7694W        W24168  18.280  16.639   4.515 -0.0393 -0.2058  0.0522
 7695W        W24169  19.164  13.552   4.395 -0.3555  0.1284 -0.1172
 7696W        W24170  10.358   2.581   1.360  0.1089 -0.0174  0.1467
 7697W        W24171   7.419   7.119  11.428 -0.1392 -0.1647  0.1702
 7698W        W24172  17.272   1.476   0.766 -0.0965  0.1241  0.0488
 7699W        W24173   6.255   4.996  14.688 -0.3712 -0.2974 -0.1937
 7700W        W24174   6.500   7.767   3.473 -0.4350  0.1726 -0.1789
 7701W        W24175   8.190   2.218  12.334  0.1591 -0.3090  0.2004
 7702W        W24176  18.188  18.491  10.756 -0.2542 -0.2003  0.2280
 7703W        W24177  16.011  12.156   3.167  0.2098 -0.1438  0.1370
 7704W        W24178   6.818   1.926   9.752 -0.1861  0.0291 -0.0802
 7705W        W24179   4.319  11.332   1.385 -0.1534 -0.1248  0.0519
 7706W        W24180  13.055   7.935  10.897  0.6021  0.0004  0.1657
 7707W        W24181  13.699   2.803   3.837  0.1179 -0.3323 -0.1823
 7708W        W24182  13.655  12.028  14.246  0.0727  0.3275 -0.1764
 7709W        W24183   2.117  18.289   3.801 -0.4239 -0.2081  0.1932
 7710W        W24184   9.811  12.829   4.295 -0.0913 -0.1177 -0.2773
 7711W        W24185   8.415  16.084  14.394  0.0975  0.1198 -0.2764
 7712W        W24186   1.267  14.102   0.763  0.1027 -0.1983 -0.1580
 7713W        W24187  11.145  14.144   2.600  0.3242 -0.1611  0.0412
 7714W        W24188  16.620  15.620  10.916 -0.0765  0.0760 -0.0281
 7715W        W24189   3.458   4.615   2.331  0.1288 -0.0409  0.1131
 7716W        W24190  16.137  17.130  12.640 -0.0847 -0.0513  0.0239
 7717W        W24191   9.889   9.432   2.825  0.0009 -0.1100 -0.0017
 7718W        W24192   9.551  13.561   0.566 -0.0800  0.5916  0.0280
 7719W        W24193   4.399   3.680  10.275  0.0714 -0.3964  0.0072
 7720W        W24194   6.640   4.458   3.636 -0.1409  0.0428  0.1684
 7721W        W24195   3.398   6.474  13.254 -0.1507  0.3161  0.1963
 7722W        W24196  14.843  16.522  10.085  0.0251 -0.0345 -0.1012
 7723W        W24197  15.511   4.645   4.085 -0.1466  0.3100 -0.0132
 7724W        W24198   7.244  10.031   0.620 -0.0853  0.1202 -0.0245
 7725W        W24199  13.512   5.860  12.705 -0.3203  0.2067  0.1664
 7726W        W24200  17.327   6.279  14.264  0.0258 -0.0424  0.1308
 7727W        W24201  10.254   3.244   4.881 -0.0379 -0.2082  0.0765
 7728W        W24202  15.284  10.787   1.980 -0.0679  0.2187 -0.0150
 7729W        W24203   7.764   8.726   4.155  0.2782  0.1922  0.0267
 7730W        W24204   1.339  12.980   3.529  0.0950  0.0320  0.0148
 7731W        W24205  17.923  16.860   4.764  0.0066 -0.0213 -0.2650
 7732W        W24206  15.544   6.436  13.266 -0.3019 -0.1886  0.3008
 7733W        W24207  10.676  13.727  14.612 -0.2287  0.2540  0.0910
 7734W        W24208  17.734   3.511   0.495 -0.2275  0.1729 -0.4185
 7735W        W24209   8.707   1.064  12.567  0.0613 -0.1600  0.1138
 7736W        W24210   9.919   7.744   2.932  0.0038  0.0557 -0.2983
 7737W        W24211   1.908  15.715  10.394 -0.0075 -0.2127  0.0896
 7738W        W24212   2.605  14.099   1.044  0.0109 -0.0053 -0.1396
 7739W        W24213  17.309   3.311  14.601  0.1075 -0.0182 -0.1358
 7740W        W24214   8.838   1.815  14.171  0.1742  0.1061 -0.0479
 7741W        W24215  16.803  19.200  11.453 -0.1782 -0.0736 -0.0754
 7742W        W24216   4.215  13.986   3.486 -0.2035  0.2661 -0.0513
 7743W        W24217   1.480  16.522  14.705  0.1611 -0.2030 -0.2281
 7744W        W24218   1.803  15.165  13.245 -0.1616  0.1094 -0.0523
 7745W        W24219  14.312   9.942   0.428 -0.1816  0.1756  0.0265
 7746W        W24220   0.668   3.029   2.441  0.1814 -0.1120 -0.2682
 7747W        W24221   3.520   0.521   0.430  0.1088 -0.3866  0.0845
 7748W        W24222  15.967  19.566   4.385  0.0729  0.2256  0.0532
 7749W        W24223  12.741   6.144   1.214 -0.0385  0.2064 -0.3096
 7750W        W24224  17.447  16.744  11.610  0.0975  0.1022 -0.2257
 7751W        W24225  17.568   3.187  11.872 -0.1773 -0.1620 -0.1650
 7752W        W24226  13.106   8.802  14.281 -0.1656 -0.1877  0.0452
 7753W        W24227  11.448  11.395   4.839  0.3069  0.0758 -0.1772
 7754W        W24228  10.503  14.322  12.278  0.1941 -0.1467 -0.2279
 7755W        W24229   7.532   3.687  12.133 -0.0381  0.0660  0.2434
 7756W        W24230   9.328  18.355  13.654  0.2416  0.1605  0.0431
 7757W        W24231  12.585  15.752   4.167 -0.2058  0.1564  0.3084
 7758W        W24232  15.421  13.574  13.628 -0.3406 -0.1817  0.2171
 7759W        W24233   0.156   6.238   2.912 -0.1868  0.2832 -0.1245
 7760W        W24234   3.915   2.332  12.532  0.2070  0.0039  0.0069
 7761W        W24235  18.578  18.825  10.904 -0.0928 -0.1158  0.2034
 7762W        W24236  13.628   8.826   3.412 -0.0566  0.1554 -0.2246
 7763W        W24237   2.792  12.899   2.878  0.1976  0.2461  0.0855
 7764W        W24238   5.781   2.046   2.604  0.2148 -0.2022  0.2846
 7765W        W24239  14.213  19.549  10.914  0.3457 -0.1309  0.0769
 7766W        W24240   1.193   6.219  11.524 -0.3069  0.0216 -0.3021
 7767W        W24241  18.852   1.765  14.659 -0.0766  0.0357 -0.3071
 7768W        W24242   4.511  14.017  12.512 -0.1093 -0.0620 -0.3006
 7769W        W24243  12.097  13.879  12.554 -0.2370  0.0500 -0.0127
 7770W        W24244  15.426   6.291   3.463 -0.0024 -0.1009 -0.1140
 7771W        W24245   0.255   9.980  14.033  0.1188 -0.1559 -0.1874
 7772W        W24246  12.913  13.273  12.858  0.1217  0.1566  0.3483
 7773W        W24247   2.296  19.379   5.119  0.1914  0.4317  0.1597
 7774W        W24248  14.441  16.883   1.869  0.3860  0.1385  0.0530
 7775W        W24249  16.419   1.665  10.629  0.0920  0.0441 -0.1117
 7776W        W24250   8.033   5.413   3.216 -0.1951 -0.0877  0.0304
 7777W        W24251   8.020  18.951   3.769  0.1922 -0.3759 -0.2364
 7778W        W24252   8.128   4.107  13.172  0.1456  0.2044  0.1155
 7779W        W24253  13.524   2.699   0.678 -0.1359 -0.0827  0.1002
 7780W        W24254  14.322   3.304  11.154 -0.3153  0.0376 -0.0516
 7781W        W24255  13.806   8.345  11.554 -0.1576 -0.0457 -0.3019
 7782W        W24256  12.855   9.083   4.521  0.0542  0.0224  0.1639
 7783W        W24257   5.505   8.413   2.806 -0.1449  0.1800 -0.0917
 7784W        W24258   7.208   3.319   3.210  0.0722  0.0522  0.0958
 7785W        W24259   2.437  14.895  13.291  0.0239 -0.1417 -0.0348
 7786W        W24260  12.358  13.860   0.227  0.0528 -0.2119  0.3321
 7787W        W24261   1.613  17.065   2.688  0.1949 -0.3405  0.1138
 7788W        W24262   9.296   4.546  11.584  0.1872 -0.1480  0.3284
 7789W        W24263   4.486   7.205  10.605 -0.2611 -0.0917  0.0779
 7790W        W24264  14.810  15.309  14.171 -0.3471  0.1281 -0.0042
 7791W        W24265  19.063   4.310  11.312  0.1836  0.0446  0.0426
 7792W        W24266  12.787  11.394  12.012  0.1120  0.0156  0.1390
 7793W        W24267  13.111   4.970  12.090  0.1569  0.0868 -0.0154
 7794W        W24268  10.481  14.708  11.753  0.1171  0.2785 -0.0281
 7795W        W24269  12.933   3.708  12.748 -0.2153  0.1222 -0.0386
 7796W        W24270   0.514   3.049   3.046 -0.2505  0.4420 -0.0844
 7797W        W24271   2.323   9.774  13.116 -0.0785  0.0093 -0.0190
 7798W        W24272  14.789   2.434   1.959 -0.2664 -0.0035  0.6537
 7799W        W24273   2.934   1.682  14.337  0.1537  0.0015 -0.2003
 7800W        W24274  18.891  13.220   1.796 -0.3080 -0.0051 -0.1200
 7801W        W24275  15.098   8.339   4.902 -0.3075 -0.1318  0.1440
 7802W        W24276  10.894  16.834  12.559 -0.3349 -0.1985 -0.0678
 7803W        W24277   8.726   0.877   3.222  0.0739 -0.0669  0.1540
 7804W        W24278  13.103   3.109  10.720  0.0863 -0.2704  0.2036
 7805W        W24279   6.227   7.004  14.056  0.0888 -0.2183 -0.2485
 7806W        W24280  16.053  17.593   2.797 -0.0389  0.0106 -0.2004
 7807W        W24281   8.243   2.560  11.867 -0.0252  0.1948 -0.0187
 7808W        W24282   9.959  16.266   4.631 -0.1553  0.3158 -0.0266
 7809W        W24283   9.576   7.458   0.025 -0.1275 -0.1358 -0.3818
 7810W        W24284   3.551   2.726   3.685  0.0382  0.2674  0.2613
 7811W        W24285   0.410  13.283  10.477 -0.0556  0.4398  0.0465
 7812W        W24286   3.488  15.313  11.262  0.3598  0.2566  0.0626
 7813W        W24287  17.856  15.017  13.594  0.6740  0.0093 -0.1457
 7814W        W24288   2.383   3.567  13.890 -0.1252 -0.0247  0.2423
 7815W        W24289   8.478  10.106   5.396 -0.1300 -0.1064 -0.2394
 7816W        W24290   6.497  15.764  10.550 -0.1393 -0.0630 -0.2264
 7817W        W24291   2.913   7.891   4.625  0.1887  0.0932 -0.0332
 7818W        W24292   9.948  13.024  12.375 -0.0352 -0.0119  0.1198
 7819W        W24293  11.913   8.522   0.782  0.1951  0.0698 -0.0620
 7820W        W24294  12.621   0.250   3.589 -0.1999  0.1400  0.1331
 7821W        W24295  15.560   5.324   5.493 -0.1947 -0.1026 -0.0830
 7822W        W24296  12.612   1.813  14.699 -0.1760  0.1929  0.1408
 7823W        W24297  13.326  13.091   0.861  0.0413  0.0116 -0.2625
 7824W        W24298   4.296  12.355  13.866  0.2323  0.0882 -0.2924
 7825W        W24299  17.536  18.183   1.652  0.0254  0.2185 -0.0387
 7826W        W24300  15.337   5.009  12.156  0.1704 -0.0890 -0.0179
 7827W        W24301  13.912   2.738   2.108  0.0952  0.0422 -0.1697
 7828W        W24302  13.842   9.808  11.721  0.0525 -0.0766 -0.3335
 7829W        W24303   9.994  19.086  14.185 -0.1778  0.0987  0.0090
 7830W        W24304   5.680  18.754  13.351 -0.1276 -0.3694  0.0178
 7831W        W24305  12.322   8.038  12.509 -0.2673 -0.2511 -0.2070
 7832W        W24306   5.379  18.461  14.466  0.0350 -0.1688 -0.2475
 7833W        W24307   9.510  12.183   9.337 -0.0637 -0.3218 -0.1210
 7834W        W24308   0.222  15.042   0.705 -0.2119 -0.1445  0.2580
 7835W        W24309   8.634  11.811  12.022 -0.0177  0.1765  0.0728
 7836W        W24310  14.580   2.625   4.481  0.1717 -0.1193 -0.0473
 7837W        W24311  13.440   6.809  12.740  0.2484 -0.1219  0.0385
 7838W        W24312  14.369  17.519   2.620 -0.0298 -0.3288  0.0779
 7839W        W24313  18.508   3.972   5.200  0.1184  0.0493 -0.0150
 7840W        W24314   3.811   3.843   4.896 -0.0811  0.1844 -0.2006
 7841W        W24315  15.049  15.132   1.679 -0.1516  0.2882 -0.1484
 7842W        W24316  16.123   6.956  11.726 -0.0464 -0.0202  0.0056
 7843W        W24317  13.719   4.612  10.227 -0.1937 -0.0768  0.1565
 7844W        W24318  13.481   5.240   1.706  0.4570 -0.0392 -0.1349
 7845W        W24319   5.606  11.366  11.231  0.0128 -0.0569  0.2252
 7846W        W24320  11.165  16.018   4.072  0.0810  0.1172 -0.2048
 7847W        W24321  11.026   2.037  11.374  0.3350 -0.0026  0.2163
 7848W        W24322   5.428  10.441   1.066 -0.1077  0.0410  0.0778
 7849W        W24323   1.928   3.862  11.043  0.2054 -0.5582 -0.1326
 7850W        W24324   5.532  15.219  13.681  0.0716 -0.0544  0.0616
 7851W        W24325  16.501   4.187   4.744 -0.0392  0.1980 -0.3303
 7852W        W24326   2.882  16.336  11.660 -0.0348  0.0813 -0.0438
 7853W        W24327  11.235  12.183   3.710 -0.1628  0.0293  0.1476
 7854W        W24328  17.737  11.282   3.158 -0.2681 -0.5000  0.1221
 7855W        W24329  16.846   0.383  12.267  0.1935  0.1886 -0.1939
 7856W        W24330  10.733   4.222  11.301 -0.0662  0.1423 -0.2170
 7857W        W24331  19.545   3.196  12.097 -0.1912  0.3937  0.1213
 7858W        W24332  11.109  18.776   9.878 -0.0880  0.0745  0.1590
 7859W        W24333   9.824  11.086   3.784  0.1895 -0.2963  0.0172
 7860W        W24334  19.190  12.704   2.837  0.0100  0.0471  0.1781
 7861W        W24335   7.752   4.227  11.678  0.0101  0.3692 -0.0552
 7862W        W24336  17.926   2.193  11.242 -0.0273  0.1229  0.0177
 7863W        W24337   9.173   4.176  14.640 -0.0683 -0.0930 -0.0624
 7864W        W24338   3.182  13.383  12.673 -0.1087 -0.3362 -0.2093
 7865W        W24339   2.222  13.797   3.200 -0.1912  0.1467 -0.0413
 7866W        W24340  13.435   0.824  10.690  0.0044  0.0469  0.1135
 7867W        W24341  16.875   3.159  14.655 -0.2417 -0.1600  0.2490
 7868W        W24342   8.904  13.997   2.064 -0.2135 -0.1337 -0.0408
 7869W        W24343   5.755  13.293  12.512  0.1026  0.0402 -0.1540
 7870W        W24344   0.669   9.363   1.941  0.1623 -0.1976 -0.2986
 7871W        W24345  10.197  10.714  10.484 -0.1740  0.0743  0.4388
 7872W        W24346   4.003   4.678  12.443  0.2929 -0.4660 -0.2835
 7873W        W24347   0.862  10.440  11.464  0.0971  0.3255 -0.1745
 7874W        W24348   8.412  11.269   0.116  0.2354  0.0170 -0.1745
 7875W        W24349  12.865  12.453  11.159 -0.0551  0.2386  0.0199
 7876W        W24350  17.057   1.467  14.270  0.4026 -0.2785 -0.3518
 7877W        W24351   6.810   5.311  10.683 -0.1272 -0.2021 -0.0444
 7878W        W24352  12.291  17.686  11.719 -0.0751 -0.0112 -0.0156
 7879W        W24353  12.286  11.834  13.400  0.3458 -0.0120  0.0987
 7880W        W24354   5.762  17.472   1.408  0.2121 -0.0986 -0.1070
 7881W        W24355  11.248  14.915  11.402  0.0543 -0.3986  0.1463
 7882W        W24356   5.940   7.841  11.204  0.1114 -0.0446  0.0595
 7883W        W24357  11.416   8.003   3.127  0.0723 -0.1309 -0.0817
 7884W        W24358   7.182   7.904  12.042 -0.1394 -0.4005 -0.0189
 7885W        W24359   0.292   6.328  11.327 -0.4678  0.3504  0.1471
 7886W        W24360   7.013  11.272   1.422 -0.0032  0.0494  0.2440
 7887W        W24361   5.359  19.445  13.131 -0.3305 -0.4003 -0.1714
 7888W        W24362   9.275   5.022   1.137 -0.1543  0.0062  0.3102
 7889W        W24363  13.651   4.358   0.668 -0.2697  0.1785  0.0652
 7890W        W24364   6.352  10.628   4.547 -0.2137  0.0492  0.2308
 7891W        W24365   2.341  18.096  13.007  0.1273  0.0405 -0.2537
 7892W        W24366  19.129  15.231   0.032  0.1181  0.4896 -0.0920
 7893W        W24367   4.815   5.119   0.015 -0.2208 -0.0535 -0.1069
 7894W        W24368  18.564   0.696  11.902  0.0586  0.1624 -0.0998
 7895W        W24369   1.234   7.892   0.969 -0.3597  0.2913  0.1375
 7896W        W24370   0.478   3.931   2.144  0.3786 -0.0223 -0.3441
 7897W        W24371   5.127   9.136   2.093 -0.1451 -0.0320 -0.2956
 7898W        W24372  14.834  11.333  11.128  0.1656 -0.1617 -0.0160
 7899W        W24373  10.135   3.858  11.064 -0.3361 -0.1021 -0.2577
 7900W        W24374  11.177   0.520  11.880  0.3648 -0.0554  0.0180
 7901W        W24375   7.651  19.015   1.294 -0.0271  0.3648 -0.1545
 7902W        W24376  10.593   2.298   0.477 -0.1381 -0.0917 -0.0993
 7903W        W24377   4.306   3.025   2.264 -0.2277 -0.1091  0.0833
 7904W        W24378  18.694   8.590   3.267 -0.1318  0.2889  0.2865
 7905W        W24379   4.805  14.925   9.666  0.2523  0.0720 -0.0421
 7906W        W24380  18.521   3.389  10.156  0.3171 -0.4692  0.1619
 7907W        W24381   2.287   0.244   0.558 -0.0209 -0.1858 -0.2666
 7908W        W24382  19.346   7.212   2.436  0.0689  0.1300 -0.1996
 7909W        W24383  11.100   3.768  10.944 -0.0370 -0.2683  0.0984
 7910W        W24384  16.286   3.620  13.893 -0.0090  0.1536  0.1104
 7911W        W24385   7.435  10.263  11.000  0.2686  0.0140  0.3223
 7912W        W24386   1.259  14.469   4.027  0.1839 -0.3035  0.2004
 7913W        W24387   1.979   3.654   4.198  0.0664 -0.1449  0.1648
 7914W        W24388   2.669  15.229   2.957  0.2522 -0.2127  0.0548
 7915W        W24389  17.254   1.206   9.539 -0.1265  0.0902  0.0502
 7916W        W24390   1.362   2.336   2.027  0.0245  0.0671  0.1541
 7917W        W24391   3.333  14.665  12.673  0.4092  0.0523  0.2207
 7918W        W24392  10.213  10.920  13.826 -0.1360  0.2487 -0.2900
 7919W        W24393   3.217  12.787  13.236  0.1514 -0.2735 -0.0791
 7920W        W24394   6.470   8.500   4.273  0.2223  0.0701  0.1918
 7921W        W24395   5.774  17.701  11.480  0.0941 -0.1308  0.1623
 7922W        W24396   3.665  15.569  12.295  0.0792  0.1809 -0.3326
 7923W        W24397   5.918  13.009   1.153 -0.3372 -0.2580 -0.1730
 7924W        W24398   7.191  13.498   9.776 -0.0725  0.1523  0.1733
 7925W        W24399   6.617  19.080   4.528  0.1729  0.1405 -0.0350
 7926W        W24400   9.123  14.919  10.474 -0.0485  0.1131 -0.0942
 7927W        W24401   2.858   4.170  13.203  0.2152 -0.1337 -0.2296
 7928W        W24402   6.024  15.456   1.102 -0.1276  0.2911 -0.0658
 7929W        W24403  13.664  17.096   1.867  0.1903 -0.0005  0.2128
 7930W        W24404   6.887   9.058   2.843  0.2268 -0.1516  0.0176
 7931W        W24405   0.394   2.166   3.716  0.0489 -0.0755 -0.3609
 7932W        W24406   2.841  10.377  13.286 -0.0109 -0.2964  0.4545
 7933W        W24407   2.685  14.819   1.029 -0.1105  0.2028  0.0765
 7934W        W24408  16.494  15.121  12.426  0.1059  0.1339 -0.2088
 7935W        W24409  14.506  13.613   3.102  0.1343  0.3205  0.1482
 7936W        W24410  11.796  18.138   5.357  0.0286 -0.2153 -0.0363
 7937W        W24411   5.760  13.253   4.656  0.0557 -0.1466  0.3481
 7938W        W24412  11.425  16.337   4.404 -0.2758  0.2750  0.0462
 7939W        W24413   9.631   1.340  12.612 -0.0975  0.0737 -0.2263
 7940W        W24414   5.569  10.557  10.101 -0.0832 -0.2978  0.0968
 7941W        W24415  10.005  14.275   9.418 -0.1296 -0.1193  0.1043
 7942W        W24416  15.776   5.084   1.184  0.1303  0.4231  0.5206
 7943W        W24417  18.128   7.622  13.081  0.1808 -0.1259 -0.0841
 7944W        W24418  13.169  14.328   2.391 -0.0931  0.1934  0.2173
 7945W        W24419  11.130  14.147  12.361 -0.4565 -0.1416  0.2018
 7946W        W24420  11.679   6.440   1.668  0.1463 -0.2399  0.0990
 7947W        W24421   9.292   4.091   1.059 -0.2965 -0.3398 -0.1365
 7948W        W24422  11.071  19.049   4.196  0.4358 -0.0907 -0.2256
 7949W        W24423  18.545   3.316   9.621  0.0502 -0.0623 -0.1622
 7950W        W24424   3.770   4.231   0.048 -0.3304  0.0515 -0.0763
 7951W        W24425   3.935   1.609   0.861 -0.3572  0.0934  0.1586
 7952W        W24426   9.177   8.115  12.567  0.0774 -0.0209  0.0738
 7953W        W24427  14.231  15.601   1.539  0.1631 -0.0265  0.0057
 7954W        W24428  18.333   3.355  11.429  0.0470 -0.1771  0.3255
 7955W        W24429   5.053  12.191  14.400 -0.2897  0.1500  0.3912
 7956W        W24430   1.328   8.555  11.012 -0.0148 -0.0951  0.2551
 7957W        W24431  12.941  12.566   3.094  0.1847  0.0558  0.1463
 7958W        W24432  10.025  12.870   9.613  0.2083 -0.0507 -0.1191
 7959W        W24433   4.445   0.468  13.864 -0.0102 -0.1883  0.0501
 7960W        W24434  17.258  16.808  13.271 -0.3261 -0.0748  0.3703
 7961W        W24435   3.229   5.044  10.748  0.1353  0.1821  0.0991
 7962W        W24436   5.059  15.203  12.184 -0.4412 -0.0611  0.1392
 7963W        W24437  14.466  16.095  14.285 -0.2605 -0.0904 -0.0880
 7964W        W24438  17.052   1.639  10.349 -0.0303 -0.2003 -0.0712
 7965W        W24439  16.427   3.197   3.658  0.0052  0.2683  0.0339
 7966W        W24440  15.023  11.288   0.226 -0.1101 -0.1630 -0.1159
 7967W        W24441   2.682  14.236   0.308  0.0628 -0.3200  0.2632
 7968W        W24442   4.029  17.327   3.325 -0.2197  0.0057 -0.1214
 7969W        W24443   1.963  16.155   3.916  0.1098  0.2309 -0.1870
 7970W        W24444   7.416   9.979  14.526  0.2198 -0.0370  0.2612
 7971W        W24445   4.759  14.857  12.774 -0.0697 -0.2172  0.0436
 7972W        W24446  18.513   7.921  12.752  0.1887 -0.1618 -0.1478
 7973W        W24447   3.805  17.696   3.069 -0.0824 -0.3800  0.1137
 7974W        W24448   6.468   9.249   2.089  0.2564 -0.2620 -0.0689
 7975W        W24449  18.003   4.436   9.468 -0.2784  0.4107  0.0833
 7976W        W24450   2.012   8.884   2.456  0.3194  0.1491  0.1190
 7977W        W24451   9.598  13.350  11.990  0.0005 -0.3932  0.1071
 7978W        W24452   5.133   0.625  12.753  0.0641 -0.1427  0.0252
 7979W        W24453   2.290   2.538  13.275 -0.1083  0.2426 -0.2515
 7980W        W24454  17.633   8.816   4.203 -0.2551 -0.0710 -0.0936
 7981W        W24455  18.669  16.344   5.459  0.1635  0.0906  0.1925
 7982W        W24456  10.383  11.426   2.186  0.0487  0.1898 -0.1639
 7983W        W24457   9.518  12.002   1.577  0.2121  0.4122 -0.1407
 7984W        W24458   8.010  17.652   3.255 -0.1478 -0.0559 -0.0285
 7985W        W24459   0.215  13.775  14.041  0.0436  0.0206 -0.0449
 7986W        W24460  17.166  15.778  10.118  0.1819 -0.0070 -0.1576
 7987W        W24461  13.696  12.215   2.921  0.1503 -0.0444  0.1010
 7988W        W24462  17.357  16.843   4.484 -0.0393  0.2276  0.2701
 7989W        W24463   6.917   4.564   0.678 -0.1077 -0.3408 -0.1347
 7990W        W24464  13.298   4.137  14.200 -0.0105  0.0621 -0.3686
 7991W        W24465  11.659   2.198  13.062  0.0842  0.3015 -0.1127
 7992W        W24466  13.680  11.736   0.656 -0.2708  0.0047  0.1565
 7993W        W24467   6.918  16.182  10.517 -0.0339 -0.6020 -0.1056
 7994W        W24468  11.431  15.118   3.184  0.0005 -0.0976  0.7893
 7995W        W24469  15.193   0.927  12.430 -0.0998  0.2370  0.1336
 7996W        W24470   7.317   4.139  11.329 -0.3555 -0.2500  0.3825
 7997W        W24471  15.097  18.553  13.700  0.1119  0.0208  0.1985
 7998W        W24472   9.940  10.543  14.060  0.2626 -0.0932 -0.1406
 7999W        W24473   5.612   7.845  13.667  0.0005 -0.4331 -0.0318
 8000W        W24474   0.110  17.269   4.163  0.1297  0.1514  0.2086
 8001W        W24475  11.072   1.212  14.010 -0.0465  0.1512 -0.0237
 8002W        W24476   6.432   6.739  12.773  0.0509  0.2593  0.0482
 8003W        W24477   2.589  16.781  11.095 -0.0837  0.2309 -0.2252
 8004W        W24478   6.977   4.775  10.825 -0.3277  0.6614 -0.0689
 8005W        W24479  18.503  11.897  14.241  0.1411  0.1591  0.1067
 8006W        W24480   1.345  17.891   0.013  0.2576  0.1127 -0.1503
 8007W        W24481  13.835   1.383   1.882  0.1070  0.2996  0.0989
 8008W        W24482  10.627   9.841  11.241 -0.4500 -0.0570 -0.1982
 8009W        W24483   9.601  11.861  11.915 -0.2585 -0.0012  0.0784
 8010W        W24484  12.736   4.792   2.630  0.2790  0.3400 -0.2654
 8011W        W24485   9.476   9.968   1.226 -0.3287 -0.2335 -0.3632
 8012W        W24486  11.654  17.052   3.049  0.0608 -0.0690 -0.1128
 8013W        W24487   1.097   0.203   2.997  0.0208  0.1000  0.0323
 8014W        W24488   9.496  19.485  10.613 -0.1766 -0.0103  0.1706
 8015W        W24489   0.850   2.510  12.959 -0.0089 -0.3441 -0.2909
 8016W        W24490   8.693   7.184   3.511  0.0556  0.0110 -0.3885
 8017W        W24491   7.928   0.972   1.152  0.1097  0.0946 -0.2634
 8018W        W24492  10.566  13.140  11.625  0.0997  0.0746 -0.1449
 8019W        W24493  15.046  14.159   0.885  0.0313 -0.1210 -0.1500
 8020W        W24494   4.340  12.633   0.346  0.1868  0.1494 -0.1730
 8021W        W24495   1.507   1.902   0.974  0.1714 -0.1657  0.2616
 8022W        W24496   7.281  14.841  12.784  0.2823  0.1573  0.0274
 8023W        W24497  10.634  10.330  13.341 -0.1067  0.0198  0.0981
 8024W        W24498   2.241  13.413  13.033  0.4387 -0.1381  0.2293
 8025W        W24499  14.644  14.678   0.272 -0.0298  0.2871  0.0131
 8026W        W24500   8.509   5.815  10.752  0.0192 -0.3931 -0.1918
 8027W        W24501   9.562  17.016   0.065 -0.2781 -0.0458 -0.0279
 8028W        W24502  12.038  14.659  11.209 -0.1601  0.1235 -0.0222
 8029W        W24503  10.180  16.270  13.455 -0.1627 -0.0431 -0.0956
 8030W        W24504  19.470  16.248   2.311  0.1772  0.0468 -0.1584
 8031W        W24505  19.288   3.266  14.071  0.0102  0.4279 -0.0099
 8032W        W24506  17.178   9.380  10.930 -0.0269  0.1605 -0.2003
 8033W        W24507   6.173  13.999   1.418  0.2116 -0.3153 -0.0242
 8034W        W24508   7.859  12.758   1.337  0.1822 -0.2090 -0.0550
 8035W        W24509   9.903   7.021  14.581  0.0121 -0.1378  0.2086
 8036W        W24510  14.159  14.837   2.702  0.3059 -0.0189  0.2753
 8037W        W24511   5.302   3.401  13.869  0.0503  0.1025 -0.2543
 8038W        W24512  19.235   0.591   3.001  0.3649 -0.1213  0.1199
 8039W        W24513   6.374  12.747  12.402  0.2004  0.2919  0.1138
 8040W        W24514   0.967  15.978  11.903 -0.0597 -0.2117 -0.0956
 8041W        W24515  19.331   6.376   3.768  0.2226 -0.1230  0.2334
 8042W        W24516  10.005   8.512  11.166  0.2202  0.0049 -0.3360
 8043W        W24517  16.730   2.483   4.350  0.3144  0.1258  0.1815
 8044W        W24518  14.057   9.954   1.752 -0.1949  0.2083 -0.1845
 8045W        W24519  11.642   2.798  11.144  0.1409  0.0015  0.3939
 8046W        W24520  15.821  10.502   3.823  0.7447 -0.1747  0.1304
 8047W        W24521   4.264   1.288  13.142 -0.2010  0.6040 -0.0748
 8048W        W24522   6.825   7.583   4.358  0.1600  0.0401  0.0836
 8049W        W24523   5.734   8.781  11.612 -0.0299  0.0522  0.0604
 8050W        W24524   3.449  18.402   3.545  0.0021  0.0013 -0.0818
 8051W        W24525   3.236  10.217   2.374  0.1344  0.1617 -0.1940
 8052W        W24526   8.128  18.492   1.428 -0.0564  0.2401 -0.4282
 8053W        W24527  13.968  15.197  13.789 -0.1730  0.0529 -0.0045
 8054W        W24528  17.546  17.539  14.215  0.0862 -0.0111 -0.1433
 8055W        W24529   5.352  13.956   4.077  0.1560 -0.0135 -0.0477
 8056W        W24530   0.800   4.895   4.097 -0.3141  0.0601  0.2230
 8057W        W24531   2.609   7.198  10.114 -0.0437 -0.0192 -0.0619
 8058W        W24532  10.575  14.436   4.953 -0.2810  0.0429  0.2846
 8059W        W24533  18.234  11.161   3.066 -0.3142  0.0712 -0.1292
 8060W        W24534   4.359   0.449   4.008 -0.1368 -0.2443 -0.0630
 8061W        W24535   5.522   0.557  11.653  0.0815 -0.2975 -0.2585
 8062W        W24536  12.345   9.763   4.043  0.1584 -0.0146  0.2831
 8063W        W24537   3.748   7.363  12.546 -0.0249 -0.2818  0.4574
 8064W        W24538   2.261   2.526  14.109 -0.0809  0.0580 -0.1002
 8065W        W24539  16.469  12.659  12.237 -0.0818  0.0517 -0.1229
 8066W        W24540   5.378  17.051   3.846  0.2792 -0.0077  0.0700
 8067W        W24541   2.030  18.738  13.594 -0.1576 -0.1013 -0.0193
 8068W        W24542  13.784  19.562  10.598  0.1749  0.0984  0.0661
 8069W        W24543   4.289  12.129  10.757 -0.1709  0.2102  0.3363
 8070W        W24544  13.903  10.918   5.618  0.0393 -0.2140  0.2310
 8071W        W24545   6.134  11.075  13.336 -0.0212 -0.1918 -0.1141
 8072W        W24546  14.476   0.761  10.808  0.2087 -0.3325  0.0973
 8073W        W24547  10.108  16.835   1.915  0.2971 -0.1133 -0.2923
 8074W        W24548  12.088   7.543  11.150  0.0488 -0.1084  0.0828
 8075W        W24549   7.793  18.067   1.434  0.2723  0.0621 -0.1569
 8076W        W24550   1.933   7.540   9.623  0.0118 -0.1590  0.0083
 8077W        W24551  12.375  18.329   1.059  0.1582 -0.0169  0.0223
 8078W        W24552   4.450   5.338  11.522  0.3578  0.1471  0.4825
 8079W        W24553  17.429  19.347   5.499 -0.2340  0.4129 -0.1831
 8080W        W24554  17.821   3.641   3.386 -0.0199 -0.1187 -0.2348
 8081W        W24555   1.329  11.470  14.606 -0.2261  0.1537 -0.1421
 8082W        W24556   2.804   0.101   9.471  0.2149  0.1002 -0.1475
 8083W        W24557  12.819   7.994  14.278 -0.4019  0.1515  0.0903
 8084W        W24558   3.598   4.784   4.241 -0.0443  0.1324 -0.4418
 8085W        W24559   0.792  18.042  14.315 -0.1836  0.0424 -0.0528
 8086W        W24560  16.671  15.486  12.702  0.2612 -0.1236  0.3108
 8087W        W24561  15.374  12.665   2.275  0.0230  0.1817  0.2901
 8088W        W24562   9.764  14.044   0.671  0.1442  0.0825 -0.0984
 8089W        W24563  15.202   4.095   2.470  0.1606  0.1683 -0.2571
 8090W        W24564   3.233  12.331   3.688  0.4373 -0.0885  0.2840
 8091W        W24565  14.813   6.658  13.986 -0.1086  0.0226 -0.1106
 8092W        W24566   3.287  16.152  10.773  0.0710  0.1036 -0.3381
 8093W        W24567   8.261  13.729  12.093 -0.0044 -0.2911 -0.0641
 8094W        W24568   1.252   5.255  13.858 -0.1387 -0.1454  0.4311
 8095W        W24569   6.973  12.837  12.315  0.0305  0.0859 -0.2136
 8096W        W24570   7.746  12.205  13.668  0.1594 -0.3402  0.2995
 8097W        W24571  11.257   3.357  10.737 -0.1091 -0.2246 -0.2213
 8098W        W24572  14.972  10.919  11.364  0.0028 -0.0125 -0.1482
 8099W        W24573   4.258   3.242   2.856  0.2122  0.2744  0.0528
 8100W        W24574  19.036   4.729  14.221  0.0323  0.0275 -0.1399
 8101W        W24575  11.273  12.235  13.035  0.0818 -0.1926  0.2251
 8102W        W24576   4.646   9.974  10.682 -0.1131  0.3047 -0.0966
 8103W        W24577  16.700  16.382  12.998 -0.0599 -0.0471  0.1191
 8104W        W24578   7.893   2.993  14.393  0.2616  0.1514  0.0923
 8105W        W24579   4.440  12.825  13.992  0.0297  0.2792 -0.1412
 8106W        W24580   0.531   3.021  13.719 -0.3917 -0.0954 -0.0069
 8107W        W24581  16.288  13.388  13.315 -0.1264 -0.3983  0.2569
 8108W        W24582   9.028   7.420  10.300 -0.1740  0.0207 -0.3243
 8109W        W24583   7.882   6.949   2.954  0.1138 -0.2561 -0.0609
 8110W        W24584  18.395  13.804  14.444  0.1432 -0.1676 -0.1560
 8111W        W24585   0.312   4.945   0.580  0.4634 -0.1518  0.1268
 8112W        W24586   3.465  11.088   0.302  0.2597  0.0424  0.1346
 8113W        W24587   4.430  10.250  11.483 -0.2975 -0.3458  0.2992
 8114W        W24588   4.513   6.576  12.830 -0.1206 -0.1361 -0.2226
 8115W        W24589  10.561  15.280  10.453  0.1572 -0.2001 -0.0798
 8116W        W24590  16.678  18.749   3.414  0.0740 -0.1513  0.0676
 8117W        W24591   6.904  15.997  14.250  0.1287  0.1998 -0.1678
 8118W        W24592  18.870  14.419   0.691 -0.0464 -0.0955 -0.2644
 8119W        W24593  17.201  14.841   2.039 -0.2879  0.0556  0.2045
 8120W        W24594   4.482   9.827  11.161 -0.0260 -0.3045 -0.0369
 8121W        W24595   0.829  16.488  10.661  0.1299 -0.0535 -0.3458
 8122W        W24596  18.948  13.925  12.667  0.0149  0.1418 -0.0482
 8123W        W24597  17.806  16.578   3.025 -0.0383 -0.2462 -0.3125
 8124W        W24598   3.474   6.786  11.621 -0.0213  0.1493 -0.1856
 8125W        W24599  15.602   7.979  14.626  0.1482  0.0890 -0.1538
 8126W        W24600   8.582  18.042  14.363 -0.1794 -0.3947  0.1713
 8127W        W24601  12.609   1.512  10.127  0.0170  0.0580  0.0927
 8128W        W24602   6.308  11.746  10.801  0.3187 -0.1968  0.0984
 8129W        W24603  17.306   4.437   2.543 -0.0134 -0.1917 -0.3368
 8130W        W24604  14.566  15.998   1.720  0.4566  0.1207  0.4507
 8131W        W24605   7.839  11.640   3.116  0.2921 -0.3400  0.2239
 8132W        W24606  16.498   2.082  14.674  0.3654 -0.1720  0.3209
 8133W        W24607   5.048   7.770  14.428 -0.4831  0.0434  0.0002
 8134W        W24608   6.192   3.354  11.358 -0.5203  0.0611  0.0292
 8135W        W24609   4.056  19.159   2.083 -0.0075  0.0060  0.3744
 8136W        W24610   0.787  10.956  11.601 -0.1464  0.0594  0.4120
 8137W        W24611  17.081   3.508  11.838 -0.0418  0.1504  0.1342
 8138W        W24612   9.847  15.571   9.723 -0.1272  0.1947  0.0240
 8139W        W24613  18.456  18.806   4.788  0.5728  0.1386 -0.1536
 8140W        W24614  18.480   6.940  14.719 -0.3031  0.1737  0.2783
 8141W        W24615  13.850   9.972   3.492 -0.2252  0.0645  0.1620
 8142W        W24616   8.436   6.590  14.465 -0.2528 -0.0803  0.0553
 8143W        W24617   8.561   1.020  14.498  0.2031 -0.0043  0.2299
 8144W        W24618  13.827  18.897   9.969  0.2016  0.1343 -0.0162
 8145W        W24619   2.560   6.091   0.182  0.0582  0.0888  0.1415
 8146W        W24620   5.536  14.093  10.312 -0.0748  0.0579 -0.0924
 8147W        W24621   9.212  19.061   9.860 -0.2703 -0.1174  0.2958
 8148W        W24622   7.135  17.130  10.187 -0.2877 -0.0573 -0.0630
 8149W        W24623   8.799   4.111   0.355 -0.0812  0.0514 -0.1709
 8150W        W24624   7.564  14.425   0.936 -0.1993  0.1009  0.0229
 8151W        W24625  17.459  10.826   3.237 -0.0200  0.0620 -0.1789
 8152W        W24626   5.987  10.186  11.672  0.1484  0.0578 -0.0938
 8153W        W24627   4.461  12.807  12.556  0.3828 -0.0149  0.0976
 8154W        W24628  19.073  17.609  11.095 -0.5212 -0.0469  0.2739
 8155W        W24629  11.790   4.186   3.179  0.1645  0.0625  0.1730
 8156W        W24630  18.681  17.211   3.994 -0.2213 -0.1418  0.0570
 8157W        W24631  16.623   3.787   9.480  0.0697 -0.2658 -0.1173
 8158W        W24632  18.991  18.066   4.906  0.1020  0.2015 -0.2093
 8159W        W24633  19.417  18.256  11.168 -0.1857  0.1086  0.2414
 8160W        W24634  12.993  13.092   3.182  0.2119 -0.0316  0.0036
 8161W        W24635  15.692   1.802   1.857 -0.0475 -0.1376  0.0932
 8162W        W24636  18.379  14.575   0.406  0.3306  0.0345  0.1792
 8163W        W24637  14.984   5.741   5.090  0.1860  0.2156  0.0882
 8164W        W24638   5.783  15.255   3.885 -0.0488  0.2543  0.0791
 8165W        W24639  14.841   2.464  14.095 -0.2186  0.1806 -0.0676
 8166W        W24640  11.444   1.704   4.444 -0.0324 -0.0084 -0.2648
 8167W        W24641   6.265  17.645   0.076  0.1638  0.0860 -0.0467
 8168W        W24642  14.678   3.312   2.190 -0.1075 -0.2703 -0.0508
 8169W        W24643  16.400  14.250  10.282  0.1531  0.3210  0.0101
 8170W        W24644  13.644  14.470   3.132  0.1635  0.0501  0.2780
 8171W        W24645   6.735   0.077  14.397  0.1630  0.3148 -0.3187
 8172W        W24646   8.688  11.229   1.515  0.0776 -0.3743  0.0534
 8173W        W24647   3.069  14.758   2.906  0.0750 -0.2520  0.0382
 8174W        W24648   7.591  12.453   4.161  0.1394 -0.1039 -0.1668
 8175W        W24649   9.580   7.048   5.850 -0.0467 -0.0858  0.0612
 8176W        W24650   6.751   4.214  11.112 -0.4489 -0.0490 -0.1386
 8177W        W24651   9.656  18.986   2.236 -0.2882 -0.0185  0.1159
 8178W        W24652   8.460  15.278   5.297  0.2156 -0.0326 -0.2376
 8179W        W24653  13.871   0.928  14.281  0.2275  0.1891 -0.1476
 8180W        W24654   0.795  10.293   2.399 -0.0541 -0.2376 -0.2551
 8181W        W24655   0.106   0.218   2.152 -0.0807 -0.1138 -0.2668
 8182W        W24656  13.108  16.758   4.963 -0.2058 -0.1537  0.1083
 8183W        W24657   7.933   4.738  14.266 -0.2944 -0.2354 -0.1770
 8184W        W24658  14.133   4.621  11.935  0.2612  0.1665 -0.0995
 8185W        W24659  17.036   5.838   4.393  0.0396  0.1013 -0.1831
 8186W        W24660   9.007   5.868   0.494 -0.0327  0.1984 -0.0049
 8187W        W24661  13.547  10.540  13.051  0.0900 -0.2375  0.0280
 8188W        W24662  16.888  17.559   5.638  0.1578 -0.1511  0.3411
 8189W        W24663  15.242   7.088   2.600 -0.2088  0.0505 -0.1290
 8190W        W24664   8.636  10.443  14.255  0.0026  0.1059  0.0738
 8191W        W24665  16.262  17.587   9.115  0.0146  0.4480 -0.0486
 8192W        W24666  18.500   2.834   3.764  0.1446 -0.0713  0.0593
 8193W        W24667   2.783   4.078  10.896 -0.1868  0.0223  0.1884
 8194W        W24668   3.798  19.563   1.815  0.0898  0.1686 -0.0747
 8195W        W24669  18.003   6.950   9.510  0.1189  0.2436  0.2812
 8196W        W24670   8.217   8.341  11.050  0.0535 -0.1729 -0.1471
 8197W        W24671  12.214  17.504  10.875  0.0258  0.0657  0.3374
 8198W        W24672  16.840   8.890   0.533 -0.3027  0.1232  0.1611
 8199W        W24673   6.345   1.980  13.126  0.1270 -0.1077  0.2465
 8200W        W24674   2.232   6.775  14.620 -0.5503 -0.2524 -0.2825
 8201W        W24675  13.626   6.938   3.688  0.2162  0.2234 -0.1266
 8202W        W24676   3.019   5.585  11.474 -0.0574 -0.0280 -0.1148
 8203W        W24677   9.374   9.238  11.580 -0.3385 -0.1811  0.0902
 8204W        W24678   8.933   0.174  11.194 -0.2036 -0.1090 -0.0750
 8205W        W24679   9.747   6.174   0.215  0.1843 -0.0899  0.0807
 8206W        W24680  15.792  10.383   2.257  0.0610  0.0141  0.0176
 8207W        W24681  13.052  12.430   0.197 -0.2011 -0.1184  0.1555
 8208W        W24682  15.285   8.727  12.236 -0.0596  0.0444  0.2994
 8209W        W24683   7.865   4.750  10.513 -0.1202  0.0392  0.0638
 8210W        W24684  18.892  10.461   5.012  0.0698  0.3325  0.0659
 8211W        W24685  15.392  13.862   3.491 -0.2320  0.2728 -0.1297
 8212W        W24686  16.074   0.456   4.617 -0.2067 -0.0358 -0.0830
 8213W        W24687   9.653  15.485  10.263 -0.0715  0.1734  0.1166
 8214W        W24688   9.593  13.931   2.027  0.2645 -0.3050  0.0427
 8215W        W24689  11.691   8.454   1.756  0.0514 -0.2657  0.1471
 8216W        W24690  10.514  12.237   4.855  0.0698  0.0773  0.1028
 8217W        W24691   5.669  13.031   2.191  0.0764 -0.0641  0.2774
 8218W        W24692   6.002   6.370   4.627  0.0835 -0.0753 -0.1336
 8219W        W24693   7.241   6.676   0.847 -0.0635 -0.0146  0.0748
 8220W        W24694   0.602   5.130   4.921 -0.2630 -0.2210  0.1839
 8221W        W24695   0.217   8.571  11.575 -0.4093 -0.0300 -0.0508
 8222W        W24696   3.729  12.737   1.086  0.1365 -0.1543 -0.4690
 8223W        W24697   6.521   3.483   1.576  0.2123 -0.1335 -0.0494
 8224W        W24698   4.934  11.776  14.105 -0.1798  0.0294  0.0211
 8225W        W24699   8.067   2.159   3.635  0.0039 -0.1225 -0.2869
 8226W        W24700   9.957  16.130   0.071  0.0763 -0.0639 -0.0630
 8227W        W24701  14.165   5.580   3.148  0.0890 -0.6280 -0.1385
 8228W        W24702   3.724   1.763   1.882  0.1797 -0.0675 -0.0291
 8229W        W24703  16.352   4.810   0.488  0.1255 -0.2728  0.0126
 8230W        W24704   9.175  13.770   9.714  0.2057 -0.1991 -0.0649
 8231W        W24705  18.921  18.399  13.144 -0.1934 -0.4791  0.0235
 8232W        W24706   3.028  12.183   2.806  0.0188 -0.0841  0.0354
 8233W        W24707  15.458  13.194   3.592 -0.1552  0.1131 -0.0171
 8234W        W24708  12.137  11.597   2.892 -0.0620 -0.3815 -0.1372
 8235W        W24709   7.695  11.831   1.562 -0.1977 -0.1474 -0.2429
 8236W        W24710   2.228  16.214  14.273  0.1884 -0.2289 -0.2079
 8237W        W24711  11.891   2.089   1.311  0.0275  0.1524  0.3353
 8238W        W24712  12.456   9.919   3.176 -0.2220 -0.1186  0.1244
 8239W        W24713  14.989   7.585  11.380  0.0602  0.2001 -0.1382
 8240W        W24714  10.166   1.388   2.980  0.0424 -0.1486 -0.2511
 8241W        W24715  17.335  11.106   0.195  0.0100 -0.2073  0.0834
 8242W        W24716   4.011   6.530  13.001  0.2357 -0.0285 -0.1953
 8243W        W24717   9.350   9.691   0.186  0.3373 -0.1784  0.1344
 8244W        W24718   7.164   1.719  14.415 -0.1351 -0.5333 -0.0362
 8245W        W24719  17.397   1.269   1.259  0.2169  0.1687  0.2303
 8246W        W24720  13.140   9.667  13.354 -0.1576 -0.0280  0.1205
 8247W        W24721   6.185  19.479   0.740 -0.1445  0.0236 -0.2849
 8248W        W24722  17.185   8.203   0.203 -0.2679 -0.0915  0.2174
 8249W        W24723   8.283  18.978   1.379  0.0557 -0.0103  0.0289
 8250W        W24724   1.920  15.345   2.277  0.1544 -0.2393  0.2810
 8251W        W24725  15.098   0.048   2.872  0.4031 -0.0549  0.1475
 8252W        W24726   0.761   9.650  14.129 -0.1389 -0.2458 -0.0161
 8253W        W24727  16.470  14.144   3.430  0.0073  0.0298 -0.0325
 8254W        W24728   0.915   0.033   9.748  0.2248  0.0132  0.3094
 8255W        W24729   2.304  16.775   9.583 -0.0849  0.1758 -0.1516
 8256W        W24730   8.563   8.867   2.843  0.0590  0.0144  0.3512
 8257W        W24731   5.373  17.409  10.561  0.3092  0.0287  0.1337
 8258W        W24732  14.966   6.525   3.275 -0.0973 -0.1906  0.1674
 8259W        W24733  16.315   6.589  12.022 -0.2442 -0.4133 -0.5543
 8260W        W24734  14.274  15.008  10.433 -0.1382 -0.4037 -0.1246
 8261W        W24735  15.048   4.114   4.534 -0.0696  0.0302  0.0721
 8262W        W24736   8.118  10.498   1.378  0.0665  0.4252  0.0401
 8263W        W24737   0.608  16.732   1.006  0.0279 -0.0248  0.0263
 8264W        W24738   5.939   4.303   1.818  0.3446 -0.3083 -0.1633
 8265W        W24739   8.996  14.689  13.491 -0.1500 -0.0785  0.1629
 8266W        W24740   7.924   2.729  12.291 -0.0287 -0.1435  0.0237
 8267W        W24741   0.461   6.008  14.574 -0.2631 -0.0826 -0.1617
 8268W        W24742  18.773  10.032  13.392  0.2050 -0.0956 -0.1588
 8269W        W24743   3.850   7.917   4.748 -0.2327 -0.1296 -0.1550
 8270W        W24744   1.655   9.194   9.577  0.1421 -0.7480  0.1535
 8271W        W24745   8.842   1.378  12.915 -0.0624  0.1991  0.0573
 8272W        W24746  13.356  13.428  13.976 -0.0828  0.1989 -0.2449
 8273W        W24747  15.063  19.272  12.969 -0.0198  0.3410 -0.3724
 8274W        W24748   2.090  17.699  12.777  0.0771  0.1164 -0.0114
 8275W        W24749  14.609   5.395   3.698  0.0861  0.2955 -0.2264
 8276W        W24750   2.012   6.582   4.785  0.1757 -0.0641 -0.2204
 8277W        W24751   6.238  15.126   1.739 -0.3001 -0.0921  0.0321
 8278W        W24752   9.840  14.475   4.281 -0.0498  0.0534 -0.2476
 8279W        W24753   6.294  10.091   2.248 -0.7656 -0.1000  0.1197
 8280W        W24754  14.512   5.852   3.412 -0.1308 -0.1458 -0.2621
 8281W        W24755   5.773   3.124   3.724 -0.0806  0.1561  0.0444
 8282W        W24756   8.489  10.701  12.529 -0.0820  0.1391  0.0887
 8283W        W24757  15.670   9.153   3.182 -0.1627 -0.0421  0.2581
 8284W        W24758   0.824   2.447  13.678  0.2163 -0.4511 -0.0568
 8285W        W24759  18.918  10.058  12.870 -0.0068 -0.0202 -0.3940
 8286W        W24760  19.206   0.890   4.354 -0.1890  0.1687 -0.2830
 8287W        W24761  11.305  12.950   3.060 -0.0301 -0.0928 -0.3052
 8288W        W24762   2.215   7.679  11.582 -0.3057  0.2249 -0.1643
 8289W        W24763  15.381  18.194   4.695 -0.0720  0.0587  0.0283
 8290W        W24764   2.808   4.763  12.461 -0.2630 -0.3976 -0.0491
 8291W        W24765   0.813  16.084  10.982 -0.1369  0.0785 -0.0239
 8292W        W24766  14.735  12.973  12.436 -0.1502 -0.2734  0.0999
 8293W        W24767  12.006   2.204  13.779 -0.5339 -0.1941 -0.1032
 8294W        W24768   9.073   4.520   4.535  0.1419  0.1763  0.1343
 8295W        W24769   3.524   1.414  10.215  0.0097 -0.0277  0.0227
 8296W        W24770  16.533  11.381   2.804 -0.1679 -0.0582  0.2210
 8297W        W24771   3.773  12.779   1.800  0.4686 -0.0361 -0.0361
 8298W        W24772  10.513   6.597   4.211  0.1364 -0.2183 -0.0197
 8299W        W24773   4.703   2.989   4.609  0.0393 -0.1256 -0.1476
 8300W        W24774  17.502   1.817  11.251  0.0302  0.1178 -0.0993
 8301W        W24775  12.346   9.672   0.230  0.1521  0.0848 -0.1454
 8302W        W24776  14.846   8.393   5.305  0.0601  0.0059  0.0969
 8303W        W24777   6.309  13.751   0.894 -0.0874  0.0794 -0.0282
 8304W        W24778   9.821  18.669  13.913 -0.1627 -0.1021  0.2329
 8305W        W24779  12.140   8.399   1.561 -0.3108  0.1502  0.3392
 8306W        W24780  13.111  11.230   2.606  0.1011  0.0124 -0.0834
 8307W        W24781  18.877   7.349  13.352 -0.4110 -0.1234 -0.0672
 8308W        W24782  13.713  19.350   5.124  0.0359  0.0773  0.0350
 8309W        W24783   8.339  13.089   0.642  0.0155  0.2838 -0.1886
 8310W        W24784   6.785   0.315  10.049  0.0010  0.1374  0.1294
 8311W        W24785   0.400  17.790  12.044  0.3989 -0.2234  0.1729
 8312W        W24786  10.442  17.583   2.662 -0.0191  0.2698 -0.1926
 8313W        W24787  14.288   8.396  11.670  0.0752  0.2519 -0.1727
 8314W        W24788  19.253   4.960   1.035  0.0052 -0.0570 -0.0422
 8315W        W24789   1.873   2.502  12.347  0.0284  0.1533  0.1728
 8316W        W24790  14.520   6.397   3.411 -0.1274 -0.1131  0.2328
 8317W        W24791   2.656  19.038   9.298 -0.3613 -0.2066 -0.0944
 8318W        W24792   7.697  19.400  14.263 -0.1800  0.1847 -0.0318
 8319W        W24793   4.236  14.434   0.280  0.0457  0.1199  0.0260
 8320W        W24794   6.069   6.738   5.807  0.2148 -0.0064 -0.1284
 8321W        W24795   0.050   5.057   4.497 -0.0088  0.1642  0.1213
 8322W        W24796   7.245  10.220   2.209 -0.2465 -0.0518  0.1187
 8323W        W24797  14.003  17.861  13.390  0.3423 -0.0207 -0.2693
 8324W        W24798  18.759  16.186   1.606 -0.1363  0.3344  0.4493
 8325W        W24799   7.983  13.690   4.151  0.0679 -0.2016  0.1838
 8326W        W24800   0.963  15.041  12.232 -0.0876 -0.0198  0.1076
 8327W        W24801  16.558   0.829  10.088  0.2047 -0.2936  0.0864
 8328W        W24802   9.258  12.673   1.660 -0.1995  0.3693 -0.1227
 8329W        W24803  19.508   2.793   1.459  0.1136 -0.2534  0.1443
 8330W        W24804   8.974  13.433   1.437 -0.0285 -0.1383  0.4168
 8331W        W24805  11.315   3.357   2.189 -0.1841 -0.0499 -0.0275
 8332W        W24806  18.264   7.203  11.688 -0.1597  0.3162 -0.1703
 8333W        W24807  19.303  14.394   1.605  0.3199 -0.3128  0.1691
 8334W        W24808  16.215  13.520   1.221 -0.2866 -0.2446  0.2280
 8335W        W24809  18.975  18.432   4.566  0.0138  0.0679 -0.3509
 8336W        W24810  17.331   8.127  13.418 -0.3347  0.0993  0.1172
 8337W        W24811   5.191   4.694   3.878  0.0901  0.0083 -0.2541
 8338W        W24812  17.363  10.363  10.513  0.1376  0.1905  0.0188
 8339W        W24813  14.442  12.863  11.930 -0.3274  0.0473  0.5525
 8340W        W24814   2.655  15.511  10.348 -0.1109 -0.0053 -0.1458
 8341W        W24815   7.083  12.385   3.202  0.1856 -0.0215 -0.1199
 8342W        W24816   2.950  12.323  14.138  0.4842  0.1199 -0.1114
 8343W        W24817  10.622  16.692   1.792 -0.3947  0.1744 -0.2077
 8344W        W24818   7.700  12.326  11.185 -0.1197  0.1365 -0.0466
 8345W        W24819  15.598   6.999   5.146  0.1219 -0.1020  0.1311
 8346W        W24820  10.635  13.082   2.174 -0.2762 -0.3813  0.1567
 8347W        W24821  12.889   7.105  12.683  0.0617  0.1645 -0.2030
 8348W        W24822  16.212   6.046  11.787  0.1568  0.2887 -0.1320
 8349W        W24823   4.635   8.773  13.977  0.0681  0.1857  0.0830
 8350W        W24824   6.075   3.937  11.893  0.0294 -0.2146 -0.0354
 8351W        W24825  15.412   8.510   0.871 -0.2456  0.0255 -0.3132
 8352W        W24826  19.572   3.655   1.385  0.0530  0.1962  0.1560
 8353W        W24827   0.288  11.096  12.183 -0.0825  0.1005 -0.0899
 8354W        W24828   4.172  17.359  11.557  0.0521  0.3414  0.1798
 8355W        W24829   7.040  12.304   1.289 -0.1183  0.1174 -0.0063
 8356W        W24830   1.509   5.007   3.745 -0.1709 -0.5355  0.0808
 8357W        W24831  16.305  19.019  12.586  0.0451 -0.2881 -0.0481
 8358W        W24832  13.305  10.510  10.768 -0.0590  0.1101  0.0104
 8359W        W24833   5.831   7.399  10.303  0.0890  0.1903 -0.0780
 8360W        W24834   9.147  14.554  13.923 -0.1050  0.5540 -0.0380
 8361W        W24835  16.834   2.563  14.608  0.2201  0.1713  0.1466
 8362W        W24836  12.894  15.083   3.355  0.3281  0.1242 -0.4778
 8363W        W24837  12.000  13.224   1.709 -0.2510 -0.0874  0.0355
 8364W        W24838  16.139   4.577  11.745 -0.0072 -0.0889 -0.0192
 8365W        W24839  12.260   4.469   2.609 -0.0006  0.2364  0.0256
 8366W        W24840  15.736   5.570   1.117 -0.1696  0.3234  0.0642
 8367W        W24841  18.432  15.520   0.590  0.2630  0.0817 -0.0533
 8368W        W24842   7.369   3.185   2.375  0.1507 -0.0970 -0.1305
 8369W        W24843  10.094  17.292  13.223  0.1836  0.1593  0.2177
 8370W        W24844  13.536  15.594   9.862  0.0332 -0.0385  0.0893
 8371W        W24845   8.188   0.043   2.072 -0.0110  0.3521 -0.1226
 8372W        W24846  14.281  14.404   0.439  0.0722 -0.0181 -0.1567
 8373W        W24847  13.119   4.641  14.343 -0.2269 -0.1538  0.1017
 8374W        W24848  13.031   9.148   4.030 -0.1790  0.1014 -0.1748
 8375W        W24849   1.343  16.419   3.926  0.0479 -0.1124  0.1865
 8376W        W24850   5.603  12.080  13.721 -0.3110 -0.0905 -0.1058
 8377W        W24851  12.715  15.604  10.324 -0.0166  0.0267 -0.0869
 8378W        W24852   1.015   4.165  10.712 -0.1456 -0.3216 -0.1863
 8379W        W24853   0.809  14.234   5.056  0.0490 -0.2702 -0.2368
 8380W        W24854  12.719  10.655   4.326 -0.0649  0.0643  0.0359
 8381W        W24855  15.566  17.617   2.677  0.0266 -0.0427 -0.0621
 8382W        W24856   5.301   1.241   4.108  0.1707 -0.2844 -0.1134
 8383W        W24857  15.454  11.371   4.353 -0.1573  0.3714  0.4736
 8384W        W24858   5.242  15.010  12.688 -0.2119 -0.1841  0.1307
 8385W        W24859   7.033   2.439  14.591  0.2780 -0.3462 -0.1410
 8386W        W24860  15.713  17.234   0.352 -0.1319 -0.0659  0.3892
 8387W        W24861   0.046   2.542   4.249 -0.2273 -0.1295 -0.2684
 8388W        W24862  10.928  18.191   4.098  0.1305 -0.0855  0.2108
 8389W        W24863   6.049   1.060   0.216  0.0298 -0.0583 -0.1331
 8390W        W24864   2.618  11.050   1.570 -0.0353  0.1216  0.0296
 8391W        W24865  10.166  11.903   1.417  0.2384  0.0860 -0.1803
 8392W        W24866   5.838  15.000   1.445  0.1763  0.2398 -0.1578
 8393W        W24867   4.652  15.451   0.813  0.0508  0.0063 -0.1333
 8394W        W24868   1.529  12.827  12.663 -0.1634 -0.0966 -0.0173
 8395W        W24869  11.310   2.658  13.030  0.2428 -0.3055  0.2320
 8396W        W24870   0.575   6.047   2.659 -0.5909 -0.0621 -0.3000
 8397W        W24871   6.685   9.514   2.612  0.1364  0.0598 -0.2885
 8398W        W24872  16.393   2.201   0.413 -0.2505  0.1290 -0.4380
 8399W        W24873  17.278  10.631  10.092  0.2522  0.0323 -0.1710
 8400W        W24874   3.940   3.944  12.984  0.2399 -0.0206 -0.0492
 8401W        W24875  11.601   3.922   1.431  0.0322 -0.0102  0.0121
 8402W        W24876  15.041  13.042  11.063  0.3332 -0.2247  0.4906
 8403W        W24877  19.480   6.960  11.896 -0.0144 -0.1398 -0.4914
 8404W        W24878  17.632   0.625   3.354  0.2506 -0.1091 -0.1685
 8405W        W24879  14.583  13.136   3.405 -0.4312  0.0314  0.3859
 8406W        W24880  12.750  14.053  14.504  0.1568  0.0906 -0.0621
 8407W        W24881  16.390   6.734   1.866  0.1812 -0.0474  0.1099
 8408W        W24882  16.878  15.023  12.759  0.1662 -0.1661  0.3170
 8409W        W24883  11.107   0.820   4.364 -0.2939 -0.4565 -0.1805
 8410W        W24884   3.356   9.858   2.085 -0.0413 -0.0274  0.2690
 8411W        W24885   1.273   5.801  13.441 -0.1313 -0.1366 -0.0827
 8412W        W24886   9.998   7.518   2.095 -0.1458 -0.1609 -0.0635
 8413W        W24887   5.264   0.836  13.992  0.1120  0.0017  0.0558
 8414W        W24888   1.101  16.891  11.342  0.0023 -0.0723  0.1183
 8415W        W24889   8.618  12.568   5.297 -0.0881 -0.4356  0.4088
 8416W        W24890  12.244   9.826  14.360  0.1360  0.3011  0.1984
 8417W        W24891  13.067  19.158   2.048 -0.0587 -0.0581 -0.1126
 8418W        W24892  16.240  12.729   4.195  0.0819 -0.1315  0.3899
 8419W        W24893   7.307  11.461  13.891  0.1628 -0.1945  0.3001
 8420W        W24894   5.487   1.793  12.988 -0.0883 -0.1013  0.2950
 8421W        W24895  15.889  14.789   3.820 -0.1771  0.3130 -0.0877
 8422W        W24896  15.814   4.094   0.839  0.1293  0.0882 -0.2157
 8423W        W24897  13.493   7.508   9.708  0.0443 -0.3845 -0.0946
 8424W        W24898  18.249  12.710   2.152  0.2795  0.0760  0.2938
 8425W        W24899  18.988  15.561  11.791  0.3739  0.1023 -0.2580
 8426W        W24900  14.987  14.596   1.721  0.0825 -0.0613 -0.0393
 8427W        W24901  11.009  13.112   4.894  0.1593  0.0638  0.0120
 8428W        W24902  18.034  13.443   3.221  0.0452  0.0530 -0.0854
 8429W        W24903   9.104   0.778  11.810 -0.3456  0.0338 -0.3026
 8430W        W24904  10.894   9.514   3.795  0.0959  0.2648 -0.1837
 8431W        W24905   8.400  12.178  10.453 -0.0878  0.2382 -0.0560
 8432W        W24906   6.787  10.643   3.787 -0.1544 -0.3766 -0.2278
 8433W        W24907  17.896   9.814  11.691  0.2193 -0.1269 -0.1623
 8434W        W24908  16.811  10.365   2.203  0.1073  0.1254  0.0959
 8435W        W24909  15.829   2.280   1.345 -0.3191 -0.0653  0.2450
 8436W        W24910  11.443  15.634   0.236  0.3967 -0.2431  0.2094
 8437W        W24911   4.816  12.666   3.981 -0.1912 -0.0819 -0.0370
 8438W        W24912   7.472  15.993  13.790 -0.1090  0.2015  0.0190
 8439W        W24913  14.959  12.596  10.748  0.1009 -0.1087 -0.0647
 8440W        W24914   0.507   4.701   3.702  0.0181 -0.0756  0.1134
 8441W        W24915  17.202   6.690   2.594  0.0977  0.0838  0.4028
 8442W        W24916  15.980   5.532   5.664 -0.0128  0.1220  0.3954
 8443W        W24917   3.899  18.226   2.999 -0.0322  0.0834 -0.1807
 8444W        W24918  10.197  17.602   4.786 -0.3670 -0.2205 -0.0031
 8445W        W24919   9.223   5.870   4.162  0.1099  0.0676  0.2689
 8446W        W24920   1.427   0.978  11.307  0.0353 -0.0276 -0.0260
 8447W        W24921  15.239  15.106  10.083 -0.0476  0.1460 -0.2613
 8448W        W24922  19.287  14.426   4.187 -0.0979 -0.0404  0.2334
 8449W        W24923   7.938   8.854   2.818  0.1508  0.2824  0.0616
 8450W        W24924   3.038  18.176   1.656 -0.2270  0.0780  0.2224
 8451W        W24925  12.629  10.237   1.469  0.0461  0.0737 -0.0633
 8452W        W24926  12.445  16.668  10.863 -0.1210 -0.1562  0.1033
 8453W        W24927   4.389   7.977  11.284 -0.0841  0.1245 -0.1465
 8454W        W24928  13.542  16.869   3.032  0.0453 -0.0612  0.2411
 8455W        W24929   6.928  11.963   2.041  0.0660 -0.3345  0.0436
 8456W        W24930  15.696   0.734   4.381  0.1104  0.3631  0.1033
 8457W        W24931   1.802  18.534   1.880  0.2584 -0.2290  0.0282
 8458W        W24932   0.823   8.193  13.816  0.1044 -0.1158 -0.0319
 8459W        W24933   0.925  19.315   0.519 -0.1041  0.1438 -0.0916
 8460W        W24934   8.686   4.516   3.916  0.0438  0.1914 -0.4598
 8461W        W24935   3.999  13.940  13.697 -0.2846  0.1905  0.0647
 8462W        W24936  15.414  16.503  11.922  0.1131  0.3254 -0.2343
 8463W        W24937   8.272  14.791   1.929  0.0242  0.1553 -0.0509
 8464W        W24938   6.219  15.822   2.560 -0.2973 -0.2158 -0.2222
 8465W        W24939   3.107  11.491   0.953  0.1239  0.1152  0.2459
 8466W        W24940   8.580   1.041   5.106 -0.3151  0.1114  0.2573
 8467W        W24941   5.138   7.546   5.427 -0.0473 -0.2213  0.2352
 8468W        W24942   9.645  16.552  10.969 -0.1069 -0.1617  0.1706
 8469W        W24943  12.287   6.375   0.402 -0.1056  0.2069 -0.1395
 8470W        W24944   4.282  12.001   2.773 -0.0324  0.1691 -0.1616
 8471W        W24945   4.039  16.383   0.766  0.2596  0.0120  0.1646
 8472W        W24946   2.634  11.670  13.805 -0.1569  0.1355  0.0840
 8473W        W24947   5.878   3.252   2.733  0.0009  0.2813  0.2056
 8474W        W24948   0.805  10.855   1.392 -0.1418 -0.2473 -0.0765
 8475W        W24949   1.002   9.345   2.774  0.0015 -0.0132 -0.0855
 8476W        W24950   0.121  15.375   2.665  0.1422 -0.2288 -0.1490
 8477W        W24951   1.620   5.961   3.271 -0.1082  0.0214 -0.1160
 8478W        W24952  16.199  13.865  10.473  0.2160  0.0815 -0.0145
 8479W        W24953   5.989  12.191   1.029 -0.1722  0.0415  0.2247
 8480W        W24954  17.768   2.165   4.827  0.3420  0.2617 -0.0360
 8481W        W24955  12.492  17.538   0.102  0.1981  0.2639  0.1793
 8482W        W24956  13.928   3.975   1.605  0.0668  0.1516  0.1482
 8483W        W24957   9.117   7.992  14.084 -0.2080  0.0707  0.4893
 8484W        W24958   9.242   2.041  10.980 -0.1672 -0.0244 -0.2481
 8485W        W24959   4.982   7.464  10.874  0.2136 -0.0111 -0.1192
 8486W        W24960  11.031   5.789  13.937  0.1240  0.1892 -0.0807
 8487W        W24961  14.452   3.893   4.967 -0.0427  0.0451 -0.4661
 8488W        W24962  18.519   6.772  11.893 -0.3266  0.1380 -0.2979
 8489W        W24963   5.839   6.557   0.973  0.2797  0.0486  0.1375
 8490W        W24964   0.022   2.901   0.149  0.3190  0.1690  0.0248
 8491W        W24965  19.044  18.521  10.652  0.0068 -0.1507  0.1871
 8492W        W24966   8.746  13.315   4.367 -0.0154  0.0393 -0.0116
 8493W        W24967  16.405  16.015  13.982  0.0466  0.3275  0.2248
 8494W        W24968  14.429   3.806   1.749 -0.0805  0.1192 -0.0906
 8495W        W24969  17.856   1.231  10.182  0.2148 -0.2380 -0.1909
 8496W        W24970  12.154  14.108  10.665 -0.2633 -0.0741 -0.2820
 8497W        W24971   3.320   5.256  10.245 -0.0682 -0.2655 -0.2945
 8498W        W24972  18.712  18.038   3.677  0.0902 -0.0517  0.1706
 8499W        W24973   9.379   4.589  12.909  0.3501 -0.0561 -0.2519
 8500W        W24974  18.423   4.101  10.574  0.1136  0.0709  0.2708
 8501W        W24975   4.692  16.956  13.703  0.4549  0.0054  0.2659
 8502W        W24976  10.024   0.588  12.388  0.4435  0.1227  0.0652
 8503W        W24977   3.535   2.710   3.141  0.1575  0.0681  0.0151
 8504W        W24978  17.610   2.410   1.199 -0.0895 -0.0086  0.1895
 8505W        W24979   9.850   2.708   1.796 -0.2839  0.2208  0.0020
 8506W        W24980  10.483  14.425   2.898  0.0407  0.0319  0.0478
 8507W        W24981   2.855   3.644   0.614  0.0398 -0.0141  0.2448
 8508W        W24982  15.627   3.904   0.422 -0.0852  0.0195  0.0249
 8509W        W24983   2.376   6.160   3.877 -0.0073 -0.1704 -0.4387
 8510W        W24984   9.555  12.303  13.162  0.1596 -0.1187  0.1987
 8511W        W24985   2.814  16.238   4.625 -0.1442  0.1996 -0.4432
 8512W        W24986  14.389  16.704  10.552  0.0068  0.0147  0.0313
 8513W        W24987   4.592  14.885   1.015  0.0237 -0.0681  0.2530
 8514W        W24988  17.641   8.571   3.434  0.0621  0.0013 -0.1735
 8515W        W24989  15.501   7.079   9.972 -0.2980 -0.0276 -0.1091
 8516W        W24990   5.576  10.784   4.781 -0.1108  0.2179 -0.1205
 8517W        W24991   4.285   1.053   4.604 -0.1657 -0.1133 -0.1355
 8518W        W24992  12.851  16.086   2.486 -0.1297  0.0253  0.0927
 8519W        W24993   5.064   1.112  10.545 -0.2601 -0.1680  0.0659
 8520W        W24994   4.987  17.493   3.068  0.0502 -0.1423 -0.1412
 8521W        W24995   8.474   8.307   9.308  0.0669 -0.2014  0.0807
 8522W        W24996   2.620  11.172   4.193 -0.1496  0.1435  0.0434
 8523W        W24997  10.691   0.479  12.213 -0.2509  0.1665  0.1823
 8524W        W24998   5.662  13.738   3.724 -0.0360  0.3149  0.1015
 8525W        W24999  14.828  10.245  11.619  0.3978  0.1784  0.0022
 8526W        W25000   9.968  12.337   9.519  0.3925 -0.1570  0.3286
 8527W        W25001   7.883   9.116   4.549 -0.0888 -0.0470  0.2627
 8528W        W25002  16.946  14.806  13.343 -0.0587 -0.1453 -0.1005
 8529W        W25003   3.395  16.845   9.924  0.1346 -0.1110  0.0116
 8530W        W25004   9.706   9.111   3.649  0.4401 -0.1429 -0.1135
 8531W        W25005   2.602  15.377   1.110  0.2130  0.3614  0.2518
 8532W        W25006   9.976  18.176   0.073  0.2704 -0.3402 -0.1065
 8533W        W25007  14.863  12.500   2.191 -0.1414 -0.1134  0.0467
 8534W        W25008  12.627  18.389  11.612 -0.0144 -0.0752  0.0996
 8535W        W25009   0.855   6.111  11.976 -0.3692  0.0348 -0.1535
 8536W        W25010  15.885   7.398   0.739 -0.1029  0.0569 -0.2633
 8537W        W25011   2.366   4.695   2.582  0.0397 -0.2432  0.1404
 8538W        W25012   1.544  15.668   2.133 -0.0521  0.2293 -0.1752
 8539W        W25013   0.739   1.315  14.251  0.0225  0.0991 -0.1248
 8540W        W25014  10.524   8.004  13.673 -0.2193 -0.0768 -0.0671
 8541W        W25015   5.484   3.769   0.954 -0.0899 -0.2133  0.4463
 8542W        W25016   1.544  17.299  12.842  0.1903 -0.0686  0.2227
 8543W        W25017  16.286  13.657   4.268 -0.1262  0.0831 -0.2247
 8544W        W25018  11.423  11.104  14.492  0.0059 -0.1109 -0.3228
 8545W        W25019  17.461  13.917  12.162 -0.0857 -0.2241 -0.1363
 8546W        W25020  18.353  16.340   0.803  0.1810  0.0128 -0.1869
 8547W        W25021   4.844   6.511  12.431  0.1106  0.1257  0.0289
 8548W        W25022  10.247   7.952   3.306 -0.0656 -0.0768  0.0319
 8549W        W25023   3.331  11.974  14.236 -0.4189 -0.0881 -0.2056
 8550W        W25024  19.336  17.512  11.814  0.0047  0.0220  0.3378
 8551W        W25025   2.469   2.585   2.798 -0.2131 -0.0738 -0.0785
 8552W        W25026  17.065  14.274  13.300 -0.1627  0.0106  0.0262
 8553W        W25027  19.396  10.447   1.898  0.2534 -0.4221  0.1201
 8554W        W25028  17.839  19.388   9.131  0.0168  0.1197  0.0477
 8555W        W25029  11.108  10.165   5.450 -0.1535 -0.0218  0.0570
 8556W        W25030  17.114   8.842  11.854  0.0306 -0.1535  0.2435
 8557W        W25031  13.195   8.744   5.371 -0.1415 -0.0489  0.3511
 8558W        W25032  14.538   9.049  13.993 -0.2192 -0.0957 -0.0400
 8559W        W25033   5.122   8.748   0.312  0.1518 -0.0254 -0.2063
 8560W        W25034  17.793  19.135   1.184 -0.2117 -0.3630  0.2752
 8561W        W25035   1.017   9.518  12.340  0.1288  0.0289  0.1945
 8562W        W25036  18.241  10.405   1.381 -0.2404 -0.2224 -0.0410
 8563W        W25037   6.968   3.671  10.470  0.1621 -0.3342  0.0747
 8564W        W25038   0.593   9.360  11.061  0.2241 -0.3271 -0.1342
 8565W        W25039  10.868  10.598  13.827 -0.1155  0.0161 -0.2572
 8566W        W25040   5.050   0.141   2.693 -0.2945 -0.3438  0.0933
 8567W        W25041   4.753   3.435   0.428  0.1582  0.0852  0.1935
 8568W        W25042   9.115   2.123   5.138 -0.1195  0.0536  0.1182
 8569W        W25043   2.451   7.159   2.963  0.3360  0.1529  0.0958
 8570W        W25044  16.195   1.920   1.674 -0.0816 -0.0147 -0.0193
 8571W        W25045   2.216  16.970   0.300  0.0735 -0.1149  0.2451
 8572W        W25046  14.116   3.474  11.873  0.3147  0.0730  0.2449
 8573W        W25047  19.248  16.161   3.752 -0.0487 -0.0252  0.0153
 8574W        W25048   2.689   1.824   1.442 -0.3915  0.3400 -0.1462
 8575W        W25049  19.238  17.993   3.907  0.1975  0.1128 -0.0834
 8576W        W25050   8.976  17.065   4.396 -0.2396 -0.1381  0.1462
 8577W        W25051  13.728   7.952  12.511  0.1365 -0.0230  0.1818
 8578W        W25052  16.935   9.965   3.072  0.0383  0.0086  0.0541
 8579W        W25053   4.473   4.460  14.121 -0.2816  0.1157  0.0656
 8580W        W25054  19.071   0.920   5.432  0.0687  0.1239  0.0091
 8581W        W25055   1.833   3.978  13.004 -0.0629 -0.2114  0.4507
 8582W        W25056   0.884  11.080   3.539 -0.0149 -0.2340 -0.0154
 8583W        W25057  14.536   4.364  11.287 -0.0604  0.0186 -0.2149
 8584W        W25058   1.385   7.199   0.904  0.0024 -0.2684 -0.1387
 8585W        W25059   4.675  10.588  10.457 -0.0517  0.0122  0.2569
 8586W        W25060  13.200   0.848  14.719  0.2449 -0.0836 -0.1660
 8587W        W25061  12.075  11.420  13.780  0.3113  0.0338 -0.0922
 8588W        W25062   6.676   6.722  12.264  0.0701 -0.2198  0.1407
 8589W        W25063   1.161  16.421  11.104 -0.3128 -0.1138 -0.2285
 8590W        W25064  11.170  13.776  11.962 -0.1326  0.2436 -0.0641
 8591W        W25065  18.688  16.790  11.603 -0.1118 -0.2125 -0.1794
 8592W        W25066   2.488  14.812   0.165  0.2241  0.2800  0.0555
 8593W        W25067   6.538   4.201  10.117  0.0830  0.4388  0.0700
 8594W        W25068   1.310   0.199  14.448  0.0311  0.3325 -0.1220
 8595W        W25069   7.549   3.738  11.644  0.0640 -0.0101  0.0674
 8596W        W25070   0.697  18.062   3.409 -0.1198 -0.3551 -0.0626
 8597W        W25071  17.230   0.948  12.997  0.0416 -0.2218 -0.0684
 8598W        W25072  13.994   9.956  13.848 -0.3858 -0.2303 -0.0446
 8599W        W25073   2.126  10.682   2.827 -0.0539 -0.1965 -0.1562
 8600W        W25074   6.193  12.955  13.696 -0.1634 -0.1029 -0.0282
 8601W        W25075  15.555   0.037   0.596 -0.0318  0.0176  0.2514
 8602W        W25076   3.563   0.033  11.724  0.0345  0.1066  0.0265
 8603W        W25077   6.664   1.649  14.393 -0.3323  0.2135 -0.0305
 8604W        W25078  18.326  15.561  12.931 -0.0316 -0.0258  0.1430
 8605W        W25079  15.434   2.103   0.905 -0.0734  0.2257  0.0243
 8606W        W25080   3.234  10.194   3.004 -0.2351  0.2924 -0.2630
 8607W        W25081  16.131  11.295  12.435 -0.1790 -0.4757  0.1772
 8608W        W25082   2.953  15.217  12.646 -0.2539  0.1529 -0.1523
 8609W        W25083  18.928  14.170   1.130 -0.4034  0.1317  0.0803
 8610W        W25084  12.981   4.064  10.281  0.1595  0.0029 -0.2490
 8611W        W25085   5.304   1.525  13.505  0.2244  0.2611  0.2213
 8612W        W25086   6.622   2.765  14.516  0.2178  0.0869 -0.0289
 8613W        W25087   2.569   7.599   4.213  0.3257 -0.2457 -0.3250
 8614W        W25088  18.948   9.318   4.487  0.3511  0.2037  0.3294
 8615W        W25089   0.199  10.714   2.073  0.0007  0.2226 -0.4472
 8616W        W25090  19.229   0.525  11.184  0.0254 -0.3229 -0.0805
 8617W        W25091   7.530   9.459  12.667  0.1580  0.0365 -0.1749
 8618W        W25092   1.951  14.311   1.541  0.0649 -0.1282 -0.0711
 8619W        W25093   4.546   9.416   1.636  0.0065  0.3563  0.1310
 8620W        W25094   8.568  16.179   2.792 -0.2329  0.2153  0.0947
 8621W        W25095   6.293   2.111   0.537 -0.1202  0.0029  0.2003
 8622W        W25096  11.280   9.204  11.226  0.3573  0.1840  0.2446
 8623W        W25097  11.295   2.443   9.674  0.2718 -0.1571  0.2272
 8624W        W25098   5.033   8.217   1.197 -0.1985 -0.2459  0.0945
 8625W        W25099  11.604  14.624  14.041 -0.1165  0.1118 -0.1685
 8626W        W25100  14.317  15.633  13.740  0.0272  0.1663 -0.0370
 8627W        W25101   2.740   1.053  11.608 -0.1404  0.0140 -0.0296
 8628W        W25102   7.420  16.233  13.218  0.0457  0.2776 -0.1055
 8629W        W25103   0.470  10.808   2.886  0.2310  0.2394 -0.0381
 8630W        W25104   2.176   4.250   2.660  0.0275 -0.0929 -0.3690
 8631W        W25105   4.666   8.239  10.442  0.3303 -0.1039  0.2388
 8632W        W25106   3.523   2.576  12.336  0.1565  0.2462  0.1655
 8633W        W25107  16.670   0.652  14.302  0.0863  0.1126  0.1103
 8634W        W25108  17.253   1.046   4.229 -0.0930  0.2672  0.0249
 8635W        W25109   9.893   8.606   4.865 -0.1877 -0.3654 -0.1660
 8636W        W25110  13.266   9.890   2.848  0.2193  0.1941 -0.1194
 8637W        W25111  10.698   7.017   0.231 -0.2847 -0.6022 -0.2281
 8638W        W25112  13.773   3.492  12.311  0.2667 -0.1770 -0.2184
 8639W        W25113  16.861  14.061  11.007 -0.1875 -0.0471  0.0899
 8640W        W25114  10.639  13.215   3.152 -0.1728 -0.1702  0.0492
 8641W        W25115  15.486  12.692   3.475  0.2223 -0.0816  0.2613
 8642W        W25116   5.293  16.293  12.921 -0.0733  0.1000 -0.2636
 8643W        W25117   7.022  13.684   1.957  0.2426  0.0674  0.1712
 8644W        W25118   5.251   1.654   9.015 -0.2002 -0.1198 -0.2642
 8645W        W25119   6.815   5.193  11.332  0.1241 -0.0728 -0.1545
 8646W        W25120  17.858  12.570   4.357 -0.1459  0.2075 -0.0045
 8647W        W25121  11.514   7.700   1.645  0.0828  0.0959 -0.2411
 8648W        W25122   7.168  11.809  12.012  0.3047  0.0780  0.0174
 8649W        W25123   1.321  14.626  13.613 -0.1457  0.0157 -0.2529
 8650W        W25124   5.112  17.417   1.361 -0.0574  0.0784 -0.1680
 8651W        W25125   7.812  15.652   2.935 -0.4643  0.0767 -0.0463
 8652W        W25126   6.233  13.777  11.490  0.1503  0.0026 -0.0115
 8653W        W25127  17.573  11.335  11.932 -0.0710 -0.2279 -0.0611
 8654W        W25128   4.614  10.483   4.825  0.1719  0.2250 -0.0555
 8655W        W25129  13.531  12.052  11.753  0.1767  0.0136 -0.1594
 8656W        W25130   3.811   2.146  14.390 -0.1628 -0.1662  0.4739
 8657W        W25131  14.395   5.288  14.684  0.1001 -0.2129 -0.0948
 8658W        W25132   2.439   2.231   1.438  0.5267 -0.0760  0.1043
 8659W        W25133  10.433  15.555  12.918 -0.0278  0.2295 -0.0329
 8660W        W25134  10.664   9.936   2.433  0.2124 -0.1447 -0.2095
 8661W        W25135  16.688   6.899   0.568 -0.3146 -0.3303  0.3074
 8662W        W25136   5.729   1.025  11.882  0.1534  0.2073 -0.1505
 8663W        W25137   4.056  19.344   1.469 -0.0739 -0.0698  0.6390
 8664W        W25138   0.337   0.724  11.926 -0.2374  0.1844  0.0782
 8665W        W25139   7.099  16.187   0.161  0.2761 -0.3776 -0.0736
 8666W        W25140  18.188   0.777  10.537 -0.1767 -0.3428 -0.0455
 8667W        W25141   5.008   6.126   3.635 -0.0335 -0.2365 -0.1673
 8668W        W25142  11.450   7.412  14.535 -0.1200  0.0137  0.1537
 8669W        W25143  11.851  15.866   0.173 -0.2342 -0.0300 -0.1929
 8670W        W25144  16.853  14.580  11.695 -0.0939  0.2318 -0.3039
 8671W        W25145  18.858  10.400   5.945  0.0812 -0.0106  0.2782
 8672W        W25146  14.971  13.017   3.668 -0.0644  0.2315  0.2628
 8673W        W25147   2.092   6.886   1.924 -0.3223  0.0625 -0.1356
 8674W        W25148   1.144  13.105   1.293 -0.1283 -0.1154  0.0019
 8675W        W25149  19.149  13.629   9.974  0.1371 -0.0723 -0.1509
 8676W        W25150   2.097   2.685  10.952 -0.1178 -0.1009  0.5845
 8677W        W25151   0.543  18.877  11.797  0.2088 -0.1625 -0.0566
 8678W        W25152   8.263   3.559  13.590 -0.1013 -0.1583 -0.0762
 8679W        W25153   3.662  18.894   3.614 -0.0311  0.1117  0.0898
 8680W        W25154   1.016  14.194   2.927 -0.2422  0.1210  0.1132
 8681W        W25155   0.355  13.846  14.620  0.0436  0.3188 -0.1436
 8682W        W25156   3.779  17.222  14.296 -0.1011  0.1948  0.3524
 8683W        W25157   0.981  13.351  12.385  0.0012 -0.0913 -0.0569
 8684W        W25158   5.133   0.436  12.132 -0.0921  0.5525  0.2328
 8685W        W25159  18.772  18.570  14.145  0.0630 -0.3015  0.2248
 8686W        W25160   0.264  18.559  14.346  0.0019  0.1936 -0.1198
 8687W        W25161  14.517   4.797  12.749 -0.1879  0.1522 -0.2229
 8688W        W25162  13.619  15.009  11.379 -0.2903 -0.0090  0.3390
 8689W        W25163   9.086  12.923   0.730 -0.2250 -0.1873 -0.0830
 8690W        W25164  14.817   8.017   6.056  0.0584  0.2582 -0.3164
 8691W        W25165  16.589   6.009   4.460 -0.1900 -0.1442  0.0771
 8692W        W25166  12.451   0.852  13.764  0.4676  0.0782 -0.2812
 8693W        W25167  16.117   6.876   3.772  0.0697 -0.0199  0.1573
 8694W        W25168  16.663   0.250  11.783  0.2210 -0.0849 -0.2085
 8695W        W25169  14.887   7.883   5.105  0.4529  0.4033 -0.3481
 8696W        W25170   7.763  13.700  13.499 -0.1306  0.0032  0.2141
 8697W        W25171  13.824   6.995  12.990  0.6361  0.3054  0.0409
 8698W        W25172   1.352  13.883  11.083 -0.1418 -0.1173 -0.0161
 8699W        W25173   5.504  10.863   2.583 -0.1043  0.1199 -0.1545
 8700W        W25174   4.597  15.696  11.058  0.2603  0.1875  0.2084
 8701W        W25175  18.296  15.198  13.870 -0.1238 -0.0073 -0.2549
 8702W        W25176  11.483   2.993   2.532  0.5817 -0.0424  0.0208
 8703W        W25177  16.993   2.178   2.340 -0.2591  0.1051  0.1302
 8704W        W25178  13.270  10.528  12.128  0.0832 -0.0817  0.0242
 8705W        W25179  11.288  13.176  12.587  0.0941 -0.0217 -0.2610
 8706W        W25180   1.975  12.001   1.549 -0.0221 -0.0619 -0.1233
 8707W        W25181  18.254  11.259   1.702  0.1488  0.2953 -0.0835
 8708W        W25182  18.209  18.868   0.503  0.1935  0.2600  0.0651
 8709W        W25183   8.978   8.788   4.747 -0.0533 -0.0145 -0.1669
 8710W        W25184   4.695   7.697   5.272 -0.0306  0.2555  0.0592
 8711W        W25185  11.151   5.001  12.416  0.0612  0.0750  0.0332
 8712W        W25186  16.798  11.479   4.174  0.1949  0.0466 -0.0768
 8713W        W25187  18.076  17.488   2.490  0.1858 -0.3263 -0.0156
 8714W        W25188   5.465  13.631   2.714  0.0362 -0.0109 -0.3572
 8715W        W25189  12.640  12.703  14.080 -0.1148  0.0071  0.1028
 8716W        W25190   8.210   3.745   9.691 -0.0737 -0.1176 -0.0149
 8717W        W25191  14.573  14.205   5.364 -0.1198  0.2292  0.2998
 8718W        W25192  13.993  19.033  10.959 -0.1695 -0.1090 -0.4242
 8719W        W25193   9.252   6.038   0.916 -0.3344  0.4223  0.1664
 8720W        W25194   1.506   1.705  12.120 -0.0790 -0.1282  0.0297
 8721W        W25195   4.984   2.528  14.406  0.0984  0.1532  0.1285
 8722W        W25196  18.101   5.876  11.947 -0.0907  0.2056  0.1980
 8723W        W25197  11.176  12.988   2.568 -0.1584  0.0953  0.4428
 8724W        W25198   2.687  14.095  12.225  0.0737 -0.4236  0.1778
 8725W        W25199  15.485  10.395  12.263 -0.1148 -0.1793  0.1897
 8726W        W25200  19.038  11.135  13.613  0.4881  0.1114 -0.0098
 8727W        W25201   5.777  18.931   9.430  0.1537 -0.0597 -0.2838
 8728W        W25202   3.338  12.243   1.081 -0.3085  0.3224 -0.0353
 8729W        W25203   5.071  15.764  12.237  0.0793 -0.0335 -0.1158
 8730W        W25204  14.753   8.647   1.474  0.0926  0.1270  0.0356
 8731W        W25205  17.022   1.622  12.801  0.4953  0.1512  0.0786
 8732W        W25206   2.527   4.599  10.845 -0.1879 -0.2198  0.0093
 8733W        W25207  11.681   8.608  12.889 -0.0536 -0.1511 -0.1973
 8734W        W25208  15.011   2.138  10.281  0.0769  0.0538 -0.0221
 8735W        W25209  14.173  17.367  13.277 -0.3332  0.1112 -0.0975
 8736W        W25210   0.690  12.879  10.442  0.1903  0.0265 -0.1967
 8737W        W25211  14.170  11.990   1.658 -0.1022 -0.1740  0.0037
 8738W        W25212   0.241  13.298   1.440 -0.0567  0.0403  0.2800
 8739W        W25213   1.427   1.124   9.791 -0.1992 -0.2151 -0.0281
 8740W        W25214  13.015   0.258  12.059 -0.2526 -0.2394 -0.0516
 8741W        W25215  16.719  14.024  12.984  0.1882 -0.0518  0.0774
 8742W        W25216  14.949   3.133  12.888  0.0350  0.0062  0.0541
 8743W        W25217   6.983  17.203   2.339 -0.2527  0.2653  0.0357
 8744W        W25218  19.552  10.907   3.545  0.2001 -0.3203  0.0737
 8745W        W25219   6.047   5.475  14.714  0.0175  0.1057  0.0201
 8746W        W25220   6.311   7.564   4.442  0.0787 -0.0170 -0.1356
 8747W        W25221   2.137   7.223  14.253  0.1317 -0.0597  0.2619
 8748W        W25222   6.257  11.102   3.689  0.0147 -0.3050  0.0241
 8749W        W25223  10.581  18.232   5.308 -0.0944 -0.2825  0.1705
 8750W        W25224  12.943   8.376  13.957 -0.1084 -0.1653  0.0260
 8751W        W25225   3.300   3.769  10.397  0.1419  0.1853 -0.1102
 8752W        W25226   6.744  13.121   4.778  0.0899 -0.1996 -0.1332
 8753W        W25227  11.522   8.813  11.740 -0.0481 -0.0090 -0.1109
 8754W        W25228   6.376  12.848   9.954  0.3730 -0.3257 -0.0496
 8755W        W25229  12.011   1.579   2.619  0.0072 -0.0177  0.0149
 8756W        W25230   4.641   5.875   4.029  0.1759  0.1117  0.0092
 8757W        W25231   6.285  18.917  11.992  0.3265  0.0902 -0.2258
 8758W        W25232  18.839   6.311   5.227 -0.3926 -0.1892 -0.3688
 8759W        W25233   6.235   7.301  10.659  0.2044 -0.1702 -0.0439
 8760W        W25234   9.282   5.650  13.774 -0.2199 -0.0980 -0.1492
 8761W        W25235   3.106   1.184  12.632 -0.1624 -0.0304 -0.1897
 8762W        W25236  18.741   8.175  13.580  0.0690 -0.0412 -0.1697
 8763W        W25237  14.657   8.326   2.654  0.2423  0.3484 -0.0949
 8764W        W25238  15.379  11.198   3.737  0.3327  0.0891 -0.4870
 8765W        W25239   4.187   6.093   4.047 -0.3697  0.2069 -0.1823
 8766W        W25240  11.380  15.793   2.874 -0.0515 -0.1611  0.1089
 8767W        W25241   2.519  15.073  12.723 -0.0799 -0.2881 -0.1034
 8768W        W25242  13.972   5.103  11.848 -0.3261 -0.1954  0.1267
 8769W        W25243   6.351   8.176  13.956  0.1391 -0.0634 -0.1656
 8770W        W25244  14.045  10.879   2.876 -0.0599 -0.1223 -0.0048
 8771W        W25245  19.191   5.729   9.963 -0.0079  0.1454 -0.1172
 8772W        W25246   8.254  14.261   3.492 -0.3894  0.2410  0.0199
 8773W        W25247  16.766   9.433  11.229 -0.0132 -0.0782  0.0471
 8774W        W25248   2.405  17.197   3.820  0.0236  0.3342 -0.1870
 8775W        W25249  14.169  16.360  13.265  0.0369  0.0846  0.0201
 8776W        W25250  18.166   2.620   2.124 -0.0125  0.3607 -0.0921
 8777W        W25251  18.692  10.533  11.440  0.0457  0.2886  0.3761
 8778W        W25252   0.098   1.569   3.067  0.0960 -0.0839  0.0946
 8779W        W25253   6.506  17.839   2.809  0.2034  0.0482 -0.0605
 8780W        W25254  15.894  18.142  13.847 -0.1862  0.0805  0.1808
 8781W        W25255   2.172  19.334  11.732  0.2181 -0.3255 -0.1556
 8782W        W25256  12.895  12.566  10.678  0.1798  0.1533 -0.1264
 8783W        W25257  17.903  15.128  10.962  0.1710  0.0025 -0.2143
 8784W        W25258   4.739   4.667   0.958 -0.0447 -0.0676  0.1997
 8785W        W25259  16.479  17.900  11.335 -0.3234  0.0389  0.1767
 8786W        W25260  18.147   7.341  14.523  0.2302  0.0530 -0.2007
 8787W        W25261  10.464   3.483   2.424 -0.1003 -0.0143 -0.0344
 8788W        W25262   3.918   7.951   1.294 -0.0556 -0.0527  0.3295
 8789W        W25263   8.711   0.535   0.559  0.0387  0.1351  0.1631
 8790W        W25264  10.462  17.770  13.266  0.0186  0.0365  0.2555
 8791W        W25265   4.584  14.740  11.973 -0.0085 -0.2854 -0.2479
 8792W        W25266  16.630  11.311   9.238 -0.0256 -0.2999  0.1726
 8793W        W25267   8.636   9.005  11.372 -0.3385 -0.1437 -0.1779
 8794W        W25268  19.134  13.364   2.559 -0.1768 -0.0592  0.2583
 8795W        W25269  18.235   6.233   4.163 -0.0696  0.0444  0.1944
 8796W        W25270   6.800  13.520  14.354  0.2612  0.0477 -0.0991
 8797W        W25271   0.389  18.561   0.991  0.3923 -0.1857  0.1618
 8798W        W25272  14.883  18.803  10.285 -0.1250  0.2643  0.2623
 8799W        W25273   1.291  10.688  12.243 -0.1628  0.1405 -0.2372
 8800W        W25274  12.035   0.715  13.459 -0.4843 -0.0208  0.1617
 8801W        W25275   0.211   1.387  14.084 -0.0142 -0.0913 -0.0512
 8802W        W25276   8.749  18.113  11.947 -0.1031 -0.0503  0.1339
 8803W        W25277   0.913  16.783  13.619  0.2261  0.1340  0.1901
 8804W        W25278  18.131  12.609  10.769  0.1023 -0.0477 -0.0246
 8805W        W25279  17.458   0.892   9.852  0.0007 -0.0985 -0.2892
 8806W        W25280  16.420  12.084  14.498  0.4365  0.2415  0.2609
 8807W        W25281   4.538   4.750   4.649  0.1200  0.0370  0.0606
 8808W        W25282  14.850  16.550   9.114  0.2126  0.1131 -0.1229
 8809W        W25283   1.761   1.021   3.003  0.2153  0.0286 -0.1073
 8810W        W25284   1.563  18.986  10.186 -0.4221 -0.0142 -0.1129
 8811W        W25285  14.230   4.196  11.745 -0.3357  0.0808  0.2331
 8812W        W25286   0.947   7.682   5.663  0.0205 -0.0914 -0.1835
 8813W        W25287  12.945  12.397   4.469  0.2452 -0.2109  0.1365
 8814W        W25288  16.791  19.288  13.567 -0.0123 -0.1557 -0.1812
 8815W        W25289  12.399   4.843   4.834  0.1312 -0.0497  0.2113
 8816W        W25290  18.681  11.129   0.266 -0.0622 -0.0200  0.2956
 8817W        W25291  12.703   7.105  12.214 -0.4631 -0.0370 -0.1238
 8818W        W25292   8.862  18.055  10.567  0.1567  0.1435 -0.0122
 8819W        W25293  18.076  11.238   3.578 -0.2544 -0.0530  0.1467
 8820W        W25294  11.054   2.903   0.426 -0.2386 -0.0039  0.2400
 8821W        W25295  14.268   8.111   0.146 -0.1963  0.1991  0.0876
 8822W        W25296  19.497  11.079   4.933  0.1363 -0.0436  0.0835
 8823W        W25297  17.756   7.330  11.785 -0.1250  0.0104 -0.2380
 8824W        W25298  13.977  16.940  10.213  0.0504 -0.0568  0.0959
 8825W        W25299   4.673  17.022  10.392  0.1977  0.2467  0.1432
 8826W        W25300   7.311  11.934  10.303  0.0165 -0.0464  0.2011
 8827W        W25301  14.577   1.964   0.750  0.0211 -0.2355  0.0053
 8828W        W25302  12.824   7.783   4.238 -0.0204  0.0742  0.3274
 8829W        W25303   5.275   2.772   2.141  0.4395  0.0937  0.0046
 8830W        W25304  16.112  15.490   4.004  0.2008 -0.2117  0.0147
 8831W        W25305  16.243   2.078   1.088  0.2250  0.1126  0.1147
 8832W        W25306  17.500   6.309   2.406 -0.0920 -0.0331  0.4527
 8833W        W25307   0.840  14.819  10.986  0.1707  0.2659  0.0536
 8834W        W25308  13.181  12.859   4.482 -0.0731 -0.0339  0.2521
 8835W        W25309  15.213  14.751   5.357 -0.3069 -0.1406  0.0376
 8836W        W25310   0.592   1.040   0.015 -0.4245  0.1052 -0.1826
 8837W        W25311  13.915  13.731   4.018  0.2007  0.2304 -0.0692
 8838W        W25312   3.927  14.898   3.676  0.0828  0.1757 -0.1298
 8839W        W25313   0.348  18.713  12.262  0.0460  0.1994  0.1333
 8840W        W25314  10.566   8.541   3.840 -0.1217  0.0374 -0.0405
 8841W        W25315   3.198   1.871   1.522  0.1052  0.1455  0.0468
 8842W        W25316  11.029   8.447   0.848  0.4064  0.0580  0.1011
 8843W        W25317   0.129  12.044  12.889 -0.2635  0.1308  0.1012
 8844W        W25318  19.140   3.419  13.389 -0.1146  0.0009  0.1570
 8845W        W25319  15.302   3.150  13.798 -0.2924 -0.1020  0.2110
 8846W        W25320   2.664   1.827   4.454  0.1584 -0.1455  0.0949
 8847W        W25321  17.366   3.841   2.100 -0.0562 -0.1157  0.3493
 8848W        W25322   6.547  12.563   1.416 -0.0009  0.0737 -0.0557
 8849W        W25323  15.153   8.352   4.401 -0.1543 -0.0426 -0.2700
 8850W        W25324  16.897   9.375   0.283 -0.1764 -0.2086 -0.1202
 8851W        W25325   3.154   6.460   3.364 -0.0320 -0.0811 -0.0995
 8852W        W25326   4.191   9.683   4.395  0.2378 -0.0598 -0.0130
 8853W        W25327   6.480   1.227  10.567  0.2449  0.1304 -0.1844
 8854W        W25328   8.896  16.028   2.065 -0.1248 -0.0836 -0.0842
 8855W        W25329   6.962   9.690  10.678  0.0141 -0.3098  0.0507
 8856W        W25330  12.131   3.860  10.757 -0.0932  0.0430 -0.1298
 8857W        W25331   4.398   4.729  13.404  0.1732 -0.0889  0.1532
 8858W        W25332  13.010  12.089  10.740 -0.0853  0.1407 -0.1066
 8859W        W25333  15.614  12.517   3.031  0.0359 -0.1580 -0.5931
 8860W        W25334   5.922  10.987   3.064 -0.0182 -0.2126  0.2801
 8861W        W25335  11.317   7.392   3.049  0.1880  0.1533 -0.2110
 8862W        W25336  18.524   4.170   2.249  0.0766 -0.1931 -0.0463
 8863W        W25337   4.053   6.863  12.644  0.3457  0.1963 -0.2395
 8864W        W25338  16.722   1.312   2.066  0.4137 -0.1272 -0.6143
 8865W        W25339   5.478   7.351   4.044  0.0678  0.4913 -0.0521
 8866W        W25340   8.408   9.886  14.082  0.0740 -0.1482  0.2357
 8867W        W25341   1.825  12.686   3.600  0.0969  0.3598  0.2949
 8868W        W25342  12.046  10.636   2.541 -0.1052 -0.1369  0.5176
 8869W        W25343   6.045   7.199   3.772  0.0155  0.0760  0.2222
 8870W        W25344  10.364   4.148   4.286  0.2347 -0.3042 -0.1471
 8871W        W25345  17.022  18.765   2.566 -0.0262 -0.1833  0.1478
 8872W        W25346  15.725  11.564   1.587  0.2590  0.1461 -0.3970
 8873W        W25347   6.737  13.235   3.776 -0.1799  0.1821  0.1180
 8874W        W25348   3.491   7.856   3.780 -0.0088 -0.1168 -0.0041
 8875W        W25349  12.597  12.544  12.724  0.2196  0.1606 -0.2148
 8876W        W25350  12.192   1.751  14.336  0.1867  0.0125  0.1380
 8877W        W25351  13.976  12.486  10.921 -0.0683  0.1341  0.2072
 8878W        W25352  18.503   1.997   0.301  0.4018  0.1056  0.4837
 8879W        W25353   2.704   1.141   5.201 -0.2744  0.1130  0.0397
 8880W        W25354   9.942   6.106   5.067 -0.0861 -0.1936  0.0315
 8881W        W25355   3.337  14.808  11.199  0.0540  0.1615 -0.2303
 8882W        W25356   7.296  11.702  14.532  0.4032  0.0906 -0.2172
 8883W        W25357   1.546  10.652   4.147 -0.0247 -0.2541 -0.2236
 8884W        W25358   1.473  15.865   3.896  0.3400 -0.0955 -0.3254
 8885W        W25359  17.471   5.786   2.285  0.1020  0.0883  0.0105
 8886W        W25360  15.812   8.514   1.706  0.0740  0.1518  0.3965
 8887W        W25361  13.060   1.664  12.215 -0.2306  0.2969 -0.2689
 8888W        W25362   5.499   1.121   1.636 -0.0023 -0.0566  0.2735
 8889W        W25363  11.213   5.004  11.925  0.1530  0.1330 -0.0932
 8890W        W25364   5.907   3.691  10.626 -0.0181  0.1618 -0.2562
 8891W        W25365  12.983  19.259   4.107 -0.0174  0.0144 -0.1348
 8892W        W25366  15.333   1.936   0.240  0.0782  0.2739  0.1966
 8893W        W25367   5.315  15.990   2.219 -0.1281 -0.0794 -0.5171
 8894W        W25368  11.918   9.368   0.252 -0.3228  0.1728  0.0739
 8895W        W25369   3.840   1.805   3.989  0.1691  0.0274  0.1302
 8896W        W25370   2.453   6.324   2.123  0.3599  0.2160 -0.0010
 8897W        W25371  12.259  14.213  12.096 -0.1294 -0.0561 -0.1520
 8898W        W25372   0.111   4.635  11.869  0.1123  0.1930  0.1590
 8899W        W25373   7.389   4.129   4.266 -0.0055  0.3016  0.1141
 8900W        W25374  10.143   2.697   3.458  0.2872 -0.1254 -0.0190
 8901W        W25375   9.323   2.926  12.593 -0.0619 -0.1677  0.0639
 8902W        W25376   6.461  15.572  13.908  0.0338  0.0269  0.0496
 8903W        W25377  16.868  14.049  14.719 -0.2919 -0.0748 -0.0023
 8904W        W25378  14.897  16.112   2.788 -0.4645  0.2697 -0.2287
 8905W        W25379  13.843  13.823  10.817  0.2616 -0.0198  0.0343
 8906W        W25380   7.520  11.144   4.979  0.3644  0.1175 -0.1274
 8907W        W25381  10.843  12.067   2.717  0.3882 -0.1217  0.1474
 8908W        W25382  13.210   4.866   2.427 -0.0447  0.0943 -0.2158
 8909W        W25383   9.250  13.196   0.370 -0.1292 -0.0739 -0.2055
 8910W        W25384  12.222  14.487   1.527 -0.0490  0.2189  0.2867
 8911W        W25385   2.004   2.438   1.298 -0.0664 -0.0706 -0.2160
 8912W        W25386   7.055  18.296   0.070 -0.1261  0.2465 -0.0463
 8913W        W25387   1.042   9.595  13.297  0.0698 -0.3607  0.2386
 8914W        W25388  18.879   2.292  13.021 -0.0686 -0.0059  0.5749
 8915W        W25389  11.600   9.086   5.312  0.1438 -0.1588  0.1521
 8916W        W25390  18.922   3.420   3.411  0.4199 -0.0971  0.0367
 8917W        W25391  15.048   9.278   0.163 -0.1781 -0.1084 -0.2232
 8918W        W25392   2.648   7.918   2.879 -0.0032 -0.0266  0.4368
 8919W        W25393   1.261  15.325   1.154  0.0763 -0.0518  0.0135
 8920W        W25394  14.291  10.889   4.651 -0.1436 -0.0072  0.2949
 8921W        W25395   3.687  16.126  10.067  0.0163 -0.1505  0.0239
 8922W        W25396  19.538  11.478   5.515 -0.3410  0.0726 -0.3581
 8923W        W25397   1.322  10.331   1.014 -0.0249  0.0774 -0.1136
 8924W        W25398  14.823  13.823  10.890 -0.2952  0.1110  0.0973
 8925W        W25399  15.688   0.393   1.691 -0.0945  0.0261  0.3799
 8926W        W25400  14.899  18.890   0.082  0.3099 -0.0206  0.1889
 8927W        W25401   7.959  19.234   4.501 -0.1856  0.1110  0.4389
 8928W        W25402   5.194   9.856  11.086 -0.1433  0.2546  0.4464
 8929W        W25403  18.823   0.835   2.564 -0.0062 -0.1393 -0.4421
 8930W        W25404  15.708  16.105  11.215 -0.0786 -0.0386  0.4992
 8931W        W25405   6.128   5.483   4.559  0.1016  0.0629 -0.0529
 8932W        W25406  17.388  17.241   4.156 -0.1763 -0.1961 -0.1534
 8933W        W25407  14.113   0.558  11.685  0.1711  0.0226  0.3697
 8934W        W25408   8.410   2.391   1.379 -0.2431  0.1634 -0.1423
 8935W        W25409   0.053  15.497  12.172 -0.0857 -0.1084  0.0876
 8936W        W25410   3.076   8.643  14.536 -0.2631 -0.1728 -0.1839
 8937W        W25411  12.850  11.223   0.750 -0.4623  0.0894 -0.1676
 8938W        W25412  18.373  18.526  13.900 -0.0225 -0.0016  0.0175
 8939W        W25413   7.853   5.783   2.252 -0.3680 -0.1844  0.0391
 8940W        W25414  10.901  14.000   0.383  0.1768 -0.1864 -0.1376
 8941W        W25415  15.352  11.126  13.474  0.2237  0.1507 -0.0527
 8942W        W25416   4.618   7.817   1.608 -0.0470 -0.0267 -0.0593
 8943W        W25417   9.701  13.311   4.788 -0.0125 -0.0777 -0.0752
 8944W        W25418   0.258   8.894  11.165 -0.0751  0.0385 -0.0281
 8945W        W25419  19.163  13.897   4.829  0.0300 -0.4634 -0.3943
 8946W        W25420  17.966  16.353   4.154  0.1053  0.1770  0.0182
 8947W        W25421  17.500   9.538  12.657 -0.0762 -0.0243 -0.6037
 8948W        W25422   7.691   6.090  11.149 -0.1552  0.2810 -0.0235
 8949W        W25423   5.892  18.184  13.843 -0.1171 -0.1978  0.2530
 8950W        W25424   5.021  19.222   2.247  0.0542  0.1464  0.1070
 8951W        W25425   8.887   2.356   3.288  0.1082 -0.1526 -0.0524
 8952W        W25426  17.026   0.132  11.452 -0.3289 -0.0899  0.5336
 8953W        W25427   8.148   8.858  11.054 -0.1677  0.4050  0.1718
 8954W        W25428  12.676  19.267  11.391  0.1626  0.2656 -0.3110
 8955W        W25429  17.898  12.122   0.283 -0.2221 -0.0224 -0.0672
 8956W        W25430   3.677  12.626  11.100  0.0037  0.4806 -0.2013
 8957W        W25431  17.262   3.720   4.340  0.0017 -0.1484 -0.0176
 8958W        W25432   1.503   5.895   2.318  0.1933  0.4001  0.0996
 8959W        W25433   9.205  10.359   3.874  0.0374  0.0952 -0.0337
 8960W        W25434   4.532   1.735  13.312 -0.3420 -0.0166 -0.4439
 8961W        W25435  10.098   4.911  12.366  0.0561  0.2141 -0.1129
 8962W        W25436  13.002   4.991   5.376  0.2276  0.0299 -0.1513
 8963W        W25437   5.622  18.627   4.356  0.3657 -0.0834 -0.3546
 8964W        W25438  10.526   2.596  10.261 -0.0606 -0.0141  0.2295
 8965W        W25439   2.744  17.326  11.830 -0.1084 -0.0658 -0.1319
 8966W        W25440   3.533  14.857   1.463  0.2334 -0.0281 -0.0964
 8967W        W25441   7.478   0.234  11.100 -0.1377 -0.0139 -0.0361
 8968W        W25442  13.947  14.061   1.667  0.1746 -0.0028  0.0668
 8969W        W25443   8.539  12.183   1.837  0.0694  0.2674  0.0952
 8970W        W25444  18.367   4.408   5.377  0.2350  0.1597 -0.0174
 8971W        W25445  15.221   7.574  12.385  0.1331  0.1702 -0.1882
 8972W        W25446  11.182   9.311   1.600 -0.0508  0.1454 -0.0245
 8973W        W25447   4.833  10.930   4.582 -0.1777 -0.1329 -0.1796
 8974W        W25448  16.353   3.809   4.375  0.0185  0.1870  0.0777
 8975W        W25449   8.847  16.033   9.330  0.1253  0.0506 -0.0858
 8976W        W25450   5.386   0.440   0.097 -0.0771  0.0739  0.4195
 8977W        W25451   6.044  16.665   3.658  0.1226  0.1516 -0.2972
 8978W        W25452  11.782   7.857  11.648  0.3076  0.5173 -0.1435
 8979W        W25453   3.070  11.876   1.538 -0.2855 -0.2929 -0.0744
 8980W        W25454  14.861  11.754   0.252 -0.0984 -0.2439 -0.0517
 8981W        W25455  14.220   2.213   4.505 -0.0730 -0.0795 -0.2087
 8982W        W25456   7.809  18.364   5.156 -0.1412  0.1060  0.1970
 8983W        W25457   6.170   8.728   5.119  0.0884  0.4135  0.2709
 8984W        W25458  11.700  12.890   0.058  0.1018 -0.1670  0.2741
 8985W        W25459   5.150  13.806   0.082  0.0509  0.1458  0.2896
 8986W        W25460   5.113   2.869  11.311  0.3203 -0.2807 -0.0464
 8987W        W25461  18.793   7.865  11.775 -0.1326 -0.2719 -0.0396
 8988W        W25462   5.301   5.308   3.606  0.1584 -0.1024  0.0502
 8989W        W25463  13.719   0.870   0.008  0.4031  0.0037 -0.1901
 8990W        W25464   3.991   2.178   1.747  0.1141 -0.1231 -0.0199
 8991W        W25465  15.076   5.485   9.620 -0.0715  0.1039 -0.2160
 8992W        W25466  15.193  10.310  10.449  0.1888  0.4170 -0.1946
 8993W        W25467   9.964  17.219   3.218 -0.1552 -0.1641 -0.0887
 8994W        W25468  19.311  18.052  13.402  0.2233 -0.0844 -0.0585
 8995W        W25469   3.521   6.961   4.288 -0.1281  0.1663  0.0051
 8996W        W25470  19.458   2.944   2.199  0.0257 -0.0476  0.3507
 8997W        W25471   3.328   7.311  13.601 -0.1014  0.0715 -0.0843
 8998W        W25472   5.209  18.888  13.311  0.0080 -0.1157  0.3249
 8999W        W25473  10.388   3.403  14.018  0.1687 -0.0037  0.1788
 9000W        W25474   3.053   4.630  11.022 -0.0144 -0.1887 -0.0275
 9001W        W25475   0.323   8.352   5.077  0.2774  0.1065  0.2004
 9002W        W25476   5.497  15.760  11.431  0.1825  0.0584  0.0011
 9003W        W25477   8.016   1.561   1.776 -0.1333 -0.1646 -0.2287
 9004W        W25478  18.751  11.280   3.223  0.1667 -0.0691 -0.1876
 9005W        W25479   0.657   6.893  10.675  0.2302 -0.0322  0.0296
 9006W        W25480   4.476  11.144   5.607  0.0173  0.0117 -0.0956
 9007W        W25481  17.281  18.527   1.864  0.3265  0.2044  0.0701
 9008W        W25482   9.211  12.690   3.891  0.0855 -0.0252  0.0305
 9009W        W25483  18.073   4.938   2.812 -0.1190 -0.2385  0.1887
 9010W        W25484   3.318   1.586  12.307  0.1005  0.2191  0.0344
 9011W        W25485   7.832   0.590   3.901  0.0519  0.1338 -0.0378
 9012W        W25486  14.133   9.026  11.383 -0.0393 -0.0511 -0.0297
 9013W        W25487  11.848  16.978  12.877 -0.2480 -0.1265 -0.0707
 9014W        W25488   7.261   4.926   0.489 -0.3685  0.1346 -0.3946
 9015W        W25489   1.726   7.126   4.830 -0.1451 -0.0886  0.0291
 9016W        W25490   4.954  11.441   4.420 -0.1439  0.0810 -0.2309
 9017W        W25491  15.650  11.373  10.730 -0.0726  0.0613  0.0385
 9018W        W25492   4.434   9.617  10.210  0.0973 -0.1996 -0.0607
 9019W        W25493   5.664   8.786  11.106  0.0706  0.2570  0.1911
 9020W        W25494  19.056  16.095  10.941 -0.2020  0.1262  0.2718
 9021W        W25495   3.499   9.176  12.737 -0.1921 -0.0001 -0.3049
 9022W        W25496   3.544  12.350  12.022  0.3567  0.0820 -0.1492
 9023W        W25497   4.599   8.697   1.398 -0.1087 -0.2501 -0.0449
 9024W        W25498   9.247   1.447  14.150  0.3295  0.0077 -0.0648
 9025W        W25499   7.538  18.873  10.070  0.3108  0.0478  0.1458
 9026W        W25500   3.984   7.652   9.960 -0.1278  0.0119  0.3885
 9027W        W25501  19.264  12.456  11.689 -0.0061  0.2134 -0.2471
 9028W        W25502   9.188  17.110  10.307 -0.1817  0.0021 -0.2725
 9029W        W25503   3.573   4.002   1.682 -0.3390 -0.2544 -0.2514
 9030W        W25504  15.259   0.667   0.597 -0.1332  0.3361  0.4083
 9031W        W25505  15.719  18.182  12.004 -0.3214  0.2498 -0.1070
 9032W        W25506  19.092  16.488   0.690 -0.0089  0.0506 -0.1583
 9033W        W25507   6.946  14.134  12.015 -0.2392  0.2074 -0.0492
 9034W        W25508   3.587   1.605   0.476  0.0351  0.0784  0.3579
 9035W        W25509  18.579   0.062   3.907 -0.0903  0.1632  0.0189
 9036W        W25510   6.272  11.755   1.067  0.2092 -0.1603 -0.1265
 9037W        W25511   6.163   7.560   0.112  0.0475  0.0441 -0.3330
 9038W        W25512  14.860   3.708  10.698 -0.0526 -0.2161  0.2432
 9039W        W25513  14.405   9.196   2.401  0.0656 -0.0947  0.3207
 9040W        W25514   9.703  13.284   2.834 -0.1348 -0.0629  0.0241
 9041W        W25515   9.485  12.826   4.718 -0.1241  0.3568  0.2676
 9042W        W25516   3.324   6.135   1.837  0.1801 -0.1071 -0.0011
 9043W        W25517   0.153   0.422  12.632 -0.1737  0.2194 -0.3250
 9044W        W25518   3.212  16.872  12.517  0.1632  0.0778  0.1818
 9045W        W25519  14.559   1.988  14.168 -0.3593 -0.0002 -0.0558
 9046W        W25520  13.897   0.592  12.617  0.2774 -0.1857 -0.3818
 9047W        W25521  16.449   6.957   3.247  0.2560  0.0642 -0.0287
 9048W        W25522   2.725  17.064  12.346  0.3239 -0.1127 -0.1733
 9049W        W25523   5.400   3.528   1.731  0.2935 -0.0289  0.1476
 9050W        W25524  17.300  11.401   1.767  0.0583 -0.1014 -0.0439
 9051W        W25525   4.859   5.543  12.997  0.0009  0.0131  0.0670
 9052W        W25526  17.972  15.533  13.317  0.1480 -0.1347 -0.4187
 9053W        W25527  16.347  16.164   2.371 -0.0406  0.0868  0.0443
 9054W        W25528   0.995  14.517  11.749 -0.0793 -0.1393 -0.0470
 9055W        W25529   2.907   8.332   4.279  0.0119  0.2003  0.0307
 9056W        W25530   0.552   8.567   0.022  0.0738 -0.1146  0.0350
 9057W        W25531   5.716  14.127   0.106  0.1022  0.1730  0.0461
 9058W        W25532   3.027   5.511  14.288  0.2840  0.0082 -0.1190
 9059W        W25533  12.093  16.856  11.624  0.1896  0.0079 -0.2558
 9060W        W25534   7.695   5.073  12.213 -0.0884  0.2477  0.0708
 9061W        W25535   0.258   8.893   2.110  0.3033  0.0734  0.0415
 9062W        W25536   1.086  10.112   0.626 -0.0568 -0.2020  0.0254
 9063W        W25537   2.259  12.893   1.796 -0.0119  0.2281  0.0978
 9064W        W25538   7.548  11.832  11.129 -0.1130  0.0994 -0.0641
 9065W        W25539  18.098   0.377   3.688  0.2441 -0.1530  0.2852
 9066W        W25540   3.817   5.943  12.108  0.0387  0.0233  0.1764
 9067W        W25541  18.102  13.984  12.195  0.1234 -0.4192  0.0792
 9068W        W25542  10.994   0.772   2.176  0.1431  0.2835 -0.0787
 9069W        W25543   3.448   5.289   4.121  0.0505 -0.0660 -0.2323
 9070W        W25544  10.792   3.803   0.218  0.4981  0.0607  0.1658
 9071W        W25545  18.521  19.273   1.723 -0.1062 -0.0561  0.1515
 9072W        W25546   7.043   2.559  12.903 -0.3160 -0.1058 -0.2998
 9073W        W25547   7.327   9.757   4.862  0.0595  0.6788 -0.1090
 9074W        W25548  11.715   4.731  10.575  0.0183 -0.0565  0.1298
 9075W        W25549  12.918  16.266   9.566  0.4473  0.2715 -0.0550
 9076W        W25550   2.769   8.223   1.921  0.0498  0.0366  0.0476
 9077W        W25551  11.899   4.697  11.069  0.1858 -0.0895 -0.2500
 9078W        W25552  12.167  17.683  12.247  0.0066  0.1255  0.1702
 9079W        W25553  18.558   5.248   2.741  0.2030 -0.0760 -0.2276
 9080W        W25554  10.719   9.724  11.708 -0.3917  0.1791 -0.2496
 9081W        W25555   0.646  19.283  12.449  0.2882  0.2491  0.1050
 9082W        W25556   9.999  14.802  13.082  0.1624 -0.2003 -0.2325
 9083W        W25557  16.439   9.240   3.306  0.0993 -0.0947 -0.0432
 9084W        W25558  15.190   8.756   5.168 -0.1776  0.0018  0.3727
 9085W        W25559  12.872   6.754   2.324  0.2227 -0.1119  0.0405
 9086W        W25560   4.233  16.031   2.531  0.4190  0.0792  0.2642
 9087W        W25561  19.256   2.135   0.934  0.3509  0.5015 -0.0081
 9088W        W25562   9.968   7.290  13.217  0.2445  0.0485  0.0594
 9089W        W25563  10.136  10.087  12.416 -0.1623 -0.2705  0.0896
 9090W        W25564  14.442   2.785  14.121 -0.2920  0.0304 -0.2634
 9091W        W25565  17.047  17.406  11.964  0.4521  0.0825 -0.0917
 9092W        W25566  15.207   2.242   4.292 -0.2143 -0.1644 -0.2594
 9093W        W25567   1.664  11.827   0.785  0.1157 -0.1543 -0.1506
 9094W        W25568   1.216  14.537   0.551  0.4828  0.1700 -0.3077
 9095W        W25569  16.344  17.731   2.175 -0.1618  0.0275  0.2166
 9096W        W25570  15.742  14.048  10.570  0.0684  0.1185  0.3189
 9097W        W25571  12.592  13.734  14.102 -0.1600  0.1892  0.1791
 9098W        W25572  17.099   0.876  12.492 -0.2221  0.0204  0.0690
 9099W        W25573  16.232  16.581   4.141 -0.1811 -0.3483  0.3649
 9100W        W25574  12.846   7.035   5.208  0.1178  0.0463 -0.1840
 9101W        W25575   5.697   9.191  13.979 -0.0429  0.3581 -0.0883
 9102W        W25576   5.370  17.266  13.151 -0.0592 -0.2719  0.3755
 9103W        W25577   6.827   8.780   5.039 -0.0626 -0.0883  0.1365
 9104W        W25578   2.612   4.491   1.168 -0.0424 -0.0754 -0.0531
 9105W        W25579   0.451   8.985   2.570  0.0131 -0.2038  0.0542
 9106W        W25580  10.196   1.938   0.162 -0.1664 -0.0751  0.1145
 9107W        W25581  14.498  14.576  12.904 -0.1868  0.1082  0.1826
 9108W        W25582   7.007   0.159  12.879  0.1878 -0.0148  0.0727
 9109W        W25583   2.764  17.522   3.095  0.0122  0.0477  0.1391
 9110W        W25584   2.913  19.271   4.286  0.1140  0.3623 -0.1383
 9111W        W25585  14.292  17.185   9.537  0.2004  0.0297  0.0763
 9112W        W25586  16.556   5.632   9.670  0.0111  0.0065  0.1947
 9113W        W25587  14.175   0.842   2.718  0.1808  0.0119 -0.2002
 9114W        W25588   2.730   9.363  10.879 -0.2548  0.2714 -0.1263
 9115W        W25589  14.729  16.467  13.166  0.1610  0.1154 -0.4681
 9116W        W25590   1.073  11.158  12.445  0.0386 -0.1083  0.1151
 9117W        W25591   3.195   3.388   3.571 -0.1551 -0.1356  0.1573
 9118W        W25592  12.653  19.365  10.917 -0.0687 -0.0026  0.0055
 9119W        W25593  11.897   3.530  11.572 -0.0299  0.0655  0.4713
 9120W        W25594   3.191   7.292   3.495 -0.0234 -0.1783 -0.2272
 9121W        W25595   1.077   5.608   0.308  0.0044 -0.1320  0.0970
 9122W        W25596   4.667  10.928   0.554  0.4338  0.0228  0.1058
 9123W        W25597  14.254  14.570  10.632 -0.1157 -0.0490 -0.2261
 9124W        W25598  11.951  10.834   0.381 -0.1720 -0.1072  0.3551
 9125W        W25599   9.487   0.635  12.591 -0.4093  0.2599  0.0344
 9126W        W25600   6.799   7.508  13.097 -0.1671  0.1727  0.1698
 9127W        W25601  13.249   7.017  14.299 -0.4022 -0.2173  0.4216
 9128W        W25602   4.598   4.622   5.100  0.0437  0.0658 -0.0668
 9129W        W25603   7.279  16.677   8.920  0.0105 -0.2384 -0.1741
 9130W        W25604  16.059  15.882  11.505  0.2478  0.2703  0.0122
 9131W        W25605  13.399   9.836   3.356 -0.0298 -0.0852 -0.2614
 9132W        W25606   3.763   3.746   2.061 -0.1018 -0.1710 -0.2721
 9133W        W25607  14.674   6.890  14.471  0.1229 -0.1478  0.0461
 9134W        W25608  18.211   5.678   3.385 -0.0533 -0.0859 -0.0320
 9135W        W25609  15.187  11.978   4.724  0.1957 -0.0636  0.2678
 9136W        W25610  12.340   1.088   3.305  0.1690 -0.0183  0.0356
 9137W        W25611  10.864  15.408   0.650  0.2804  0.0836  0.2940
 9138W        W25612  18.874   3.544   0.464 -0.1245 -0.1119 -0.1135
 9139W        W25613  13.908  18.448  10.013 -0.2511 -0.2715  0.2420
 9140W        W25614  16.592   6.693  11.250  0.0118 -0.2446  0.2941
 9141W        W25615   7.329  10.650   5.547  0.1987  0.1430 -0.1855
 9142W        W25616   8.755  10.862  11.234 -0.0881  0.1268 -0.3298
 9143W        W25617  11.598   3.308  11.140 -0.2694  0.3174  0.1006
 9144W        W25618  18.669   5.958   1.573 -0.2255  0.0992 -0.0555
 9145W        W25619  13.032  14.158  11.219  0.3894  0.0338 -0.0189
 9146W        W25620  14.760   1.023  11.160 -0.1069 -0.3255 -0.1008
 9147W        W25621   3.968  19.440  13.538  0.1858  0.1906 -0.2743
 9148W        W25622   4.396   0.952   0.885 -0.4604  0.0371  0.2432
 9149W        W25623  17.858  11.180   9.495  0.2275 -0.0480 -0.1748
 9150W        W25624  16.328   0.377  12.586  0.1135  0.2516 -0.2409
 9151W        W25625   7.327   8.894  10.495 -0.3959  0.0916  0.0237
 9152W        W25626  11.991   1.998   9.663 -0.3313 -0.1105  0.4636
 9153W        W25627   2.201   5.626   2.689 -0.1331 -0.3387 -0.1941
 9154W        W25628   2.207   3.299   3.508 -0.3736  0.1672 -0.0606
 9155W        W25629   4.148  14.130   8.871 -0.6559 -0.2426  0.0181
 9156W        W25630   5.799   3.660  13.212  0.1267 -0.3541  0.2569
 9157W        W25631  11.449  13.440   2.787 -0.1741  0.0700  0.2026
 9158W        W25632   1.359   6.545  13.984 -0.0591  0.2209  0.0391
 9159W        W25633  12.289   9.452   3.079 -0.0629  0.0301  0.1275
 9160W        W25634   7.461  10.604  13.570 -0.0355  0.3910 -0.0038
 9161W        W25635   5.548  14.455  11.681 -0.2205  0.3695 -0.1632
 9162W        W25636   9.946   6.766  12.038  0.0253  0.2479 -0.2368
 9163W        W25637   2.137   6.975   2.434 -0.3162 -0.0090  0.1711
 9164W        W25638  16.456  14.067  12.146 -0.0640 -0.3148  0.0475
 9165W        W25639  16.971   1.891   0.028 -0.0160  0.2501 -0.1453
 9166W        W25640  13.913   9.971   0.147 -0.1723  0.1151  0.1538
 9167W        W25641   6.675   6.392   2.935 -0.2419 -0.1064  0.1168
 9168W        W25642   6.197   6.206  11.047  0.1795  0.0103 -0.2151
 9169W        W25643  17.668  10.081   5.224 -0.0673 -0.2736  0.0594
 9170W        W25644  17.800   9.850  11.126  0.1257  0.0785 -0.0319
 9171W        W25645  13.984  12.952   2.615  0.3238  0.2229  0.1442
 9172W        W25646  13.197  10.788   4.034  0.2117  0.2375  0.0853
 9173W        W25647   9.067  14.173   3.164  0.1234  0.1890  0.1761
 9174W        W25648  13.476  10.650  10.317  0.3456 -0.0583 -0.2640
 9175W        W25649  17.643   2.329   2.849  0.0751 -0.0024 -0.1979
 9176W        W25650   0.349   1.177  12.169 -0.0557  0.0524 -0.1118
 9177W        W25651  14.942   3.791  14.542 -0.1079  0.3959 -0.1556
 9178W        W25652   4.127  12.511   4.577  0.1130 -0.0723 -0.1588
 9179W        W25653  16.257  13.915  13.089  0.0565  0.0313 -0.1248
 9180W        W25654   1.587   2.066  14.422  0.2719  0.2449  0.0483
 9181W        W25655   2.133   2.414   0.398 -0.1031  0.1730 -0.1217
 9182W        W25656   9.221   4.192   3.250  0.3061  0.1521 -0.0060
 9183W        W25657  16.346  17.535   0.744 -0.0879  0.1427 -0.0675
 9184W        W25658   0.514  16.920  11.407 -0.4310 -0.0373 -0.1615
 9185W        W25659   6.650   7.778  13.925 -0.3517 -0.3146  0.1098
 9186W        W25660  13.137  10.865  14.036  0.0745 -0.1465 -0.0965
 9187W        W25661   8.818  13.536  12.019  0.1155 -0.2115  0.4102
 9188W        W25662   7.137   1.373   3.221  0.0724  0.0145 -0.2539
 9189W        W25663   2.757  18.494   1.987  0.0519  0.3116  0.0853
 9190W        W25664  13.872  17.706   3.944 -0.2450  0.1214  0.0501
 9191W        W25665   2.361   7.689   0.234 -0.2115  0.0339  0.1255
 9192W        W25666   1.658  16.133   0.326  0.1206 -0.0402  0.1362
 9193W        W25667   4.432  18.555  11.090  0.1976  0.1627  0.1277
 9194W        W25668   8.360   3.791   4.396 -0.1913  0.0101 -0.0850
 9195W        W25669   3.132  18.458   1.202 -0.2090 -0.1163  0.0530
 9196W        W25670  10.222   7.441   0.764  0.0525 -0.2147  0.0764
 9197W        W25671   3.408  12.183  13.772  0.2473  0.1133  0.3651
 9198W        W25672   6.123   9.292   1.068 -0.1084 -0.1998  0.1463
 9199W        W25673   4.823   0.405   3.770 -0.3727  0.2085 -0.2513
 9200W        W25674   5.495   9.730   5.115  0.2706 -0.0642  0.1694
 9201W        W25675   7.916  13.724  10.058 -0.0270  0.2546 -0.5342
 9202W        W25676   9.556  15.990   4.566  0.0584 -0.0569  0.1181
 9203W        W25677   5.568   4.007   1.740  0.0786 -0.0188  0.3177
 9204W        W25678  10.167  15.947  14.361  0.2233  0.2605  0.0190
 9205W        W25679  14.501   4.499   4.180 -0.1971 -0.0464  0.0939
 9206W        W25680   8.635   3.974  11.828  0.0855  0.1435  0.2129
 9207W        W25681  15.194   4.617  11.866  0.0095 -0.1288 -0.0807
 9208W        W25682  16.603   6.732  10.712 -0.0973 -0.4896  0.1236
 9209W        W25683   7.966   4.972   2.916 -0.0953 -0.2368 -0.0916
 9210W        W25684   1.972   7.573  13.857  0.0398 -0.1522 -0.2189
 9211W        W25685  17.821  13.081  13.256  0.0429 -0.0036 -0.0459
 9212W        W25686   3.691  14.127  11.464 -0.0853  0.1857 -0.2130
 9213W        W25687  10.598   8.016   2.628 -0.0365  0.1260 -0.2496
 9214W        W25688  14.663   5.153   1.850  0.0521 -0.1458 -0.0927
 9215W        W25689   8.545  11.562  14.063  0.0573 -0.2450  0.1990
 9216W        W25690   2.603  15.377   3.603  0.0108 -0.0326 -0.1309
 9217W        W25691  14.732  13.572   3.573 -0.0157  0.0093  0.0656
 9218W        W25692   8.606   3.083   2.464 -0.1106  0.6593  0.1319
 9219W        W25693  16.593  10.025   0.319 -0.1872 -0.1821 -0.0730
 9220W        W25694   3.417   0.903   1.410  0.3387 -0.1881  0.0265
 9221W        W25695  16.370  13.142   0.140 -0.1303  0.2017 -0.0351
 9222W        W25696   3.177  17.501   3.798  0.0336  0.1017  0.0726
 9223W        W25697  10.783   4.867   4.897 -0.1032 -0.2782  0.0509
 9224W        W25698   6.559   7.510   5.945 -0.2825 -0.0615  0.3215
 9225W        W25699   1.308   7.780  10.524  0.0425 -0.1516  0.3866
 9226W        W25700   0.032   0.922  14.245  0.2452 -0.2317 -0.1973
 9227W        W25701   4.142   2.891  14.207 -0.1666  0.0599  0.0434
 9228W        W25702  11.306  12.807   0.728  0.2798  0.0186  0.0145
 9229W        W25703  16.075   8.155  12.259 -0.1556 -0.3165  0.0936
 9230W        W25704   2.938   3.291   3.140 -0.0755  0.3249 -0.2033
 9231W        W25705  18.109  19.020   3.408 -0.0287 -0.0879 -0.0897
 9232W        W25706  17.213   9.261   0.677  0.1474  0.1871 -0.0576
 9233W        W25707  11.539  18.817   3.053  0.1434  0.0101 -0.1115
 9234W        W25708   9.254  12.550   2.514  0.0698  0.1554 -0.1133
 9235W        W25709   7.848  10.625   3.693  0.1188 -0.1439 -0.0934
 9236W        W25710  11.391   0.681   9.522  0.0472 -0.3731 -0.2303
 9237W        W25711   8.196  10.152   0.937  0.1400  0.3625 -0.2178
 9238W        W25712   9.962   0.952   2.106  0.0419  0.0202 -0.3673
 9239W        W25713  15.909  11.226  14.203 -0.0408 -0.0480 -0.1332
 9240W        W25714  10.219   6.047   0.514 -0.1987 -0.0173 -0.0795
 9241W        W25715   6.511   9.891   0.359  0.0148  0.1502  0.0083
 9242W        W25716  11.706  18.060  10.435  0.1486  0.1176  0.0922
 9243W        W25717  16.944  15.179   1.795  0.1980  0.2151 -0.1937
 9244W        W25718   7.572  15.926  10.200 -0.0149 -0.1981 -0.1216
 9245W        W25719   0.352  14.905  13.417 -0.2531 -0.1081 -0.1859
 9246W        W25720   8.419  18.348   4.421 -0.2817  0.1181 -0.1278
 9247W        W25721  11.285   6.131   1.825  0.0111  0.1898 -0.2608
 9248W        W25722   2.636  12.518   2.614  0.1575  0.0333 -0.2414
 9249W        W25723   3.501   2.820   4.182  0.1002  0.1982  0.0012
 9250W        W25724  12.200  18.973   2.301  0.0341 -0.2684 -0.1514
 9251W        W25725  18.650   4.016  12.301  0.0406 -0.2535 -0.0110
 9252W        W25726  19.449   8.588   5.211  0.2585 -0.0521 -0.2879
 9253W        W25727   0.000   5.319   0.500 -0.2479 -0.0359  0.0823
 9254W        W25728   4.800  17.142  13.215 -0.0699 -0.2458  0.3463
 9255W        W25729  17.954   8.039  12.784 -0.2993  0.1793 -0.0476
 9256W        W25730  11.660   7.310  10.563  0.2987  0.1600  0.0636
 9257W        W25731  18.778   0.195  13.655  0.4021 -0.0653  0.0054
 9258W        W25732   8.320   7.696  14.647 -0.2577 -0.0391  0.0936
 9259W        W25733  14.045   6.816  10.872 -0.1439 -0.1474  0.1683
 9260W        W25734   5.719  14.843  14.046  0.0406  0.1419  0.0170
 9261W        W25735  11.155   4.441  13.198  0.0442  0.0419 -0.2584
 9262W        W25736   1.967   4.467  12.816 -0.4093  0.1350  0.0247
 9263W        W25737  12.038  15.520   2.848 -0.1381  0.3267 -0.2060
 9264W        W25738  15.821  12.772   0.945 -0.1616 -0.0388 -0.2049
 9265W        W25739  15.230  19.034   9.908 -0.1150 -0.3979 -0.0789
 9266W        W25740  13.697   6.772  14.207  0.1688 -0.2609  0.6634
 9267W        W25741  14.349  17.711  14.214  0.0424  0.0382 -0.2266
 9268W        W25742   6.153   0.569   9.695 -0.0583 -0.1729 -0.3660
 9269W        W25743  11.269   4.830  13.977  0.0991 -0.1969  0.2426
 9270W        W25744  12.521   4.333  13.967 -0.0709  0.0266 -0.2051
 9271W        W25745  17.177  16.362  12.906  0.0511  0.1775 -0.0945
 9272W        W25746  10.190   8.204  13.067 -0.1872  0.0459 -0.2765
 9273W        W25747   6.643  19.578   2.080  0.2895 -0.0022 -0.3232
 9274W        W25748   7.893  11.757  14.544  0.0740  0.2544 -0.2120
 9275W        W25749   4.883  16.789  11.954 -0.0866  0.1568  0.0045
 9276W        W25750   7.087  12.149   4.843  0.4617 -0.0368  0.0402
 9277W        W25751  10.357  16.530  14.442  0.2077  0.1691 -0.0534
 9278W        W25752  15.526  17.662   4.641  0.4593  0.0332  0.0613
 9279W        W25753   0.568   9.379   1.488 -0.1503  0.0512  0.1256
 9280W        W25754   5.092  13.545  14.344  0.1789 -0.0899  0.3027
 9281W        W25755   6.376   5.919  14.649  0.2721 -0.3119 -0.1517
 9282W        W25756  11.257   0.319  10.828 -0.0530  0.0615 -0.1385
 9283W        W25757  13.825   8.406   0.679  0.0786 -0.0973  0.0212
 9284W        W25758  11.431   2.338  12.623  0.0454 -0.2899 -0.1973
 9285W        W25759   9.903   7.037   3.555  0.0814 -0.1353  0.1617
 9286W        W25760  16.772  10.318   1.724 -0.3562  0.0039 -0.2441
 9287W        W25761  18.664  16.432   1.189  0.0970  0.1219  0.0414
 9288W        W25762   5.196   1.549  14.202  0.1409  0.0679 -0.1543
 9289W        W25763   8.242   3.666   3.216 -0.2218 -0.0881 -0.0451
 9290W        W25764  17.039   2.833   3.181  0.4335 -0.2035 -0.2801
 9291W        W25765   6.072   5.223   9.547 -0.0540 -0.1039 -0.0117
 9292W        W25766   9.412  10.450   3.326 -0.0212  0.0495 -0.0809
 9293W        W25767  18.700   0.664  10.569  0.1590  0.4663  0.1134
 9294W        W25768   9.442   6.143   1.811 -0.0392  0.2108  0.1794
 9295W        W25769   1.068   3.749  11.136  0.1090  0.2856 -0.3008
 9296W        W25770  15.579  13.065  11.751 -0.4419 -0.3540 -0.1128
 9297W        W25771   3.424  11.746  11.152 -0.4299  0.0858 -0.2001
 9298W        W25772  18.040   7.145   2.383 -0.3082 -0.0505 -0.2234
 9299W        W25773   5.182  15.395  13.415 -0.4649 -0.0103 -0.0394
 9300W        W25774   9.919   1.186  11.716 -0.0374  0.0972  0.1489
 9301W        W25775  15.988  19.433  11.937 -0.0393 -0.0496  0.0715
 9302W        W25776  19.443  14.816   3.096  0.1719 -0.1555 -0.0110
 9303W        W25777  16.017   7.613  10.604  0.0415  0.3041  0.0410
 9304W        W25778   3.170   9.831   0.495 -0.2316 -0.0920  0.1658
 9305W        W25779  17.800  16.951   0.260 -0.1420 -0.4223  0.1454
 9306W        W25780   7.550  11.962   9.024 -0.1386  0.3479 -0.2840
 9307W        W25781   0.156  10.152  10.820  0.1537  0.1012  0.3189
 9308W        W25782   0.972  11.507  10.641  0.1279 -0.1826  0.1217
 9309W        W25783   7.362   6.808  14.232  0.0771  0.0899 -0.0996
 9310W        W25784   7.023   3.712  14.398 -0.1441 -0.2773 -0.2374
 9311W        W25785   3.288  13.635   9.154  0.1033  0.0965 -0.0403
 9312W        W25786   4.318  12.801   2.677  0.3172  0.2848 -0.1178
 9313W        W25787   0.779   9.939  11.580  0.0941  0.0352 -0.3004
 9314W        W25788  12.935   3.958   4.022  0.0112  0.0482  0.3882
 9315W        W25789   3.455  16.334   5.698  0.1884 -0.1615 -0.2637
 9316W        W25790   6.501   9.949  10.743  0.1999 -0.2394  0.1818
 9317W        W25791   8.656  14.992  13.195 -0.3035 -0.0061 -0.1346
 9318W        W25792  19.297  14.920  10.347 -0.0607 -0.1674  0.0344
 9319W        W25793  16.009   7.477  14.425  0.1942 -0.2054  0.0633
 9320W        W25794  14.300   8.503   1.788 -0.1020 -0.2823 -0.2288
 9321W        W25795   5.084  10.101  12.028 -0.0745  0.0662 -0.1394
 9322W        W25796  19.549   4.608   4.144  0.0342  0.0662 -0.4519
 9323W        W25797  16.200  19.093  10.278  0.2561 -0.1137  0.0544
 9324W        W25798  18.402  19.134  12.931 -0.1555 -0.3808 -0.2130
 9325W        W25799   3.789  17.964  13.837  0.1774  0.0691 -0.1532
 9326W        W25800  18.896  10.485  10.350 -0.5236  0.0963  0.0183
 9327W        W25801   1.327  15.087  13.139  0.3593 -0.3996 -0.0247
 9328W        W25802   3.309   5.747   2.764 -0.2097 -0.1989  0.0500
 9329W        W25803  12.457  12.188   0.283  0.1686 -0.0889 -0.2809
 9330W        W25804  10.726   9.276   9.681  0.3039 -0.3127 -0.0358
 9331W        W25805   7.753   3.326  13.122  0.2482  0.4500  0.0978
 9332W        W25806  16.460  10.436  13.625 -0.0032  0.1235  0.1420
 9333W        W25807  14.653   9.708  13.465  0.4007 -0.1099 -0.1007
 9334W        W25808   4.654  11.035   1.065  0.0517 -0.0619 -0.0734
 9335W        W25809  18.561  11.353   5.032  0.2372 -0.2629  0.0213
 9336W        W25810   2.849  16.973   2.980  0.3790 -0.1918  0.0166
 9337W        W25811  11.532   2.490   4.285  0.1446 -0.0366 -0.0953
 9338W        W25812  12.472   9.401   4.911  0.2057  0.0450  0.1038
 9339W        W25813  19.023  11.448   2.333  0.4647 -0.1862 -0.0439
 9340W        W25814   8.833  12.031  14.203 -0.1234 -0.0713  0.2408
 9341W        W25815  15.522   5.371   0.470  0.0987  0.2058  0.0563
 9342W        W25816   6.181   1.119   2.447  0.1838  0.4339  0.2399
 9343W        W25817  18.196  18.704   9.382  0.2815  0.1158  0.0893
 9344W        W25818   3.368  14.291  11.147 -0.0967 -0.1378  0.0864
 9345W        W25819   7.573  17.283   4.149  0.1500 -0.0680  0.1263
 9346W        W25820  16.759  16.275   0.097  0.1499  0.1759  0.0474
 9347W        W25821  12.080   7.394  13.522 -0.1833  0.2801  0.0595
 9348W        W25822  11.666   8.429   2.942 -0.2673  0.1320 -0.0435
 9349W        W25823   7.808   3.817   4.428 -0.1612  0.5068 -0.0203
 9350W        W25824   0.617   2.559  11.182 -0.0784 -0.1847  0.0535
 9351W        W25825  10.899   0.378  12.843 -0.1338 -0.1419 -0.4668
 9352W        W25826  18.088  10.462   2.388  0.1168  0.3079  0.1498
 9353W        W25827   5.025   5.787   1.815  0.2241  0.2536 -0.0441
 9354W        W25828  11.112  15.629  11.078  0.0303 -0.0921  0.1811
 9355W        W25829  16.876   2.249   1.204 -0.0581  0.0346  0.0402
 9356W        W25830  15.795   6.557   4.510 -0.0953  0.0048 -0.0685
 9357W        W25831   7.906  17.392  11.823  0.0223 -0.0067 -0.3712
 9358W        W25832   1.353   0.055  10.750  0.0022 -0.0404 -0.1064
 9359W        W25833  16.200   3.062   0.854 -0.1774  0.0163  0.1189
 9360W        W25834   1.927   6.136   1.269  0.0688  0.2540  0.2825
 9361W        W25835  12.040   8.342  14.054 -0.2390  0.1032  0.0962
 9362W        W25836   8.364   8.109   4.499 -0.2552 -0.2055  0.1760
 9363W        W25837  14.463   5.118   4.061  0.2825  0.2032  0.1741
 9364W        W25838   3.369   7.729  14.308 -0.1411  0.1339  0.1125
 9365W        W25839   6.047   8.561   1.411  0.0703 -0.3825  0.2517
 9366W        W25840  13.807  12.018   4.585 -0.0272  0.2619  0.2072
 9367W        W25841   8.444   0.647  12.599  0.0895 -0.1391  0.0559
 9368W        W25842  13.218  14.385   4.053  0.0564  0.0011 -0.2990
 9369W        W25843   8.883  18.327  13.450 -0.1132  0.2533  0.0007
 9370W        W25844  10.327   9.368   1.721  0.2982 -0.1395  0.2101
 9371W        W25845  13.900   0.370   4.456 -0.4328  0.0979  0.2354
 9372W        W25846  15.463  14.281   1.055  0.3098 -0.2143 -0.2820
 9373W        W25847  16.260   5.059  14.013 -0.1944  0.0917 -0.1051
 9374W        W25848  13.832  17.989  11.339 -0.2571  0.2173  0.1141
 9375W        W25849  13.595   6.771  11.090 -0.0726 -0.3782  0.4152
 9376W        W25850  16.049   0.353  13.610 -0.0309  0.2623 -0.0704
 9377W        W25851  15.125  18.343   3.450 -0.1041 -0.1172 -0.0358
 9378W        W25852   9.644   6.453  12.318  0.1210  0.0191  0.3987
 9379W        W25853  18.064  14.235   1.345  0.2167  0.1275 -0.2929
 9380W        W25854   3.758   6.782   1.061 -0.1180 -0.4028 -0.0645
 9381W        W25855   2.802  15.894  12.088  0.2168 -0.2569  0.0570
 9382W        W25856   7.886   0.304  12.873  0.2207  0.2126 -0.0130
 9383W        W25857   8.694  18.214   1.116 -0.0971 -0.1256 -0.0291
 9384W        W25858   1.630  18.678  11.144  0.1159  0.0616  0.1511
 9385W        W25859   5.239   8.880   4.026  0.2849  0.1755 -0.0113
 9386W        W25860   4.576   0.395  11.775  0.2337 -0.0615  0.0030
 9387W        W25861  17.163  12.925   0.365 -0.0909 -0.1191 -0.3581
 9388W        W25862  14.351  14.449  14.341 -0.0271  0.1847 -0.2851
 9389W        W25863   0.197   5.482   1.262 -0.0606 -0.1346  0.2564
 9390W        W25864  19.561   6.047   3.461  0.2155 -0.3133 -0.1379
 9391W        W25865  18.985   0.366   4.651  0.1045  0.2716  0.1993
 9392W        W25866  15.960  16.696   0.186  0.0814  0.1119  0.0019
 9393W        W25867  16.013  17.632   9.904  0.1499  0.1116 -0.0524
 9394W        W25868   5.005  17.340  10.231 -0.1182 -0.3056  0.0811
 9395W        W25869   4.675  15.850  12.570  0.0896  0.0521  0.0820
 9396W        W25870  12.465  13.465   4.686  0.3089  0.0520 -0.1015
 9397W        W25871   3.633   5.251  13.607 -0.0305  0.1354 -0.0684
 9398W        W25872   2.439  15.574  11.264  0.1934 -0.3112 -0.1934
 9399W        W25873  17.289  18.125   2.758  0.5179 -0.1243 -0.2189
 9400W        W25874  17.726  16.524   5.090 -0.2935 -0.1034 -0.0183
 9401W        W25875  19.249  19.119  11.108  0.0563 -0.3474 -0.3686
 9402W        W25876  15.385   7.559  12.877 -0.0645 -0.0578  0.0673
 9403W        W25877  16.967   2.447  14.056 -0.0537  0.0327  0.0889
 9404W        W25878  15.062   5.212   4.105 -0.0173  0.1908  0.1519
 9405W        W25879   8.085  18.575  13.013 -0.2310 -0.1618  0.1117
 9406W        W25880  14.397  14.944  12.620 -0.2089  0.1449 -0.0970
 9407W        W25881  15.605   4.818   3.295  0.2270  0.0201  0.1452
 9408W        W25882  15.616   4.457   2.374  0.0654 -0.0222  0.3743
 9409W        W25883   2.248   0.077   9.812  0.1091 -0.0371 -0.2180
 9410W        W25884  16.780  10.722  11.387 -0.2398  0.1536  0.0001
 9411W        W25885   4.489  14.548   2.088 -0.1062  0.3214 -0.0471
 9412W        W25886   8.703  16.089   4.664  0.1058  0.0871 -0.0175
 9413W        W25887  15.325   9.199   3.548  0.2983  0.0430 -0.0900
 9414W        W25888   2.300   3.649   4.904 -0.3889  0.0216 -0.2797
 9415W        W25889  13.276   0.857   3.627 -0.3583 -0.2226  0.3440
 9416W        W25890  10.477  12.093  12.286  0.0516 -0.1044 -0.1900
 9417W        W25891  13.851  10.352  11.627  0.4020 -0.0669 -0.0616
 9418W        W25892   5.928  10.190  10.835  0.1912 -0.2093 -0.1499
 9419W        W25893  17.343   2.407  12.185 -0.4199  0.0976  0.1018
 9420W        W25894  11.622  11.916   2.313 -0.0515 -0.0899  0.2461
 9421W        W25895   0.743  12.107  11.387 -0.0641 -0.2374  0.2031
 9422W        W25896  11.017   8.995   0.544  0.1008 -0.4005 -0.4022
 9423W        W25897  14.225  16.875   1.213  0.1578  0.6576 -0.1907
 9424W        W25898   3.860  16.611   3.869 -0.3505 -0.2012  0.0457
 9425W        W25899  12.346  18.463   4.223 -0.2586  0.3802  0.0163
 9426W        W25900   8.750   2.286  10.541 -0.0856  0.2465  0.1591
 9427W        W25901  12.691  16.250   1.385  0.2080  0.0871  0.2641
 9428W        W25902  17.809  13.597  11.941  0.1682 -0.1491  0.2374
 9429W        W25903   7.723   2.887   1.081 -0.0026  0.0822  0.1746
 9430W        W25904  10.049  12.989   1.802  0.1107  0.0210  0.0714
 9431W        W25905  11.238   4.718   4.245 -0.2043  0.0876  0.3807
 9432W        W25906   5.999   0.177  12.803  0.1242  0.0185 -0.2578
 9433W        W25907  17.922  17.883  12.894 -0.3040 -0.0802  0.2893
 9434W        W25908   2.308   4.149   1.336 -0.1939  0.1772 -0.4644
 9435W        W25909  13.005   5.172  14.438 -0.1877 -0.1119  0.4795
 9436W        W25910  10.252  15.699   0.108 -0.0185 -0.2160  0.0747
 9437W        W25911   9.175  10.658  12.361  0.1483  0.1252  0.1612
 9438W        W25912   7.516  16.186   0.384 -0.0771 -0.3345 -0.1904
 9439W        W25913   6.429   4.486  11.433 -0.0639 -0.1888 -0.1577
 9440W        W25914   7.591   2.431  13.838 -0.1304 -0.1158  0.1821
 9441W        W25915   0.096   8.154   0.894  0.0909 -0.0655  0.1144
 9442W        W25916   3.700   5.451   9.918  0.1483  0.0325 -0.1670
 9443W        W25917   5.275  12.212  10.681 -0.0072 -0.0977 -0.1452
 9444W        W25918   3.160  12.102   0.486  0.0851 -0.0707  0.3714
 9445W        W25919   5.079  18.763  13.869  0.1263  0.1239 -0.1573
 9446W        W25920   4.053  18.711  14.318  0.2881 -0.0990  0.2103
 9447W        W25921  14.016   2.042   3.770 -0.0173  0.0455 -0.1012
 9448W        W25922  10.736   0.932  11.344 -0.3496  0.0370  0.2277
 9449W        W25923   0.053  18.959   1.969 -0.1296 -0.0051  0.3661
 9450W        W25924   5.849   0.948  13.486 -0.1410  0.3439 -0.0888
 9451W        W25925  17.960  17.725  13.426  0.0237  0.1001  0.1667
 9452W        W25926   2.756  17.328  14.113 -0.1779 -0.1031 -0.1397
 9453W        W25927  17.015  11.197   2.871  0.0770 -0.1378 -0.2561
 9454W        W25928  12.682   9.319   1.430  0.0126 -0.0802  0.4384
 9455W        W25929   5.551  10.070  13.618 -0.0755 -0.0918 -0.2063
 9456W        W25930  13.491  11.826  12.439 -0.3153  0.0596  0.1458
 9457W        W25931  18.032   1.724  11.284  0.1210  0.2118  0.0147
 9458W        W25932   9.859  11.705  12.335 -0.2451 -0.0248 -0.1714
 9459W        W25933  14.176  16.720   5.164  0.0538  0.1544 -0.2739
 9460W        W25934  16.526   6.381   0.331  0.0268 -0.2431  0.0977
 9461W        W25935   1.492   6.137  12.845 -0.0047 -0.0917  0.0709
 9462W        W25936   7.735  14.176   1.316  0.1648  0.1507 -0.4003
 9463W        W25937   1.901  15.106   3.539  0.2212 -0.0846  0.0905
 9464W        W25938  12.506  11.470   2.150  0.0642 -0.1588 -0.3180
 9465W        W25939   1.259   4.672   3.981  0.0767 -0.1957 -0.3834
 9466W        W25940  18.129  13.975  13.402 -0.0222 -0.1626  0.0711
 9467W        W25941   7.433  14.182   3.099  0.1634 -0.1643  0.0865
 9468W        W25942   8.427   9.529  11.491  0.0711 -0.0683  0.4051
 9469W        W25943  14.964   6.696   2.776  0.0160 -0.2567 -0.0812
 9470W        W25944   5.036  14.969  13.587 -0.0505  0.3261 -0.2539
 9471W        W25945   5.413  15.389   0.485  0.0807 -0.1519  0.3275
 9472W        W25946   3.873  13.427   1.519  0.0055 -0.0814 -0.2012
 9473W        W25947  19.338  12.579   3.299  0.1563  0.3498  0.0423
 9474W        W25948  13.482   7.948   0.380  0.0844 -0.1109 -0.0963
 9475W        W25949   7.200   9.453   0.507  0.1309 -0.2228 -0.2033
 9476W        W25950  13.355   2.880   2.427  0.1336  0.0879  0.2437
 9477W        W25951  15.473  13.316  10.735  0.1852 -0.1326 -0.1266
 9478W        W25952   4.500  18.787  14.070  0.2018 -0.0078  0.0195
 9479W        W25953  19.351  16.120   4.725 -0.1051 -0.1062  0.0926
 9480W        W25954   2.302  10.819   0.896 -0.3286 -0.2116  0.1057
 9481W        W25955   5.261  16.458  10.682  0.2759 -0.0814 -0.1528
 9482W        W25956  18.793   9.235  11.862 -0.3573 -0.0235 -0.0544
 9483W        W25957  16.498  17.549  13.976 -0.2010 -0.0270  0.2863
 9484W        W25958  10.038  16.655   1.420 -0.1253 -0.3732 -0.2277
 9485W        W25959  10.374  10.264   4.076 -0.0146  0.2201  0.0918
 9486W        W25960  19.185  15.749  13.488 -0.1620 -0.1176  0.3655
 9487W        W25961   6.290  17.131   3.457  0.1418  0.7065  0.1144
 9488W        W25962   6.963   1.170  10.347 -0.0046 -0.2129 -0.3943
 9489W        W25963  10.550   0.321   1.099 -0.3341  0.0153 -0.0523
 9490W        W25964  11.381  17.673  13.471  0.0322 -0.0698  0.1483
 9491W        W25965   2.030   5.828  11.991  0.0968  0.1318  0.1138
 9492W        W25966   8.031  16.472   0.958  0.0529 -0.0825  0.0142
 9493W        W25967   6.990  14.022   8.962 -0.0591  0.2041  0.0397
 9494W        W25968   3.820  14.039  14.197 -0.1209 -0.0884  0.0441
 9495W        W25969   4.601   2.355  11.754 -0.2394 -0.1548  0.0041
 9496W        W25970   8.890   6.800   1.979 -0.1184 -0.2256  0.2536
 9497W        W25971  18.987  18.589  11.124 -0.1953 -0.3717 -0.1183
 9498W        W25972   3.713  16.040  12.033  0.1154  0.1258 -0.1867
 9499W        W25973   5.634   5.478  13.216 -0.0124 -0.1172  0.0365
 9500W        W25974  14.571  19.108  11.070  0.2969  0.2502  0.0240
 9501W        W25975   1.299   2.483  13.846  0.1620 -0.1945 -0.1317
 9502W        W25976  16.029   8.339   5.310  0.1812  0.1362 -0.1590
 9503W        W25977  15.869  14.672   5.508  0.2272 -0.0084  0.0194
 9504W        W25978   8.665  18.099   2.967 -0.0212  0.2221  0.0665
 9505W        W25979  12.247   3.933   2.794  0.0995  0.3409  0.2459
 9506W        W25980   8.510  13.742  10.071 -0.0400  0.0994 -0.0753
 9507W        W25981   2.689   7.248  10.621 -0.2202  0.2611 -0.1685
 9508W        W25982  17.289  13.854   9.094 -0.0947 -0.2237  0.4289
 9509W        W25983  18.936  12.218   2.621 -0.1432 -0.0594  0.3143
 9510W        W25984  12.457   4.767  11.055  0.0166  0.1426 -0.1674
 9511W        W25985   8.061  11.945   3.663 -0.0906  0.1418 -0.0521
 9512W        W25986  15.917   6.091  11.345 -0.4213 -0.3829  0.0473
 9513W        W25987  14.633   8.267   1.046  0.1683 -0.2528  0.0915
 9514W        W25988  10.954   1.779   4.434  0.3837  0.0021 -0.0821
 9515W        W25989   9.910   3.701  10.633 -0.1926 -0.0607  0.1679
 9516W        W25990  11.170   9.033   9.506  0.0425 -0.0824  0.0470
 9517W        W25991  12.911  18.270   2.166  0.0591 -0.1365  0.0435
 9518W        W25992  13.872   0.606  13.082  0.1743  0.2395 -0.0610
 9519W        W25993  10.742   8.680   3.328 -0.0906 -0.3920 -0.0459
 9520W        W25994  18.308  18.820   1.980  0.0032 -0.0389 -0.2392
 9521W        W25995  16.982  14.797   5.112 -0.0683  0.1647  0.0411
 9522W        W25996  11.936  14.209  13.382  0.1688 -0.0655 -0.1120
 9523W        W25997   5.950  12.542   0.697  0.0003 -0.0587 -0.0503
 9524W        W25998   1.871  14.888   2.398  0.1891 -0.1187 -0.4012
 9525W        W25999  14.284   5.474   5.708  0.1965 -0.0636 -0.2616
 9526W        W26000   5.345   6.456   2.465 -0.0704 -0.3646  0.5135
 9527W        W26001   4.397  15.584  10.573 -0.2907 -0.1707  0.0662
 9528W        W26002   7.559  11.166  12.746  0.0262  0.1061  0.1256
 9529W        W26003  15.056  13.876   3.827  0.3268  0.4422  0.0390
 9530W        W26004  12.961  13.463   1.670 -0.3385 -0.1754 -0.1163
 9531W        W26005  12.653  19.284   5.107  0.0531  0.1565  0.2227
 9532W        W26006  16.138  16.224  10.270 -0.1372  0.0383  0.1751
 9533W        W26007  17.570   1.892   5.212  0.0511  0.1947  0.1767
 9534W        W26008  16.637  13.819  14.027 -0.2259 -0.3642  0.0718
 9535W        W26009  13.201   2.018   0.289 -0.2126  0.1284  0.0739
 9536W        W26010  11.651   6.657   2.582 -0.2824 -0.3841 -0.1204
 9537W        W26011   9.367  15.682   9.947  0.1047 -0.2195 -0.0377
 9538W        W26012  10.241   0.468   4.706 -0.1077 -0.0962  0.3922
 9539W        W26013  11.131  16.492   0.560  0.3428 -0.2516  0.3742
 9540W        W26014  18.435   4.393   4.912 -0.1304  0.3156  0.0732
 9541W        W26015   7.549   2.898   1.986  0.0475 -0.2189 -0.2108
 9542W        W26016   6.339  12.062   4.817 -0.2783 -0.0751 -0.0836
 9543W        W26017  13.092  17.508  14.590  0.2839 -0.1214  0.3253
 9544W        W26018  11.496   6.596   1.238 -0.3322  0.0580  0.0324
 9545W        W26019   5.538  16.608  10.332  0.1692 -0.3503  0.0772
 9546W        W26020   9.166   8.909   0.164  0.0108  0.3077  0.1980
 9547W        W26021   5.513   8.697  12.973  0.0231 -0.3266 -0.2982
 9548W        W26022  12.727  14.558   2.737  0.0169  0.3713  0.4246
 9549W        W26023  16.129  12.309  10.838  0.4622  0.1603  0.2913
 9550W        W26024  11.570   9.537   1.931  0.1717 -0.0884  0.0130
 9551W        W26025  12.644   7.600   0.757  0.1346 -0.0898 -0.4212
 9552W        W26026   7.725   2.810   0.173  0.5517 -0.0453 -0.1989
 9553W        W26027   9.036  12.611   0.336  0.2247 -0.0993  0.3857
 9554W        W26028   6.756  11.766   1.534  0.2695  0.1842 -0.1113
 9555W        W26029  12.013   1.155  11.851 -0.0487  0.0083  0.2420
 9556W        W26030   6.351   9.845   3.300  0.1159 -0.2094  0.1858
 9557W        W26031  14.399   7.794   0.957  0.1062 -0.3953  0.0437
 9558W        W26032   3.444  18.846  13.180  0.2898  0.1889  0.0208
 9559W        W26033  14.186   7.773   1.392  0.1011 -0.1807 -0.0513
 9560W        W26034  17.662   9.156   1.171  0.4008  0.0340  0.0883
 9561W        W26035  10.054  13.980   3.559  0.1353  0.1337  0.1779
 9562W        W26036   3.863  18.239   4.370  0.0701  0.1817 -0.0707
 9563W        W26037  18.678   6.697   4.877  0.3966  0.0409 -0.4559
 9564W        W26038  18.925   4.253   1.590 -0.2936  0.1117 -0.0349
 9565W        W26039  16.331   4.646   3.660  0.0794 -0.1837  0.2133
 9566W        W26040  12.847  14.462   9.429  0.0499 -0.0203 -0.1612
 9567W        W26041  10.821   6.726  13.428  0.0505 -0.2792 -0.0090
 9568W        W26042   5.766   7.113   1.632 -0.2477 -0.0748 -0.1752
 9569W        W26043   5.492  18.882   1.095 -0.3000  0.0189  0.0215
 9570W        W26044  10.952  19.375   5.506 -0.4211  0.1316  0.0705
 9571W        W26045   8.502   9.389  13.936 -0.2189 -0.0849  0.0641
 9572W        W26046   9.273  15.640  14.521 -0.1205  0.1539 -0.0647
 9573W        W26047  18.933  15.125   1.172 -0.1723  0.1254 -0.2988
 9574W        W26048  18.205   3.850  13.516  0.2411  0.3426  0.1530
 9575W        W26049   0.057  18.426   0.569 -0.2721  0.0010 -0.1661
 9576W        W26050   6.309  19.275   2.738 -0.1348 -0.0317 -0.2406
 9577W        W26051   1.198  18.530  14.270 -0.2231 -0.2791  0.0205
 9578W        W26052  10.615   1.535   1.571 -0.4351  0.1614  0.1989
 9579W        W26053  11.603  14.377   1.772 -0.1061 -0.1693  0.1260
 9580W        W26054   6.268   5.306   5.005 -0.1979 -0.1263 -0.0223
 9581W        W26055  11.257   7.549   0.835 -0.2464  0.2759 -0.1218
 9582W        W26056  18.763   2.438  11.051 -0.1494 -0.2077 -0.3678
 9583W        W26057  10.784  10.621   1.510  0.1929  0.1164  0.0086
 9584W        W26058   0.237   5.063  13.150  0.1495 -0.1222 -0.0708
 9585W        W26059   7.274   5.997   4.918 -0.2826  0.1121  0.0020
 9586W        W26060  16.086  17.178  14.109 -0.0205 -0.0449 -0.3658
 9587W        W26061   8.968  19.350   4.532 -0.0815  0.0620 -0.0070
 9588W        W26062   6.378  16.825   1.811 -0.0893  0.1523  0.0207
 9589W        W26063   2.359   1.430  11.726  0.0906  0.1488  0.0314
 9590W        W26064  16.194  16.146   1.107 -0.0183  0.1448 -0.1068
 9591W        W26065  15.842  12.431  13.109  0.0762  0.2519 -0.2152
 9592W        W26066   6.094  10.568  12.969  0.1321  0.1145  0.0663
 9593W        W26067  14.621   9.797   3.930 -0.1136  0.1640  0.2301
 9594W        W26068   0.585  18.677  11.354 -0.0969 -0.4009  0.0720
 9595W        W26069  13.673  17.619   4.734  0.0367 -0.1216 -0.1269
 9596W        W26070  16.690  17.007   2.362 -0.0543 -0.1010 -0.1488
 9597W        W26071  18.601  12.270   0.404  0.1048  0.0330 -0.2906
 9598W        W26072  10.664  16.217   1.889 -0.0272  0.2398 -0.0530
 9599W        W26073   2.912  11.448   9.454  0.1012  0.0673  0.0939
 9600W        W26074  13.247  11.972   0.105  0.3379 -0.4393  0.0279
 9601W        W26075   3.979   2.846   4.789  0.3400  0.2344  0.0543
 9602W        W26076  17.263   1.724   2.141 -0.0063 -0.2806  0.0593
 9603W        W26077  15.759   0.923  10.198 -0.0670 -0.4158  0.1305
 9604W        W26078   6.514  17.171   9.981 -0.0698  0.4395  0.2737
 9605W        W26079  14.395  14.443  12.447 -0.0900  0.0239  0.1679
 9606W        W26080   2.111  13.705  10.475 -0.2410 -0.1277  0.0223
 9607W        W26081  11.740  15.115  11.506 -0.1150  0.2709  0.3860
 9608W        W26082  10.959   0.337  14.430 -0.0337  0.2440  0.2881
 9609W        W26083  18.449  16.857   3.525  0.0332 -0.0175 -0.2954
 9610W        W26084  14.920   9.850   0.123  0.1818  0.1067 -0.1322
 9611W        W26085   3.409   8.255  11.660 -0.0520 -0.1914 -0.1660
 9612W        W26086  17.083  13.445  10.557 -0.2831 -0.3195  0.0447
 9613W        W26087  15.116  18.141  10.679  0.1261  0.1997  0.1115
 9614W        W26088   0.176   6.626   1.807  0.0156 -0.1783 -0.0204
 9615W        W26089   2.553  14.702  13.982  0.1168 -0.1538  0.0051
 9616W        W26090   0.162  18.479  12.835  0.0547  0.3518 -0.0163
 9617W        W26091   1.260   8.832   5.499  0.0305  0.5316  0.2508
 9618W        W26092   6.958  12.540  11.557 -0.2555  0.1878 -0.0383
 9619W        W26093   7.374   4.865   9.959 -0.1204  0.2097 -0.1796
 9620W        W26094   9.093  15.008   3.194  0.0549  0.2481 -0.0847
 9621W        W26095  10.459  10.445  12.482  0.0156 -0.1658  0.0794
 9622W        W26096  16.426  15.060   0.451  0.1835  0.0205 -0.1006
 9623W        W26097   1.738  17.873  11.374  0.0928 -0.2425 -0.0268
 9624W        W26098   7.416   0.769   1.894 -0.1217  0.1611 -0.1552
 9625W        W26099  10.405  16.225  10.856  0.1525 -0.1756 -0.4847
 9626W        W26100   1.869  17.044   1.572 -0.1634 -0.0831 -0.0381
 9627W        W26101   0.712   3.172  10.724 -0.0656  0.5842 -0.2663
 9628W        W26102  15.486  10.111  13.832 -0.3999  0.2510  0.0395
 9629W        W26103  16.649   0.951   4.252 -0.0309  0.1394 -0.1594
 9630W        W26104  10.295  11.492   4.542 -0.5211 -0.2660 -0.1620
 9631W        W26105   6.880  15.240   9.795  0.0296 -0.0764 -0.2661
 9632W        W26106   2.758  19.443   1.377 -0.2198 -0.1611 -0.2608
 9633W        W26107  11.272  16.245   1.815  0.0384  0.5679 -0.0417
 9634W        W26108  15.491   6.393  10.502 -0.2982 -0.2920 -0.2832
 9635W        W26109  12.781  12.184   4.020  0.0288 -0.4062 -0.1743
 9636W        W26110   0.057  14.383   2.077  0.0185 -0.2111  0.1507
 9637W        W26111  15.202   4.274   4.096  0.1767 -0.0145  0.1553
 9638W        W26112  16.000  18.152   3.567  0.2555 -0.0493  0.0442
 9639W        W26113  13.803  12.863   2.072 -0.0139 -0.0763  0.0230
 9640W        W26114  11.213  11.067  13.596  0.2287  0.2484 -0.0828
 9641W        W26115  15.694   2.677   3.330  0.1550 -0.0901 -0.0401
 9642W        W26116  15.418   3.801  14.649 -0.0233 -0.0592  0.6133
 9643W        W26117   5.695   3.627   2.452 -0.2896 -0.1301 -0.1622
 9644W        W26118  13.955  18.786  12.664  0.1164 -0.1606 -0.3822
 9645W        W26119   0.800   1.676   1.467  0.0598 -0.0121 -0.3745
 9646W        W26120  12.455   3.191  11.822  0.0091 -0.0383 -0.1468
 9647W        W26121   6.122  14.994   4.150  0.0189 -0.1579  0.0520
 9648W        W26122   0.906  16.537   2.977  0.1975  0.1025  0.2856
 9649W        W26123   2.580  17.094   2.323  0.1909  0.3524  0.1431
 9650W        W26124   0.633   9.184   3.059 -0.0791  0.0484  0.3272
 9651W        W26125  12.278  10.037  11.161  0.0116 -0.4815  0.3533
 9652W        W26126   8.214   8.944   4.153  0.2773  0.1225 -0.3180
 9653W        W26127  16.517   9.903   2.096 -0.0452 -0.6373  0.1830
 9654W        W26128   8.050   3.317   1.216 -0.0781 -0.0903 -0.0070
 9655W        W26129   8.507  13.557   1.395 -0.0647 -0.1721  0.1549
 9656W        W26130   7.885  15.930  12.398 -0.1508 -0.3777  0.2458
 9657W        W26131   9.407  17.823  14.699  0.2057 -0.0451 -0.2241
 9658W        W26132  19.447   7.498   3.497 -0.1653 -0.0761 -0.1918
 9659W        W26133  16.595   2.907   4.611  0.2856 -0.2703  0.0316
 9660W        W26134   7.220   4.924  12.034  0.1971  0.3702 -0.0196
 9661W        W26135   7.343   4.532  11.648 -0.0805 -0.0325  0.1975
 9662W        W26136  16.554  13.136   1.550 -0.2201 -0.0625 -0.0635
 9663W        W26137   6.995   5.153  14.369 -0.0470 -0.0299 -0.0453
 9664W        W26138   9.615   6.143  11.942  0.0477  0.4358  0.0363
 9665W        W26139   8.430  17.444  11.707  0.4428  0.0596 -0.0547
 9666W        W26140   1.756  16.009  14.430  0.0058  0.4045 -0.0057
 9667W        W26141   0.058   8.746   0.844 -0.2936  0.0469  0.1626
 9668W        W26142  14.054  18.191   9.598  0.0745 -0.0129  0.0048
 9669W        W26143   0.321  18.905   5.337  0.0477  0.2950 -0.0257
 9670W        W26144   5.762   6.035   0.186 -0.0626  0.1025  0.0954
 9671W        W26145  18.311   2.160  14.078  0.2764  0.4633 -0.3819
 9672W        W26146   1.394  15.522  10.557  0.1629 -0.1137  0.0671
 9673W        W26147   4.395  18.372   4.629  0.1651  0.2594 -0.2134
 9674W        W26148  17.529  13.323  10.725 -0.2249 -0.1175  0.0048
 9675W        W26149   3.119   9.316  13.003  0.3922 -0.1868  0.2116
 9676W        W26150   0.942   7.367  12.486 -0.1840 -0.0785 -0.0193
 9677W        W26151  15.669   7.285  10.397 -0.0080  0.1474 -0.1006
 9678W        W26152  18.820  18.262  14.546  0.0219 -0.0630 -0.0915
 9679W        W26153   4.961  19.070  12.866  0.2787 -0.3961 -0.1349
 9680W        W26154  12.494   8.689  11.352  0.2255 -0.1049 -0.1993
 9681W        W26155  16.575  15.723   4.129  0.0415  0.2442  0.2084
 9682W        W26156  14.471   4.955  11.793  0.2290 -0.1625  0.0643
 9683W        W26157   3.242   6.941   1.065  0.2400 -0.0939  0.4438
 9684W        W26158   9.362   8.684   2.500  0.0630 -0.0879  0.0701
 9685W        W26159   1.649   4.657   1.820 -0.1371  0.1259 -0.2169
 9686W        W26160   9.974  11.189  11.881  0.0641  0.0874 -0.1398
 9687W        W26161  15.031   1.745   4.303 -0.0118  0.0354  0.1550
 9688W        W26162   0.766  14.648   1.560 -0.0591 -0.1430 -0.0523
 9689W        W26163   6.129   7.855  10.652 -0.0740  0.0764 -0.0271
 9690W        W26164   1.382  13.594   4.658 -0.0720 -0.1122 -0.2287
 9691W        W26165  17.079  14.219   4.180  0.2601  0.5606 -0.4153
 9692W        W26166   4.175  16.098  11.841 -0.1793  0.2054 -0.0527
 9693W        W26167  13.631  14.191   4.217  0.2212 -0.0348 -0.3573
 9694W        W26168   9.998  10.035   0.111  0.0607 -0.0592 -0.2208
 9695W        W26169  13.714   6.147   1.201  0.1540  0.2088  0.1927
 9696W        W26170   4.103   0.308  13.558 -0.5580 -0.0644 -0.0094
 9697W        W26171   1.327   3.791  10.151  0.1037  0.0929 -0.1159
 9698W        W26172  19.126  17.566   4.766 -0.1789  0.2002 -0.0722
 9699W        W26173  15.248  18.989   2.853 -0.1006 -0.0438 -0.2946
 9700W        W26174  18.413  14.216  13.747 -0.0765 -0.1934 -0.0511
 9701W        W26175  12.039   8.766  13.641 -0.1620 -0.2900 -0.0131
 9702W        W26176   1.411   9.523   4.287  0.1244  0.0761  0.1695
 9703W        W26177  10.901  10.356   1.873  0.1913  0.0749 -0.0049
 9704W        W26178   4.384  18.616  11.586  0.4079  0.1753 -0.2876
 9705W        W26179  12.626   8.606   2.507  0.1284 -0.1385 -0.1641
 9706W        W26180  13.007  10.534  11.449  0.1817 -0.0969 -0.0547
 9707W        W26181   7.982  17.586  11.394 -0.1461 -0.2890  0.0176
 9708W        W26182   8.556  17.855  12.699 -0.1788  0.1547 -0.2024
 9709W        W26183   5.062   9.963  12.824 -0.0433 -0.2409  0.0590
 9710W        W26184   6.701   8.034   2.220  0.2567 -0.4267 -0.0150
 9711W        W26185   8.521  16.280   1.721 -0.0376 -0.0913 -0.1026
 9712W        W26186   9.136  13.693  13.296 -0.0007  0.0838 -0.2258
 9713W        W26187   8.129   6.785  13.608  0.0642 -0.2086 -0.0990
 9714W        W26188  16.405   0.819   3.823 -0.1785 -0.1245  0.2771
 9715W        W26189  19.260  14.345   2.868 -0.1935 -0.1497  0.2736
 9716W        W26190  17.188  18.506   3.558  0.0535  0.1312 -0.1438
 9717W        W26191  17.968  15.983   3.239 -0.2814  0.2253 -0.2029
 9718W        W26192   9.786   6.196   0.931 -0.2341  0.0752 -0.1374
 9719W        W26193  14.871   6.213   5.400 -0.1609 -0.3120  0.1583
 9720W        W26194  15.857  17.548  12.796  0.0061  0.1153 -0.0931
 9721W        W26195  14.896  14.126   1.959 -0.5258  0.1980  0.0676
 9722W        W26196   5.321  11.128  14.479  0.2170  0.5367 -0.0793
 9723W        W26197   5.268   0.069  10.665  0.0656  0.1421  0.0252
 9724W        W26198  10.693  10.319   0.372 -0.2859  0.1124  0.0799
 9725W        W26199   7.572  15.695   0.088 -0.1985 -0.0234  0.2799
 9726W        W26200  16.776   7.995   0.332 -0.0235 -0.0189 -0.2326
 9727W        W26201  11.312  12.064   0.026 -0.0803  0.2470 -0.0196
 9728W        W26202  18.131   8.018  10.439  0.1167 -0.2565  0.1095
 9729W        W26203   4.351  13.711   4.484  0.1275 -0.0203 -0.4938
 9730W        W26204   5.109   8.264  14.363  0.0620  0.1814  0.3451
 9731W        W26205   1.056   3.311   4.364  0.0070 -0.0723 -0.2453
 9732W        W26206  19.193   2.147   1.422  0.0526  0.1221 -0.1405
 9733W        W26207   9.089   5.823  13.374 -0.4261 -0.1455 -0.3603
 9734W        W26208  13.744  17.514  10.323  0.0228  0.1471 -0.1163
 9735W        W26209  17.412   3.803  11.586  0.0258 -0.2935 -0.2186
 9736W        W26210  19.506  10.316  12.297  0.1699  0.0439  0.0691
 9737W        W26211   5.890  15.345   9.790  0.2278 -0.1906 -0.0003
 9738W        W26212  16.890   6.171   4.834 -0.1473 -0.0213  0.2190
 9739W        W26213   7.664   7.592  13.777 -0.0920 -0.4316  0.0362
 9740W        W26214  13.572  14.796  13.795  0.2072  0.2209 -0.0187
 9741W        W26215   7.842  17.990  13.104 -0.0124 -0.0971 -0.2064
 9742W        W26216  13.531  10.547  11.226  0.0847  0.2563 -0.0367
 9743W        W26217   1.593  11.686   1.688 -0.1626 -0.0425 -0.0592
 9744W        W26218  19.383   2.879   3.969 -0.3124  0.1447  0.0425
 9745W        W26219  10.504   6.987   5.779 -0.2195 -0.1128  0.0233
 9746W        W26220   2.427  11.306   3.079 -0.2780  0.2355 -0.2562
 9747W        W26221   1.349  16.953   1.569  0.3080 -0.1563 -0.0631
 9748W        W26222  11.149  14.390   1.066  0.1038 -0.2403  0.1201
 9749W        W26223   6.522   9.614   5.141 -0.1880  0.0878 -0.2428
 9750W        W26224   6.370   4.767  12.408  0.2832 -0.0518  0.1116
 9751W        W26225  17.211   2.744   4.255 -0.0951  0.3073  0.0592
 9752W        W26226   6.593  12.119   1.114 -0.0959  0.0976 -0.0851
 9753W        W26227   6.197   2.436  10.488  0.2823  0.0113  0.0597
 9754W        W26228  12.510  17.713  12.873  0.0422 -0.4437  0.1124
 9755W        W26229  17.852   2.120  10.376  0.1902  0.3196 -0.1394
 9756W        W26230  13.278  10.013   4.904  0.1636 -0.0961 -0.0400
 9757W        W26231   2.351  17.010  14.102 -0.2242 -0.2794  0.2563
 9758W        W26232   2.877   7.186  11.144 -0.0713  0.0545 -0.0305
 9759W        W26233   4.233  18.418   9.618  0.0151 -0.1681 -0.0644
 9760W        W26234   2.434  12.466   1.599 -0.1629  0.1806 -0.2394
 9761W        W26235  18.564   5.550  10.381  0.1114  0.1796 -0.0079
 9762W        W26236   6.574  11.655   2.442  0.2434  0.1184  0.0642
 9763W        W26237   0.033  10.375  14.253 -0.1000 -0.0935 -0.0130
 9764W        W26238   6.003   9.137   0.062  0.0734 -0.1332  0.0671
 9765W        W26239   6.409  14.303  13.936 -0.3875  0.0751  0.0180
 9766W        W26240  10.607   0.414  10.121 -0.0978 -0.2932 -0.0547
 9767W        W26241  14.986  16.931  12.080 -0.3270  0.0095  0.3253
 9768W        W26242   7.401  13.299   0.377  0.3148 -0.2058  0.5132
 9769W        W26243  17.603   9.404  13.136  0.1729  0.1198 -0.3485
 9770W        W26244   7.085  16.252   2.719  0.0099  0.5928 -0.2521
 9771W        W26245  10.621   6.008  11.040  0.0632  0.0075 -0.0496
 9772W        W26246   0.755   2.335   4.614  0.1220  0.1988 -0.0193
 9773W        W26247  15.997  19.285  10.789  0.3725 -0.2364 -0.2582
 9774W        W26248   2.946  15.961   2.877  0.2378 -0.1762  0.2792
 9775W        W26249  17.733   6.010   3.701 -0.1616  0.2291 -0.1322
 9776W        W26250  18.569   3.598   1.401 -0.1944  0.1072 -0.0322
 9777W        W26251   8.657  10.168   3.496  0.0199  0.2038  0.1807
 9778W        W26252  11.261  14.036  12.877  0.1588  0.0428  0.1302
 9779W        W26253   3.176  12.315   4.658  0.0603 -0.4733 -0.1038
 9780W        W26254  11.029  11.079   9.539 -0.1467  0.1102 -0.0172
 9781W        W26255   1.622   1.248   3.467 -0.0314 -0.0467  0.0292
 9782W        W26256  15.102   9.679   4.138 -0.0959  0.1020 -0.2723
 9783W        W26257  12.271  16.325  11.583  0.0675  0.1408  0.0677
 9784W        W26258  17.391   2.319  10.202 -0.0890  0.2151 -0.1264
 9785W        W26259  10.242  10.939  12.290  0.1863 -0.2345 -0.3428
 9786W        W26260  11.471   3.867  14.093  0.1179  0.1298 -0.1913
 9787W        W26261   8.219  15.513  11.453 -0.4427  0.1504 -0.1708
 9788W        W26262   1.825   7.984  11.754  0.2132  0.1021  0.0972
 9789W        W26263  16.641   7.492   3.406 -0.2139 -0.0584  0.1679
 9790W        W26264  11.995   6.194   4.842 -0.0109  0.4009  0.0977
 9791W        W26265   4.041  10.118   1.735  0.1545  0.4803 -0.1196
 9792W        W26266  18.301   5.213  12.632 -0.1138 -0.0276 -0.0322
 9793W        W26267  17.757   7.248  13.907  0.0854  0.0641 -0.1173
 9794W        W26268  16.902  12.857   1.759  0.0972  0.0122  0.0771
 9795W        W26269  17.301   8.720   0.314  0.0635 -0.0842 -0.3047
 9796W        W26270   4.437   1.485   4.309 -0.0741 -0.3120  0.2315
 9797W        W26271  17.951  12.583  13.038 -0.0194  0.0969 -0.3523
 9798W        W26272   0.973  13.868  14.181  0.1472 -0.1605  0.0655
 9799W        W26273  19.320   1.675   9.262 -0.1210 -0.1156 -0.1351
 9800W        W26274   5.615  13.231  10.481 -0.1768  0.0894 -0.1421
 9801W        W26275   2.222   6.113   2.903 -0.0327  0.1575 -0.4067
 9802W        W26276  16.474   2.716  14.003  0.0686  0.0215  0.0881
 9803W        W26277   5.417  18.490  13.046 -0.1582  0.0254 -0.0443
 9804W        W26278   7.763  11.207   5.389 -0.2227 -0.1408 -0.0987
 9805W        W26279   6.977  15.148   2.485  0.0085  0.0671  0.3325
 9806W        W26280  18.967   0.356  12.927 -0.5301  0.0776 -0.0736
 9807W        W26281  16.396  18.410   3.723  0.0222 -0.1245  0.6009
 9808W        W26282  19.553   7.065   1.551 -0.1015 -0.3347 -0.1111
 9809W        W26283  10.609   4.550   4.027  0.0794 -0.1754 -0.2213
 9810W        W26284   4.048   4.543  11.959 -0.4404 -0.1570  0.0841
 9811W        W26285   9.275  13.971   0.563  0.1161 -0.4127 -0.2027
 9812W        W26286  18.611  13.276  13.178 -0.1643 -0.0892  0.0249
 9813W        W26287   7.225   2.065   0.619 -0.0279  0.1819 -0.4011
 9814W        W26288  17.878  11.155   0.390  0.0772  0.0205  0.1363
 9815W        W26289   6.056   3.362   2.276  0.1493  0.1291 -0.1208
 9816W        W26290   2.456   3.195  11.853  0.1508  0.3540 -0.0369
 9817W        W26291  14.938   2.101   3.703 -0.1513 -0.1580 -0.0935
 9818W        W26292  18.042  14.799  12.241 -0.2984 -0.1560 -0.1464
 9819W        W26293   1.241   2.818  13.064  0.0468 -0.3204 -0.3577
 9820W        W26294  14.684   4.284   0.057 -0.1175 -0.0125  0.0872
 9821W        W26295  12.548  11.021   3.428  0.1290  0.0689 -0.1339
 9822W        W26296  14.730  11.473  11.608  0.3106 -0.0808  0.0460
 9823W        W26297   2.336   7.579  14.489 -0.2346 -0.1364  0.0698
 9824W        W26298   6.038   6.141  10.339 -0.0171 -0.1021 -0.0289
 9825W        W26299   9.760  11.532   1.489  0.1616  0.2472  0.3220
 9826W        W26300  11.754  13.063   2.544  0.2419  0.3588  0.0336
 9827W        W26301  19.051   4.309  10.224 -0.0581 -0.0744 -0.0705
 9828W        W26302   3.170  11.367   2.355  0.0835 -0.0974  0.1885
 9829W        W26303   0.097   9.828  13.560 -0.2105  0.2070 -0.1776
 9830W        W26304   8.509  12.571   0.275 -0.3519  0.0194  0.0709
 9831W        W26305   0.969   9.367  10.714  0.0379 -0.3926 -0.2235
 9832W        W26306  16.311   8.093   5.652 -0.5068  0.0241  0.0030
 9833W        W26307   7.929  12.150   3.015 -0.3642 -0.0191 -0.0324
 9834W        W26308  14.742  18.246  13.488 -0.2013  0.2586  0.1549
 9835W        W26309   9.911   8.848  13.371 -0.0599  0.0710 -0.2452
 9836W        W26310  13.347   6.128   0.309  0.0901  0.1240 -0.0331
 9837W        W26311   4.803  18.152   4.440  0.0934 -0.3479  0.2462
 9838W        W26312   4.139   9.012  10.585 -0.3814 -0.2271 -0.2359
 9839W        W26313  14.360  12.758   1.280  0.0516  0.2578 -0.2019
 9840W        W26314  18.645   5.072  13.419 -0.2596 -0.4834 -0.1370
 9841W        W26315   5.096  14.290  10.391 -0.2028 -0.0070 -0.2285
 9842W        W26316  11.680  15.172   0.110 -0.1557 -0.0420  0.0427
 9843W        W26317   8.703  11.910   2.681  0.0699 -0.2558  0.0183
 9844W        W26318   9.664  15.909  10.988  0.1108  0.1591 -0.0193
 9845W        W26319  13.998  12.464   0.077 -0.0643  0.4519 -0.2328
 9846W        W26320  16.005  14.989  14.233 -0.0037  0.0007 -0.0174
 9847W        W26321  19.175   9.298  13.003  0.0912  0.2344 -0.1461
 9848W        W26322  17.421   2.292  11.379  0.0052  0.2288  0.2464
 9849W        W26323   6.094  19.289  12.835  0.0427  0.0334  0.0146
 9850W        W26324   4.499   0.903   4.132 -0.1516  0.0398 -0.2359
 9851W        W26325  10.111  13.787   4.657 -0.0862  0.1195  0.0838
 9852W        W26326   9.474   4.268   2.711 -0.2260 -0.4183 -0.3441
 9853W        W26327   4.994   0.630   0.394  0.4440  0.2281 -0.1546
 9854W        W26328  11.826  11.315   0.416  0.2557 -0.0777 -0.1080
 9855W        W26329   4.636   0.521   0.016  0.0367  0.0069  0.2463
 9856W        W26330   6.173  10.665  14.265 -0.0300  0.0103  0.1026
 9857W        W26331  14.393   7.299   1.261  0.0751  0.2442 -0.2898
 9858W        W26332  15.355  15.690  11.066 -0.0434 -0.3370 -0.2152
 9859W        W26333   8.525  16.021   1.145  0.0210 -0.0922 -0.1550
 9860W        W26334  18.373   0.713  11.428 -0.2411 -0.3532 -0.0659
 9861W        W26335  16.533   5.122   0.089  0.3115 -0.1942  0.0283
 9862W        W26336   6.756   0.607   9.258 -0.2047  0.0041 -0.3925
 9863W        W26337   4.951  15.284   1.839 -0.1147 -0.0359 -0.1390
 9864W        W26338   9.771   8.007  10.402 -0.0060 -0.2075  0.1907
 9865W        W26339   4.985  18.507  12.759  0.1982  0.4840  0.0828
 9866W        W26340  16.799   2.897   2.195  0.2809 -0.1064  0.0559
 9867W        W26341  18.165  14.379  14.593  0.5861  0.0043 -0.0407
 9868W        W26342  17.707  17.445   2.176 -0.1447  0.1836  0.4557
 9869W        W26343  17.432   4.344   3.585  0.1174  0.0799 -0.2140
 9870W        W26344  11.643   8.541  11.338  0.1484  0.1087  0.5373
 9871W        W26345  15.326   1.887   3.901  0.0902 -0.2104 -0.2867
 9872W        W26346  13.334  11.431   9.763 -0.0123 -0.0703  0.2682
 9873W        W26347   4.391  10.722  12.300  0.0490 -0.0394 -0.0915
 9874W        W26348   6.158   1.924  10.271 -0.1203  0.2819 -0.3823
 9875W        W26349  13.448   7.425  11.698  0.0579  0.3592  0.1511
 9876W        W26350   2.533   4.008  14.634  0.1055  0.1797  0.0953
 9877W        W26351  16.701  18.795  13.375 -0.1698 -0.1129 -0.1025
 9878W        W26352  12.140   8.016  12.018 -0.0521 -0.0446 -0.0084
 9879W        W26353  15.029  12.559   4.812 -0.2000  0.1125  0.0386
 9880W        W26354   6.410  17.983  12.181 -0.2127  0.2589 -0.0364
 9881W        W26355   1.624  11.935  12.618  0.0196 -0.2364 -0.0585
 9882W        W26356  13.776   1.722  10.609 -0.1633 -0.1886  0.0252
 9883W        W26357  12.160  15.451   1.584  0.1269  0.2569  0.1638
 9884W        W26358   5.593   3.020  11.185 -0.0866  0.0422  0.2042
 9885W        W26359   3.464   4.945   1.416 -0.0232 -0.3129  0.0989
 9886W        W26360   5.256  14.495   3.951 -0.1300  0.0031 -0.0260
 9887W        W26361  19.572   0.996   3.071  0.2300  0.0531  0.1355
 9888W        W26362   4.988  13.824  12.057  0.1356  0.0044  0.4121
 9889W        W26363   5.620  10.186   4.383  0.0816  0.1066 -0.3317
 9890W        W26364   6.603   3.543   3.013 -0.1008 -0.1547 -0.2451
 9891W        W26365  15.610   0.559  11.574 -0.0155 -0.1787 -0.0013
 9892W        W26366   8.732   5.145  12.129  0.3716  0.0727 -0.1796
 9893W        W26367  18.173  13.359   2.371 -0.2039 -0.4153  0.0390
 9894W        W26368  11.631  12.459   2.280  0.1074  0.0871  0.0469
 9895W        W26369   2.765  13.715   3.300 -0.3488 -0.0536  0.2197
 9896W        W26370   7.052  12.803  14.091  0.1149  0.0707  0.3875
 9897W        W26371  10.521  17.198   5.614  0.1131  0.0955  0.2471
 9898W        W26372  14.707  12.908  11.398 -0.0147  0.0755  0.0021
 9899W        W26373   9.517  16.566   3.345  0.2299 -0.1187  0.0013
 9900W        W26374   1.839  17.430   2.439  0.3529  0.0515  0.0326
 9901W        W26375   0.929  16.897  10.318 -0.0560  0.2898  0.0317
 9902W        W26376  17.002   0.248  10.085 -0.1198 -0.0308  0.1121
 9903W        W26377  17.979   3.174   0.768  0.1357  0.1727 -0.2735
 9904W        W26378  10.974   6.366   4.235  0.5492 -0.1645  0.0818
 9905W        W26379  15.010   7.742  11.887  0.0843 -0.0341 -0.0026
 9906W        W26380  12.520   0.684   1.608  0.0908  0.3718 -0.0587
 9907W        W26381   1.355  16.149  13.040  0.0374 -0.1633  0.0741
 9908W        W26382  13.908  19.367   0.000  0.1075  0.2327  0.2022
 9909W        W26383  12.760   7.264  14.399  0.0980 -0.2767 -0.3684
 9910W        W26384  18.913   0.476  12.413  0.2527  0.1988 -0.2466
 9911W        W26385   1.110  18.186  13.917 -0.0444  0.0855 -0.0132
 9912W        W26386   9.737   4.843  14.634  0.1363  0.0574 -0.0169
 9913W        W26387  11.978   1.212   9.526  0.0643  0.0112 -0.0807
 9914W        W26388   0.386   3.183  12.964 -0.1168 -0.2716 -0.2217
 9915W        W26389   6.827   2.728  13.552  0.0348  0.2527  0.2642
 9916W        W26390   9.480  19.503   4.568  0.3189 -0.0644 -0.0705
 9917W        W26391  18.410   2.553   0.800  0.0856 -0.2911  0.0174
 9918W        W26392   8.789  12.622   1.321  0.1576  0.0571 -0.1011
 9919W        W26393  12.857  19.559   1.609 -0.0514  0.0092  0.4143
 9920W        W26394  11.350  13.536   9.511  0.1107 -0.0315 -0.0601
 9921W        W26395   2.283  14.546   4.636 -0.1853 -0.1899  0.2838
 9922W        W26396   1.130   8.956   3.081  0.0820 -0.0782 -0.1178
 9923W        W26397   5.784   5.560   3.708 -0.2348  0.1368 -0.2263
 9924W        W26398  13.923  19.160  14.208 -0.0159  0.3035 -0.2959
 9925W        W26399  19.141   3.105  12.370 -0.1078 -0.0148  0.0248
 9926W        W26400   3.401   7.800  10.179 -0.1455 -0.1972  0.0644
 9927W        W26401  12.132  18.196  12.311  0.0851 -0.3874 -0.0427
 9928W        W26402   6.241  13.119   2.867  0.0264  0.0818 -0.0316
 9929W        W26403   3.770  18.283  11.608  0.0246 -0.2427 -0.2081
 9930W        W26404   2.772  18.917   0.523  0.0962  0.1957  0.0762
 9931W        W26405  14.245  19.298   3.975  0.0006 -0.0616  0.0196
 9932W        W26406   9.840  14.992  13.965  0.2977 -0.0741 -0.1173
 9933W        W26407   5.612  14.249  13.380 -0.2029  0.0902 -0.0746
 9934W        W26408   2.977  13.416   2.485  0.1217  0.2300 -0.1859
 9935W        W26409  12.755  18.761  13.505  0.2885  0.3252  0.2543
 9936W        W26410  14.510  11.229  13.726 -0.0740 -0.0520  0.3469
 9937W        W26411  10.834   6.419  10.839 -0.0910 -0.1105  0.2227
 9938W        W26412  15.055   1.466   0.130  0.0087  0.2146 -0.3032
 9939W        W26413  11.648   4.405  14.052 -0.1663  0.0550  0.0161
 9940W        W26414  19.452   6.149   1.917  0.2311  0.1102 -0.0515
 9941W        W26415   9.090   7.022   3.209 -0.0014  0.0482 -0.0035
 9942W        W26416  14.165   6.214   4.203 -0.0153 -0.3954 -0.2405
 9943W        W26417   4.967   0.943   1.174  0.0451  0.1464 -0.1047
 9944W        W26418   1.566   6.531  10.614 -0.3897 -0.5338 -0.1060
 9945W        W26419   7.383  16.007  11.449 -0.1635  0.1085 -0.0634
 9946W        W26420  10.726   1.272   0.264 -0.0378  0.0383  0.2198
 9947W        W26421  15.713   4.216  14.201  0.1729 -0.1559 -0.2168
 9948W        W26422   1.684  18.406  13.575  0.1603  0.1314  0.2451
 9949W        W26423   9.019  17.027  13.562 -0.3737 -0.1550 -0.0353
 9950W        W26424   5.098   1.193  13.057  0.0888 -0.1543 -0.1430
 9951W        W26425  15.135   8.103   2.455  0.0553  0.0253 -0.1965
 9952W        W26426   4.176   7.547  10.538  0.2051 -0.0403  0.4848
 9953W        W26427   4.152   8.594   2.317  0.2138  0.2837  0.0061
 9954W        W26428   5.477   0.228   3.114  0.0896  0.0930  0.1935
 9955W        W26429   3.046  16.238  13.293 -0.0694  0.0217  0.1125
 9956W        W26430  18.426  12.979   3.084 -0.1520 -0.0077 -0.1095
 9957W        W26431   5.363  18.799  11.051  0.3134 -0.1072  0.0176
 9958W        W26432  10.953  19.027  10.978  0.0558 -0.0501  0.1174
 9959W        W26433   6.103  12.799   2.247  0.0167  0.2381 -0.0959
 9960W        W26434   1.585   8.001  10.884  0.0059 -0.3427 -0.1029
 9961W        W26435   5.436  15.511   2.448  0.1532  0.5379  0.0743
 9962W        W26436  11.176   2.287   5.844  0.3071 -0.1916  0.0222
 9963W        W26437   4.204   4.669   2.935  0.1370  0.2223 -0.2910
 9964W        W26438  12.447  18.792  10.635  0.2031 -0.2679 -0.0630
 9965W        W26439   8.272   1.669   3.579 -0.0088 -0.0779  0.1184
 9966W        W26440   8.035  16.786  14.396  0.1939  0.0775  0.0346
 9967W        W26441   6.855  14.503   1.266 -0.0676 -0.1763  0.0827
 9968W        W26442   3.776  16.015   0.969  0.0480  0.0593 -0.0354
 9969W        W26443   6.051  13.343  13.018 -0.1212  0.1435 -0.0381
 9970W        W26444   8.710  13.518   3.610  0.0720 -0.1256  0.3439
 9971W        W26445  11.842  13.978   2.962 -0.0819 -0.0036  0.5778
 9972W        W26446   3.466  11.914  12.194 -0.0867 -0.3022 -0.2909
 9973W        W26447  11.126  18.906  14.100  0.2286  0.1680  0.0951
 9974W        W26448   6.379  15.620  11.538  0.0292  0.0025 -0.1497
 9975W        W26449   2.746  15.127   4.640 -0.0790  0.1062 -0.2566
 9976W        W26450  12.359  14.114   2.822 -0.1483 -0.0262  0.1091
 9977W        W26451  13.836   9.427   3.896 -0.1698 -0.0395 -0.1060
 9978W        W26452  11.236  12.235  14.282  0.0821  0.0334 -0.0420
 9979W        W26453   4.694   1.964   3.490  0.1518 -0.0199  0.0444
 9980W        W26454  16.537   1.281   0.703 -0.3931  0.4763 -0.1506
 9981W        W26455   7.077  16.485   4.390  0.1075  0.1817  0.0622
 9982W        W26456   3.081   6.836  13.842 -0.2534 -0.0454 -0.0302
 9983W        W26457  13.552  10.660   5.215  0.1196 -0.4237  0.1675
 9984W        W26458  11.306   0.648  14.572 -0.4101  0.0420 -0.0404
 9985W        W26459   5.731   1.162   2.105 -0.0981  0.2715 -0.2053
 9986W        W26460   6.471  10.558  11.387  0.0937  0.0086 -0.0088
 9987W        W26461  16.134   8.665   4.726 -0.2496 -0.1207  0.0271
 9988W        W26462  19.493   0.469  14.537  0.3234 -0.4297  0.0313
 9989W        W26463   2.740  19.404   8.965  0.1316  0.1496  0.0259
 9990W        W26464  15.182   3.699   0.390 -0.0559  0.4090 -0.3786
 9991W        W26465  18.203  16.340  11.599  0.0717  0.2213  0.1714
 9992W        W26466  13.083  18.477  11.718  0.0929  0.0366 -0.1006
 9993W        W26467   1.726   1.281   0.523  0.1265 -0.2334 -0.0242
 9994W        W26468  16.794   5.665   0.834 -0.1848 -0.2412 -0.0901
 9995W        W26469   9.972   0.970  14.649 -0.3927 -0.0687 -0.2209
 9996W        W26470   3.033  17.526   0.808 -0.2360 -0.1678  0.1128
 9997W        W26471   5.116  13.465   0.543 -0.0149  0.0283  0.0943
 9998W        W26472  16.769   1.323  10.866 -0.2241 -0.0234 -0.4010
 9999W        W26473   0.082  19.194  12.035  0.1152  0.0367  0.1538
10000W        W26474   5.634   5.670  11.188 -0.0237 -0.2093  0.7663
10001W        W26475  13.590   3.633   2.797 -0.2953  0.0804 -0.2496
10002W        W26476  12.779   2.101   5.429  0.2280  0.6045  0.3167
10003W        W26477  13.914   4.719   0.740  0.3293 -0.2153 -0.1096
10004W        W26478   5.441   2.498   3.481 -0.0670 -0.0219  0.0089
10005W        W26479   7.283  14.541   1.869 -0.3124  0.4813 -0.2637
10006W        W26480   9.114  12.179   2.851  0.0801  0.0255 -0.1337
10007W        W26481   4.977  10.064   4.627  0.0979 -0.0034  0.0275
10008W        W26482  15.070   3.819  13.052 -0.2670  0.0156 -0.2100
10009W        W26483  10.440   7.642   2.932 -0.3259  0.0100 -0.1802
10010W        W26484  10.636   8.564   2.846 -0.0294  0.0369 -0.2961
10011W        W26485   5.456  14.721  12.162  0.1577  0.0599  0.0275
10012W        W26486   0.892   0.565  14.199 -0.1145 -0.0237 -0.4289
10013W        W26487  10.778  16.781   4.729  0.0117  0.0336  0.1407
10014W        W26488  12.292   7.103  14.564 -0.1431 -0.0988 -0.1841
10015W        W26489   5.082  14.081   8.944 -0.1145  0.1045  0.0983
10016W        W26490   1.537  13.303  12.351  0.3192  0.2886  0.3481
10017W        W26491  15.261  14.889  13.416  0.0283 -0.0178 -0.0844
10018W        W26492  16.292   5.365   4.173 -0.0589 -0.1209 -0.0979
10019W        W26493  11.545   0.718   0.859  0.0284 -0.1162  0.1118
10020W        W26494  17.125  17.302  13.355  0.4843 -0.1302 -0.0952
10021W        W26495  14.546   4.732   1.389  0.2022 -0.1672 -0.2826
10022W        W26496  12.745  12.864   0.025 -0.0983 -0.0565 -0.1313
10023W        W26497  13.308   2.072  10.586  0.0950  0.0047  0.0837
10024W        W26498   3.301   1.209  11.435 -0.3684 -0.0520 -0.0670
10025W        W26499   5.119   8.005   4.441  0.1750  0.0367  0.0796
10026W        W26500   6.575  10.273   3.052  0.2200  0.1183 -0.1609
10027W        W26501  11.935  15.337  11.917 -0.4478 -0.0921  0.2512
10028W        W26502  19.505  10.704  11.481  0.1603 -0.0837 -0.0019
10029W        W26503  18.119   3.751  10.399 -0.0868 -0.0878  0.2160
10030W        W26504  13.146   9.581   2.403 -0.1979 -0.3556 -0.2451
10031W        W26505  10.415   6.993  11.033 -0.1300 -0.1836  0.3589
10032W        W26506   8.548  10.322   5.902  0.0445  0.3642  0.0361
10033W        W26507  18.524   0.960   1.822 -0.0293  0.3038  0.2159
10034W        W26508  16.736   5.671   3.988 -0.0859  0.1381 -0.2292
10035W        W26509   1.821   3.828   2.701  0.2300 -0.1105  0.0416
10036W        W26510  12.442   9.287  10.654 -0.0247  0.1152 -0.0205
10037W        W26511   3.534   9.217  13.238 -0.1498  0.1382 -0.1896
10038W        W26512   2.057  13.788   2.223 -0.3347  0.1017  0.1701
10039W        W26513   4.650   5.466   1.808 -0.0473 -0.2913 -0.0905
10040W        W26514  16.372  18.219   0.025  0.1067 -0.3335  0.2527
10041W        W26515  10.800   1.986  13.948 -0.1478 -0.0398  0.0317
10042W        W26516  14.032   7.876   0.510 -0.0252  0.0967 -0.5456
10043W        W26517  18.211   9.948   3.174 -0.0814  0.0744 -0.1995
10044W        W26518   9.766   7.416  11.600 -0.0588  0.4970 -0.2915
10045W        W26519  16.396   8.609   0.515  0.2249  0.1564 -0.5445
10046W        W26520   5.167  12.208  13.883 -0.0310  0.0828 -0.2729
10047W        W26521   9.191  13.787  11.626 -0.1446 -0.0668 -0.1461
10048W        W26522   2.578  19.286   9.782  0.0057 -0.3143 -0.1868
10049W        W26523   0.775   1.347   2.926 -0.2138  0.2077 -0.0881
10050W        W26524   5.989  13.655  12.121  0.0918 -0.0764  0.0589
10051W        W26525  11.387  18.604  11.656  0.1841  0.2187  0.1313
10052W        W26526  16.549  18.977   9.662 -0.1632 -0.0846  0.3585
10053W        W26527   6.398   4.966   1.551 -0.4998 -0.0565  0.1449
10054W        W26528   0.856   0.798  11.983  0.0887  0.0277 -0.0080
10055W        W26529  17.422  13.752   4.338 -0.1429  0.0818 -0.2052
10056W        W26530   9.592  14.148   3.809  0.0965 -0.2232 -0.0090
10057W        W26531   2.967   9.548   1.000 -0.0952 -0.0870  0.0358
10058W        W26532   4.933  13.446  13.138 -0.3425 -0.2952 -0.0648
10059W        W26533  13.631   7.484   0.575  0.0466 -0.0126 -0.1044
10060W        W26534   4.890   0.181   0.755  0.2219  0.3294 -0.0464
10061W        W26535  11.284  15.624  12.670 -0.0259  0.3189 -0.0485
10062W        W26536   1.522   4.922   2.870 -0.2733  0.2330  0.0355
10063W        W26537  18.793   1.086   0.189 -0.0107  0.2713  0.0988
10064W        W26538  15.306  18.329   1.077 -0.0258 -0.0030 -0.1592
10065W        W26539   9.193  10.979   0.804 -0.1982 -0.0356  0.0165
10066W        W26540   1.575   1.763   0.502  0.0129  0.3438 -0.2284
10067W        W26541   2.678   1.185   0.887  0.0538  0.0100  0.2067
10068W        W26542  16.250  11.992  14.049 -0.2203 -0.2782  0.3583
10069W        W26543  17.767  17.514   1.058 -0.1334  0.1410  0.0997
10070W        W26544  11.023  13.866   4.342 -0.1859 -0.1738  0.0702
10071W        W26545  12.207   3.431   2.939 -0.1710 -0.2016  0.3144
10072W        W26546   5.881  18.507  10.377  0.2351  0.2834  0.1844
10073W        W26547   7.917   4.074   5.231  0.3634 -0.1179 -0.2065
10074W        W26548   8.190   9.233   2.505  0.2665 -0.0503 -0.1630
10075W        W26549   9.276   3.369  12.797  0.1480  0.5636 -0.1792
10076W        W26550  10.326   5.088   1.873 -0.2634 -0.3159 -0.0233
10077W        W26551  12.029  17.591   4.606 -0.0669  0.2854  0.0068
10078W        W26552  11.990   7.974   0.876  0.1980 -0.2064  0.0074
10079W        W26553   3.398   0.790  12.712  0.3635 -0.1836 -0.1277
10080W        W26554  17.194   5.960   5.309  0.0375  0.0508  0.0171
10081W        W26555   5.191  12.981  13.251 -0.1221 -0.4783  0.0256
10082W        W26556  13.943  14.189  14.553  0.2294 -0.0955  0.1299
10083W        W26557  17.130   3.700  14.390  0.3648  0.1157  0.0926
10084W        W26558  17.280   7.590   2.404 -0.3632  0.1146 -0.3028
10085W        W26559   2.962   7.724   3.758 -0.2560  0.2357  0.3225
10086W        W26560  17.015   6.405   4.330  0.0012  0.0436 -0.1392
10087W        W26561   6.816  16.491  14.427 -0.1355  0.1218 -0.1395
10088W        W26562  13.174   4.949   1.320 -0.3020  0.0092  0.1585
10089W        W26563  14.424  18.367  11.902 -0.1102 -0.2076  0.3591
10090W        W26564  15.331  15.374  14.133  0.3979  0.4422 -0.2197
10091W        W26565  11.091  13.171  10.733 -0.0886  0.0403 -0.3174
10092W        W26566   4.300   5.820  11.178  0.1840 -0.0135 -0.2189
10093W        W26567  17.283  17.494   3.635  0.1542  0.0901  0.1748
10094W        W26568   2.742  13.740  11.419  0.0545  0.0787  0.0115
10095W        W26569  19.348  18.737  12.981  0.1756  0.0218  0.0739
10096W        W26570  15.536   7.033  13.833  0.1691  0.1901  0.0080
10097W        W26571  14.491   6.854  13.575  0.0649 -0.0244  0.2182
10098W        W26572   8.339   0.000  12.829  0.2153 -0.2422 -0.2070
10099W        W26573   0.369  15.719  13.643 -0.3538 -0.1109 -0.0952
10100W        W26574   5.208   9.162   5.084 -0.0724  0.0044 -0.1295
10101W        W26575  16.334   7.003   9.079  0.0449 -0.0744 -0.1025
10102W        W26576  12.048  14.900  13.433 -0.1378 -0.0579 -0.1511
10103W        W26577   0.945   9.101  10.111  0.1351 -0.2959  0.1933
10104W        W26578  13.110   5.397   0.290 -0.0037 -0.2202  0.0304
10105W        W26579  11.246  16.529  13.550  0.2645 -0.2651  0.2278
10106W        W26580   8.123   7.228  13.845 -0.2658 -0.1364 -0.1429
10107W        W26581   1.688   6.190  13.994 -0.1803  0.3084  0.2438
10108W        W26582  17.857   5.182   3.512  0.1911 -0.0538  0.4168
10109W        W26583   2.090   7.518  12.970  0.1762  0.0905  0.2341
10110W        W26584   3.733   7.162   0.713 -0.1220  0.3197  0.2604
10111W        W26585  12.912  14.646   5.319 -0.0105  0.2790 -0.3261
10112W        W26586  10.796  11.086  13.951 -0.4261  0.0864 -0.0201
10113W        W26587   4.729  15.218   0.107 -0.1180 -0.0284 -0.0084
10114W        W26588  10.657  10.838   0.441  0.1255 -0.0808 -0.1246
10115W        W26589   8.326  19.436  12.324 -0.0535  0.0251  0.1215
10116W        W26590   5.442  13.940  14.433  0.2052 -0.1552 -0.2592
10117W        W26591  10.443  15.411   3.698 -0.2929 -0.1854 -0.0142
10118W        W26592   5.680  13.528  14.303  0.2919 -0.1480 -0.0558
10119W        W26593   5.816   1.853   9.031  0.2210  0.3382 -0.3816
10120W        W26594   1.292   6.148   1.871  0.2694 -0.2006  0.2003
10121W        W26595   3.249   4.577   0.908  0.0147  0.4191  0.3682
10122W        W26596   5.735   2.046   4.593 -0.2289 -0.1998  0.5695
10123W        W26597   9.191   9.553   1.408  0.0190  0.2253 -0.0657
10124W        W26598  15.877  10.664  11.053  0.0132  0.4602  0.0619
10125W        W26599   4.888  15.667   3.116  0.0005  0.0517  0.1400
10126W        W26600   8.771   7.799   1.459  0.2911  0.0435 -0.2423
10127W        W26601  12.350   3.502  14.070 -0.2789 -0.0431 -0.1663
10128W        W26602  18.147   1.793  12.022 -0.3636 -0.0037 -0.3849
10129W        W26603  18.321  13.927   4.136  0.0406 -0.2215 -0.1207
10130W        W26604   0.418  10.334   1.704  0.4208 -0.3062 -0.1814
10131W        W26605  17.577   7.528   3.787 -0.0471 -0.2006  0.1547
10132W        W26606  17.348  14.001  14.586  0.1139 -0.0627  0.1083
10133W        W26607   9.720   9.901  13.241  0.1798  0.0656  0.1762
10134W        W26608  14.923   2.568   4.069 -0.0896  0.3409  0.2819
10135W        W26609  12.383  14.507  11.499 -0.1683 -0.2198  0.1006
10136W        W26610   6.067  15.963  10.430  0.0196 -0.1824  0.1326
10137W        W26611   3.313  10.397   4.355 -0.1336 -0.0134  0.1519
10138W        W26612   5.655   4.827   3.866  0.2941 -0.1687  0.1873
10139W        W26613   6.802   5.494   2.761 -0.1054  0.2587  0.1378
10140W        W26614   7.789   7.897  10.002  0.1455  0.1496 -0.3775
10141W        W26615   9.586   2.207  11.281 -0.3333 -0.0703 -0.1881
10142W        W26616   6.806  17.307  14.359  0.4457  0.0560  0.2892
10143W        W26617   6.600   6.527   0.050  0.2731  0.1261 -0.0896
10144W        W26618  11.861   0.672   5.534  0.1403 -0.0968  0.0945
10145W        W26619   7.077  12.792   3.536 -0.4331 -0.0990  0.0795
10146W        W26620  13.329  15.341   4.247 -0.2805  0.1087  0.4269
10147W        W26621   3.852  15.799   4.870 -0.0283 -0.0123  0.0381
10148W        W26622   7.935   9.692   3.575 -0.1922 -0.1264 -0.2896
10149W        W26623   0.589   9.931   0.432 -0.2308  0.0715  0.0901
10150W        W26624  10.795  15.458   1.305 -0.1879 -0.0431  0.3277
10151W        W26625   2.087   9.812  13.542  0.3242  0.2687 -0.1440
10152W        W26626  15.385   0.741  14.432  0.0469 -0.2083 -0.2417
10153W        W26627   1.155   3.879   3.870  0.2695  0.1790  0.0033
10154W        W26628   0.759  12.477  10.720 -0.0156 -0.3822  0.1397
10155W        W26629  10.046   4.315  10.585  0.0198  0.1581 -0.2159
10156W        W26630   7.161  16.560   0.509 -0.3424 -0.1726  0.0173
10157W        W26631   7.808  11.934  13.078 -0.1824 -0.0197  0.1290
10158W        W26632  11.676  15.193  12.598 -0.2572 -0.0274 -0.2212
10159W        W26633   7.108   7.235   0.214  0.1577 -0.0099  0.2386
10160W        W26634   6.490  12.609  14.056  0.1300  0.0786 -0.3133
10161W        W26635  11.743  11.105   5.175  0.1677  0.1440  0.0650
10162W        W26636   2.957   7.565   9.424 -0.2921 -0.3135  0.0621
10163W        W26637   0.584  11.817   1.853 -0.1961 -0.0092 -0.0872
10164W        W26638   0.035   7.928  13.461  0.2754 -0.6074 -0.0493
10165W        W26639  11.778   5.946  11.764  0.1372 -0.4756  0.0327
10166W        W26640   0.860  12.711   3.367  0.4051 -0.3462 -0.0922
10167W        W26641  13.192  11.072  10.667 -0.1643  0.2409  0.2499
10168W        W26642   9.846  16.112  11.560  0.1461 -0.0483  0.2341
10169W        W26643  16.335   1.256  13.238 -0.0014  0.0834  0.1487
10170W        W26644  14.456   3.571  12.296  0.2023 -0.2384  0.0694
10171W        W26645  13.180   9.480   4.484 -0.0429  0.1885  0.1461
10172W        W26646  15.743   6.076  12.774 -0.0154  0.2365 -0.0222
10173W        W26647   6.583  17.209   1.521  0.1572 -0.0106 -0.0112
10174W        W26648   5.886  19.105  11.225  0.3421  0.3280 -0.1065
10175W        W26649  12.416  17.364  11.344 -0.1604  0.1413 -0.2097
10176W        W26650   9.918   8.884   3.278 -0.1567  0.2497 -0.0812
10177W        W26651   9.755   7.671   4.941 -0.0053  0.1594  0.0292
10178W        W26652  12.574  11.240   5.102  0.0753  0.3594  0.0017
10179W        W26653  17.386  17.865   3.360 -0.1927  0.3320 -0.0247
10180W        W26654   9.499  15.945   0.357  0.4538  0.0638 -0.0308
10181W        W26655   8.036   2.686   4.750 -0.0317 -0.0760  0.2590
10182W        W26656  10.050  12.265   4.110  0.1064 -0.3777 -0.3221
10183W        W26657   6.035   5.902  12.662 -0.0148 -0.1519  0.2239
10184W        W26658  14.814  10.923   4.598 -0.2147 -0.2413  0.0286
10185W        W26659  13.881   0.093  12.953  0.0101  0.0717  0.0972
10186W        W26660  18.668  16.578  14.462  0.0404 -0.1139 -0.1140
10187W        W26661  15.750   6.955   1.635  0.2944 -0.2972 -0.0798
10188W        W26662   7.530   5.384   0.514 -0.2232 -0.0041 -0.0700
10189W        W26663   4.647   4.388  13.646  0.4252 -0.1642 -0.1017
10190W        W26664  15.943  18.851   2.303 -0.0752  0.0115 -0.1503
10191W        W26665   7.666  16.781   1.171 -0.2249 -0.0778 -0.0524
10192W        W26666  15.313  14.293   0.286 -0.2756  0.0396  0.1806
10193W        W26667   6.823  15.397  11.429  0.0193 -0.1216  0.1525
10194W        W26668   1.157   8.468   0.838 -0.0268  0.0902 -0.1888
10195W        W26669  17.904   8.974  13.427  0.0889 -0.0311 -0.0231
10196W        W26670   1.346   3.684   1.683 -0.2483  0.0052 -0.2991
10197W        W26671   5.718  10.603  13.344 -0.1205 -0.3034  0.1868
10198W        W26672  13.561   3.283   4.035 -0.0313  0.0408  0.0587
10199W        W26673   8.286   9.069  14.289  0.3495  0.4320 -0.2222
10200W        W26674   8.679   9.044   1.713 -0.0184  0.0140 -0.0314
10201W        W26675  18.158   1.210  11.335  0.2495 -0.1068 -0.3999
10202W        W26676   4.408  14.127  13.507  0.0894 -0.0865  0.0236
10203W        W26677  14.047   2.526   0.654 -0.0619 -0.0232 -0.0937
10204W        W26678  10.474  11.325  14.278 -0.1320  0.4202  0.0490
10205W        W26679  11.351   7.840   4.317  0.3323  0.3729 -0.2448
10206W        W26680   2.427  10.057  12.589 -0.1267  0.0205  0.2934
10207W        W26681   4.457   8.478  11.323  0.1294 -0.1962 -0.3137
10208W        W26682   1.906   4.359  10.400 -0.0108  0.0434  0.1326
10209W        W26683   5.072  15.039   3.344  0.0066  0.4046  0.0408
10210W        W26684   4.675   3.404  13.007 -0.0800 -0.2201 -0.0401
10211W        W26685  14.586  11.094   9.949  0.1520 -0.0467 -0.1837
10212W        W26686   4.716   6.697  14.172  0.2060 -0.0172  0.2515
10213W        W26687   0.651  14.339  10.988 -0.0399  0.0359 -0.1069
10214W        W26688   3.405   6.455   2.283 -0.2651  0.0898  0.0290
10215W        W26689  16.282  16.282   2.871 -0.0525  0.1814 -0.1338
10216W        W26690   0.208   5.976  12.707 -0.2920  0.2101 -0.3357
10217W        W26691   3.012   9.776  14.053  0.1771  0.1013  0.0281
10218W        W26692  13.096   1.686  10.301  0.0673  0.1381 -0.1182
10219W        W26693  16.820  12.005   3.209  0.4142  0.0907 -0.0444
10220W        W26694  14.047   1.569   3.292 -0.0579  0.1211 -0.0204
10221W        W26695  12.746  12.230   3.481  0.0274 -0.0462  0.1260
10222W        W26696  11.946   3.649  14.451 -0.0165  0.1777  0.3744
10223W        W26697   0.598   3.573   0.260 -0.2307 -0.1461 -0.1325
10224W        W26698   5.374  18.507   0.278  0.4558  0.0021  0.3838
10225W        W26699  19.110   1.213  12.909  0.0412  0.0288  0.0108
10226W        W26700   6.981   1.540   2.716 -0.2193 -0.1639  0.2197
10227W        W26701  11.707  14.731   3.012 -0.1940 -0.1951 -0.1012
10228W        W26702  19.265  15.739   1.461 -0.0799 -0.1140  0.0514
10229W        W26703  13.252  11.395   1.001 -0.0610 -0.2732  0.0953
10230W        W26704  13.473  15.582   3.500 -0.0221 -0.0936  0.2392
10231W        W26705  14.298   0.809   2.077  0.1386  0.2833 -0.1411
10232W        W26706  19.202  18.025   4.408 -0.1720 -0.0540 -0.0612
10233W        W26707   4.644  12.437  10.513 -0.1491 -0.1046 -0.1065
10234W        W26708  14.432  18.598  12.406 -0.1897 -0.1869  0.0233
10235W        W26709   5.485   7.971   4.753 -0.1093 -0.0023  0.2450
10236W        W26710   7.056   9.564  12.801 -0.2153  0.1935 -0.0970
10237W        W26711  19.232  18.570  11.563 -0.2113  0.1878 -0.0201
10238W        W26712   6.134   6.365  14.557 -0.0704 -0.3239  0.2041
10239W        W26713   8.964   7.111   1.519 -0.2337 -0.4948 -0.1594
10240W        W26714  17.575   2.845  12.251  0.1517  0.0276  0.3711
10241W        W26715   5.545  15.408  14.234 -0.2912 -0.0943  0.3982
10242W        W26716  17.525   9.617  14.351  0.1850 -0.2391  0.1301
10243W        W26717   6.747  12.439   3.998 -0.0345 -0.1159  0.4640
10244W        W26718  13.555   8.547   3.958 -0.1913 -0.0887 -0.1159
10245W        W26719   8.142   0.104   3.876  0.0115 -0.0737  0.3848
10246W        W26720   5.896   7.988  13.264 -0.0026 -0.2522 -0.2763
10247W        W26721   5.764  14.816   0.283 -0.3027 -0.2436 -0.0227
10248W        W26722   7.881   5.081  14.603  0.1503 -0.2117 -0.1522
10249W        W26723  10.605  18.223  10.477 -0.1537 -0.3721  0.2708
10250W        W26724  13.026  14.456  12.892  0.2497  0.0531 -0.0956
10251W        W26725   2.324   4.808  13.118  0.0452 -0.2816  0.2769
10252W        W26726   9.620   4.812   5.564  0.1100 -0.1271  0.1580
10253W        W26727  17.570   6.121   0.530 -0.0470  0.0771 -0.1335
10254W        W26728   6.850   7.016  12.830  0.2712 -0.0304 -0.1507
10255W        W26729  16.731  17.829  11.748 -0.1926  0.0960  0.1231
10256W        W26730   2.868  13.443   0.626 -0.1337  0.2963 -0.1437
10257W        W26731   9.700   1.863   4.189 -0.1132  0.1147  0.2817
10258W        W26732   6.446  18.462   0.793  0.3137 -0.2477 -0.3240
10259W        W26733  14.846   4.587  10.988 -0.1088 -0.1657  0.1241
10260W        W26734   2.381   9.488   0.861 -0.1427  0.0710  0.1470
10261W        W26735   7.252   8.657  12.429  0.1424  0.0164 -0.1115
10262W        W26736   5.317  19.146   3.719  0.1684 -0.2356 -0.0865
10263W        W26737   2.609   8.244  12.125  0.1319  0.1365  0.3642
10264W        W26738  14.683   8.646  13.781 -0.2626  0.0594  0.4346
10265W        W26739   3.075  12.720  10.463  0.0210 -0.1188  0.3085
10266W        W26740   6.227   3.769   2.556  0.5604  0.3010 -0.0391
10267W        W26741   9.368   2.606  11.612  0.1254  0.4118  0.0571
10268W        W26742  16.136   9.991   0.008 -0.2013  0.0048  0.0912
10269W        W26743   0.607   0.228  14.044 -0.1033 -0.0662 -0.0461
10270W        W26744  19.018   5.893   1.054  0.0910  0.0430  0.0476
10271W        W26745   3.129   4.275   4.050 -0.0897  0.2088 -0.1116
10272W        W26746  19.148  12.219   4.104  0.1180 -0.0902  0.1028
10273W        W26747   1.684  13.252   3.868  0.1541  0.0753 -0.1431
10274W        W26748  17.752  16.253   2.591 -0.1145 -0.1154  0.0777
10275W        W26749  14.969  15.393   3.646  0.1518 -0.3706  0.2978
10276W        W26750  12.527  14.897   2.375  0.1384  0.2381  0.0914
10277W        W26751  17.957  18.365   4.365  0.2165 -0.1578 -0.0624
10278W        W26752   8.089   8.703   1.036 -0.2211  0.0430  0.0512
10279W        W26753  16.002   6.027  10.827  0.0711  0.0261 -0.2888
10280W        W26754   0.782  18.952   1.870 -0.3108  0.0580 -0.2372
10281W        W26755   2.042   0.606  11.029  0.4187 -0.0515 -0.0379
10282W        W26756  16.805   6.695   4.908 -0.0889  0.1519  0.3183
10283W        W26757   1.710  18.898   2.214  0.2840  0.0170 -0.0382
10284W        W26758  15.174   7.660   1.474  0.2447 -0.1382  0.3629
10285W        W26759   8.792  17.864  13.229 -0.2906 -0.1951  0.1120
10286W        W26760   6.312  14.629   2.509  0.2089 -0.0715  0.3722
10287W        W26761   0.453  19.180  13.424  0.1937  0.2523  0.0815
10288W        W26762   2.603   6.095  13.600  0.3233 -0.0998  0.0902
10289W        W26763   1.414  12.515   1.473  0.0540 -0.2110  0.0389
10290W        W26764  16.610  10.064  14.544 -0.1283  0.1842  0.0440
10291W        W26765  10.908  14.292   3.521 -0.0750  0.2310 -0.0281
10292W        W26766  11.724  10.151   1.884  0.1711 -0.1179 -0.6460
10293W        W26767  13.868   5.281  13.877  0.1853  0.0819 -0.0354
10294W        W26768  17.304  10.470   4.586  0.0680 -0.0176  0.0347
10295W        W26769  19.207  14.710   2.483  0.1821  0.0090 -0.2069
10296W        W26770   4.244  16.685   1.499 -0.2686 -0.1126 -0.0059
10297W        W26771   9.200   8.356   4.947  0.2115  0.1491  0.3109
10298W        W26772   3.914   6.946   2.994  0.0256  0.0659 -0.1887
10299W        W26773   1.797   6.147  11.172  0.0518  0.1491  0.0059
10300W        W26774  16.409   3.982  11.241  0.0226  0.1750  0.0844
10301W        W26775  15.920  13.210  10.879  0.3615 -0.2347  0.1165
10302W        W26776  10.909   4.817  10.577 -0.0108  0.2896 -0.5506
10303W        W26777  14.937  10.711  10.260 -0.0247  0.1344 -0.0569
10304W        W26778  15.884   2.407   0.848 -0.3042  0.0202 -0.3443
10305W        W26779   9.523  11.925  11.414  0.0732  0.0395 -0.1188
10306W        W26780  19.215   6.721  10.002 -0.2998 -0.0468 -0.1657
10307W        W26781   2.357   1.555   9.105 -0.0500 -0.0313  0.1851
10308W        W26782   7.169  18.420  11.256  0.0719 -0.0041 -0.2659
10309W        W26783   2.579   0.605  10.883 -0.1427  0.0699  0.0818
10310W        W26784  10.181   7.720  10.294  0.1826 -0.1575 -0.0612
10311W        W26785   1.565   4.685   3.368 -0.2048  0.0370 -0.4255
10312W        W26786   6.056  10.044  13.846 -0.0127  0.2342 -0.2583
10313W        W26787  15.792  11.062   1.383 -0.2932 -0.1644 -0.0072
10314W        W26788  11.618   7.834   4.846 -0.2490 -0.3880 -0.3061
10315W        W26789   9.172  18.191   0.233 -0.0188  0.0246 -0.0787
10316W        W26790   9.905   9.620  14.002  0.1520  0.2357 -0.2572
10317W        W26791   6.983  19.243  14.528 -0.0240 -0.0573 -0.0215
10318W        W26792  15.231   0.721   4.764  0.2413 -0.1059  0.0884
10319W        W26793  14.872  12.942   1.095 -0.2506 -0.1138 -0.0602
10320W        W26794  15.993   2.395  14.554 -0.0465  0.0605 -0.0294
10321W        W26795  15.148  11.122  10.762  0.0363 -0.1961  0.2160
10322W        W26796  17.708   9.893   3.138 -0.1238  0.3626  0.0390
10323W        W26797  17.641   3.705  14.573  0.1870 -0.2306 -0.1744
10324W        W26798  13.033   0.638  13.766 -0.1159 -0.1726  0.2698
10325W        W26799  18.733  19.107   0.371 -0.0728  0.0482  0.2988
10326W        W26800  11.103  13.605   4.914  0.0915 -0.1079  0.0400
10327W        W26801   4.131  19.458  11.099 -0.0163 -0.2345 -0.1258
10328W        W26802  10.859  16.705   2.753  0.1338  0.2810  0.0393
10329W        W26803  14.845  14.245   0.444 -0.1767 -0.1405 -0.1261
10330W        W26804  18.059   9.291   2.135  0.1374  0.3062  0.1145
10331W        W26805  18.045   7.023  12.691 -0.0525 -0.1559 -0.1204
10332W        W26806   1.673  14.221   1.955 -0.0562 -0.0535  0.1406
10333W        W26807  19.452   0.759   2.207  0.1421 -0.1683  0.0819
10334W        W26808  16.683  17.266  11.604 -0.0756  0.1374 -0.0533
10335W        W26809  12.350  16.937   0.277 -0.0700  0.0420  0.2426
10336W        W26810  10.948   4.430   4.570  0.1373 -0.0790  0.1640
10337W        W26811  11.923  16.588   5.687  0.0232 -0.1117 -0.2981
10338W        W26812  13.664   7.565  12.167  0.1073  0.0372  0.2020
10339W        W26813  14.941   3.493   1.769  0.0047 -0.2493  0.2218
10340W        W26814  18.776  11.741   5.320 -0.2324 -0.0513  0.0350
10341W        W26815   3.680   2.710   1.095 -0.0733  0.3626  0.2307
10342W        W26816   4.214  10.841  13.449 -0.2672  0.2963  0.1435
10343W        W26817   5.941  10.451   4.817  0.1422 -0.0149  0.1309
10344W        W26818  10.250   0.655   3.992  0.0021  0.1057 -0.2849
10345W        W26819   4.669  17.085   0.130 -0.2066  0.1206  0.2322
10346W        W26820  12.930   6.119  12.731  0.0582 -0.0208  0.0938
10347W        W26821   9.876  10.641   2.058  0.0425 -0.0965 -0.0806
10348W        W26822   6.875   8.301   4.047  0.1686 -0.0067 -0.2723
10349W        W26823   1.496  12.973  10.668  0.2343 -0.0135  0.1805
10350W        W26824  10.753  17.902  12.740 -0.0187  0.0171  0.2885
10351W        W26825   4.405  18.987   0.991  0.1112  0.3271 -0.3462
10352W        W26826  13.318   7.858  10.020 -0.0166 -0.3090 -0.2595
10353W        W26827   4.141   2.383  13.914  0.1207  0.2288  0.1993
10354W        W26828  15.443  17.447  14.175 -0.3611 -0.1048  0.3368
10355W        W26829   8.698  10.241   4.160  0.4271  0.0483  0.1973
10356W        W26830  18.712  15.664   0.197  0.0192  0.1048 -0.4448
10357W        W26831   9.316   1.711  12.738 -0.2427 -0.1100  0.2346
10358W        W26832   1.946   9.481   4.103 -0.2600  0.0328  0.3355
10359W        W26833   2.184   5.805  13.300 -0.0778 -0.1170  0.1639
10360W        W26834   8.905   1.710   0.781 -0.1847  0.0970  0.0180
10361W        W26835   9.231  15.795  10.361 -0.1891  0.0239 -0.2255
10362W        W26836  12.698  11.801  11.647 -0.0193  0.3175  0.3353
10363W        W26837   8.591   3.892  13.086 -0.2415  0.1894 -0.0276
10364W        W26838  19.214   0.889   0.020 -0.1447 -0.0328  0.0650
10365W        W26839  19.336   8.456  12.880 -0.0065  0.0377  0.0456
10366W        W26840   6.413  13.099   1.400  0.0393  0.1475  0.0855
10367W        W26841   4.612   2.759  10.456 -0.0831 -0.1532  0.1460
10368W        W26842  15.386   4.577   0.915 -0.2025 -0.0449 -0.0243
10369W        W26843   7.549   3.444   0.745  0.0558  0.0351  0.1413
10370W        W26844  18.476  18.883  14.643  0.3393 -0.0359  0.0568
10371W        W26845  12.849   5.119   2.985 -0.0531  0.1954  0.1040
10372W        W26846   4.806  10.658   2.389  0.0232 -0.1554  0.0076
10373W        W26847   5.104  18.010  13.012  0.1106 -0.1867 -0.1147
10374W        W26848  16.254  17.489  11.524 -0.2367 -0.1365  0.0194
10375W        W26849   2.018   3.167   0.996 -0.3276  0.0854 -0.0808
10376W        W26850  15.200   6.274  12.943  0.1374  0.2237  0.1405
10377W        W26851   2.683   3.768   4.615 -0.0018 -0.0499 -0.0448
10378W        W26852   7.910   4.370  13.967 -0.1798 -0.1363 -0.0243
10379W        W26853   2.792   3.609   5.043  0.3347 -0.0050  0.0333
10380W        W26854   1.159  12.422  11.531 -0.3130 -0.0155 -0.0720
10381W        W26855  13.723   6.784   1.926  0.0660 -0.1831 -0.1625
10382W        W26856  19.157   0.662  10.696  0.1340  0.0847 -0.1560
10383W        W26857   4.500   4.190   0.861  0.1228 -0.2146 -0.1494
10384W        W26858   6.515   5.300  14.432  0.0973  0.4306  0.4413
10385W        W26859  12.156  10.216   4.174 -0.1247  0.2639 -0.0280
10386W        W26860  14.316   9.666   1.460  0.0707 -0.3001  0.2222
10387W        W26861   4.925  15.892   4.259 -0.3054 -0.0662  0.0286
10388W        W26862  17.542   1.047   0.810 -0.0230 -0.1042 -0.0131
10389W        W26863   9.665  13.301   0.039  0.2500 -0.2677  0.0315
10390W        W26864   4.567   5.499   2.337 -0.0131  0.1454  0.0494
10391W        W26865  10.826  14.424  10.906 -0.1875 -0.1065 -0.0054
10392W        W26866   1.049   1.129  14.543 -0.1860 -0.1309  0.3244
10393W        W26867  15.902   6.644   2.015 -0.2487 -0.1783  0.0320
10394W        W26868  11.072   8.016   0.615 -0.0914 -0.1019  0.2648
10395W        W26869   9.377   1.187   0.030  0.0025  0.0900 -0.0055
10396W        W26870  17.747  16.531   1.498 -0.0153  0.3376  0.3906
10397W        W26871  12.562  11.774   3.358  0.1509  0.1086 -0.0833
10398W        W26872  18.999   6.908  10.529  0.1640  0.1355 -0.1036
10399W        W26873   5.756  10.896  14.231 -0.1768  0.0745 -0.3339
10400W        W26874   9.025  18.683  14.013 -0.1910 -0.2347 -0.2274
10401W        W26875  19.418   3.305   3.030 -0.1674  0.0083  0.4895
10402W        W26876   2.770  13.152   0.059 -0.0960 -0.2695  0.0768
10403W        W26877   5.041   7.649   3.987 -0.1097 -0.2395 -0.0682
10404W        W26878   6.308   1.101  11.466  0.0272 -0.0116  0.3015
10405W        W26879   3.944   2.908  13.099 -0.0161  0.1411 -0.0463
10406W        W26880  14.047   9.513   3.407  0.2314  0.0571 -0.1276
10407W        W26881  18.601   0.260   4.385  0.2307 -0.3935 -0.1097
10408W        W26882  10.239  11.783   5.016  0.0710  0.1780  0.1232
10409W        W26883  12.314  12.417   5.503  0.1798  0.0985  0.0258
10410W        W26884  13.373  13.682  11.237  0.0459  0.1473  0.1108
10411W        W26885  13.360   6.550   2.267  0.1950 -0.1028 -0.0779
10412W        W26886  14.970   2.374   0.229 -0.0826 -0.4050 -0.1666
10413W        W26887   4.644   5.855  10.033  0.0031 -0.1031 -0.2873
10414W        W26888   6.610   1.233   3.343  0.3059  0.1651  0.0132
10415W        W26889   9.832  12.777   3.331 -0.0098  0.1451  0.1758
10416W        W26890   4.546   0.710   9.679 -0.3464  0.3026 -0.1454
10417W        W26891   9.802   8.365   4.240 -0.2715 -0.1812  0.1140
10418W        W26892  18.573  18.553   3.536  0.4574 -0.3754 -0.0776
10419W        W26893  17.902   5.245  12.940 -0.2872  0.1445  0.1295
10420W        W26894   9.448  15.324  13.723 -0.1162 -0.1035 -0.0131
10421W        W26895   9.254  17.716   1.709  0.0689  0.1415  0.2083
10422W        W26896   4.538   2.890   0.648  0.0146 -0.2099  0.0179
10423W        W26897   2.123   7.676   5.722 -0.1908  0.3116 -0.0346
10424W        W26898  14.314   3.666   4.359 -0.0947  0.2351  0.1024
10425W        W26899  17.240   1.973   0.747  0.2227  0.0497 -0.1466
10426W        W26900   0.833   6.076   1.575  0.0054 -0.0986  0.1196
10427W        W26901   7.933   5.407   1.236 -0.1567 -0.0028  0.0335
10428W        W26902   1.333  10.532  13.365 -0.0452  0.1038 -0.1338
10429W        W26903  18.432   5.669   2.888  0.0589 -0.2733 -0.0625
10430W        W26904  17.074   7.459  10.701 -0.3646 -0.2478  0.0861
10431W        W26905  18.049   0.247   2.332 -0.0140  0.0148 -0.2121
10432W        W26906  16.831  12.338  14.521 -0.1524  0.0135 -0.0276
10433W        W26907  13.176  16.893  12.192 -0.0295 -0.0673  0.1287
10434W        W26908  18.810   6.427  11.643  0.0141  0.0732  0.2117
10435W        W26909  16.771   9.631   3.518  0.0109  0.0086  0.0051
10436W        W26910   7.956   7.326   1.173  0.2999 -0.2294  0.3306
10437W        W26911   7.751  10.288  13.905 -0.0673 -0.1320 -0.0992
10438W        W26912   5.048  17.034   1.642 -0.4618 -0.0077  0.2754
10439W        W26913   1.373  14.068   4.481 -0.0019 -0.2154 -0.0062
10440W        W26914  10.977   2.718  12.575 -0.0518 -0.2125  0.1791
10441W        W26915  10.987   9.898   1.891 -0.4890 -0.1437 -0.0757
10442W        W26916  16.338   5.923  10.043 -0.2522  0.2177  0.3282
10443W        W26917  18.394  10.371  13.266 -0.4019  0.0376  0.1759
10444W        W26918   5.204   6.984   4.313  0.1717 -0.1258  0.0757
10445W        W26919   4.555   4.871  12.810  0.0805  0.1698  0.0069
10446W        W26920  13.573  15.922   1.057 -0.1248 -0.0586 -0.1223
10447W        W26921   0.667  17.294  12.022 -0.2192  0.0142 -0.0425
10448W        W26922   7.553   2.090  10.974  0.0665 -0.1875 -0.2343
10449W        W26923  16.604   0.403   1.899  0.4832  0.0119  0.1592
10450W        W26924   7.747   3.247  12.402  0.0040  0.2040  0.4525
10451W        W26925   5.355   7.385  11.804 -0.0370 -0.1649  0.1432
10452W        W26926  10.417  14.327   2.145  0.1889  0.2201  0.3160
10453W        W26927   0.409  12.219  10.468 -0.0947 -0.0184  0.1930
10454W        W26928  17.405  11.601  10.344  0.0075 -0.2051  0.2443
10455W        W26929   9.312   3.316   3.818 -0.0559  0.0521  0.3588
10456W        W26930  13.878  12.441   1.872 -0.0631  0.3747 -0.2751
10457W        W26931  18.769  14.627  14.108 -0.0534 -0.0725 -0.0587
10458W        W26932   5.023  10.737   5.015  0.0047  0.2568  0.2281
10459W        W26933   4.462  11.822   1.400  0.0182  0.2509  0.2075
10460W        W26934   5.677   7.988   4.258 -0.0310 -0.0094 -0.0409
10461W        W26935  12.256  12.512  14.474 -0.1336  0.3213 -0.0274
10462W        W26936   2.238  12.645   2.304  0.0135 -0.4108  0.3343
10463W        W26937   8.996  10.176  13.994 -0.0748 -0.0756 -0.0094
10464W        W26938  17.723  18.863   0.759  0.0153 -0.1163  0.1065
10465W        W26939  13.805   2.465  12.877 -0.0291  0.1599 -0.0954
10466W        W26940  11.077   0.077   5.091  0.0192  0.0943  0.3230
10467W        W26941   2.658   3.190  10.811  0.0761 -0.1602 -0.0328
10468W        W26942   7.640  14.246  11.088  0.1916 -0.3812  0.1057
10469W        W26943  16.991   6.653  13.425 -0.1918 -0.0846 -0.0368
10470W        W26944   8.724   1.387   1.979  0.3165 -0.0019  0.5451
10471W        W26945   4.229  18.629   3.196  0.3279  0.0882 -0.0162
10472W        W26946   3.406  16.320   0.709 -0.1777 -0.1841 -0.1320
10473W        W26947  14.107  18.081   4.197  0.2108  0.1784  0.0025
10474W        W26948   2.308   2.018  13.061  0.5227 -0.1149 -0.3596
10475W        W26949   4.141  13.502   3.610 -0.0106 -0.0317 -0.0032
10476W        W26950  15.768   6.177   2.021 -0.1539  0.0593  0.0958
10477W        W26951  13.424   4.193  10.439  0.0814 -0.0222  0.1977
10478W        W26952   2.390   3.151   1.326 -0.0725 -0.1000 -0.0222
10479W        W26953  17.884   1.478  11.679 -0.2655 -0.2051 -0.1227
10480W        W26954   3.550  10.163   1.689  0.3807 -0.0563  0.1170
10481W        W26955   2.256   5.245   2.335 -0.0793  0.0639  0.0183
10482W        W26956   3.434   5.131  14.421 -0.0269 -0.0796 -0.0579
10483W        W26957  14.957  15.814   3.980  0.3943  0.4110 -0.1292
10484W        W26958   7.202   3.641   5.042 -0.1463  0.0758  0.1384
10485W        W26959   0.669  12.145  14.177 -0.0509 -0.0759  0.2405
10486W        W26960   2.046  16.588   1.146  0.1209 -0.0998 -0.0690
10487W        W26961   5.170   3.868   5.906  0.0518 -0.1853 -0.2335
10488W        W26962  14.813  15.560   2.781 -0.2027 -0.4428  0.0004
10489W        W26963   6.580  17.919  10.196  0.2592 -0.0453  0.1996
10490W        W26964  18.201  13.423  13.578 -0.2910 -0.1582  0.2588
10491W        W26965   8.135   8.207  13.843 -0.2296  0.0048  0.2754
10492W        W26966  15.508  12.260   0.884 -0.0073  0.0648  0.2101
10493W        W26967  12.485   4.559   3.550  0.0221 -0.6382  0.2612
10494W        W26968   7.162  17.450   0.697 -0.1823  0.1365 -0.2530
10495W        W26969  16.385   3.810   0.616  0.2749 -0.0896  0.0043
10496W        W26970   7.207  18.029  12.964  0.0861  0.3378 -0.0200
10497W        W26971  12.333  12.912  12.344 -0.1750 -0.3705  0.0007
10498W        W26972   7.242  15.039   2.069  0.2793  0.3584 -0.0432
10499W        W26973  13.106   7.095   4.788 -0.3393  0.0945 -0.3401
10500W        W26974  13.605  10.024   2.525  0.1558  0.2256  0.1634
10501W        W26975   0.031   6.849   1.119  0.2049  0.0966 -0.1039
10502W        W26976   2.906   0.818   3.490 -0.0036 -0.4764 -0.2006
10503W        W26977  14.789   2.120  13.140 -0.3582 -0.2953 -0.3834
10504W        W26978   0.524   6.809  13.612 -0.0476  0.2672 -0.0291
10505W        W26979   2.433   0.752  10.051  0.1396 -0.0045 -0.1894
10506W        W26980   0.011  14.561  13.677  0.3073  0.1654 -0.1367
10507W        W26981   7.229  16.926  13.677  0.1914  0.1074  0.4418
10508W        W26982  18.894   3.769  13.710  0.3073 -0.1910  0.1980
10509W        W26983   3.184   0.069   1.642  0.1067 -0.0264 -0.2344
10510W        W26984   2.765  10.765  12.838  0.0231  0.1173 -0.2316
10511W        W26985   6.930   9.286   4.929 -0.0935  0.1789  0.3455
10512W        W26986   5.959   5.021   2.831 -0.1125  0.2375  0.2110
10513W        W26987   4.560  12.183   1.042 -0.0819  0.2026 -0.0642
10514W        W26988   4.985  10.499  12.900  0.0133  0.0810  0.2260
10515W        W26989   0.264  12.323  10.970 -0.2858 -0.1072 -0.4674
10516W        W26990  16.251  13.486   4.906 -0.5508  0.1610 -0.1654
10517W        W26991   5.470   6.930   3.816  0.3283  0.0251 -0.2420
10518W        W26992  19.461   6.270  13.043  0.5276 -0.1501  0.1338
10519W        W26993  17.630  10.248  11.517 -0.0355  0.1625 -0.1099
10520W        W26994   1.128  17.470  10.467  0.1943 -0.1411 -0.0680
10521W        W26995   4.863  11.786  10.592  0.1370 -0.1205  0.0999
10522W        W26996  17.692  19.059  14.409 -0.0491  0.1252 -0.1111
10523W        W26997   9.007  15.775   0.222  0.0247 -0.0224 -0.3249
10524W        W26998  15.255  16.941  10.097 -0.2212 -0.2549  0.1067
10525W        W26999  11.337  11.126   4.382  0.3224  0.0099  0.0871
10526W        W27000  14.121  11.513   1.564 -0.0262  0.3525  0.0370
10527W        W27001   2.428   1.666  13.421 -0.0188  0.0536 -0.0014
10528W        W27002  19.489   2.237  13.045  0.1072 -0.1625 -0.3295
10529W        W27003  15.057   1.852  11.811 -0.1049  0.2619  0.0749
10530W        W27004   8.496   2.606  13.281 -0.1727 -0.1138  0.2277
10531W        W27005  13.978  11.649   4.288 -0.2501  0.0607 -0.1246
10532W        W27006   2.478   8.607   0.322  0.3347 -0.2909  0.2514
10533W        W27007   4.865   6.405  10.194 -0.0912  0.0121 -0.1345
10534W        W27008   9.047  10.597   4.295  0.1325  0.2593 -0.1921
10535W        W27009   6.755   0.560   1.070  0.0488 -0.3060  0.0826
10536W        W27010   6.853  10.963   1.788 -0.1981  0.2088  0.1699
10537W        W27011   4.457   3.410  11.083  0.1168  0.0684  0.1327
10538W        W27012   7.489   8.740   1.332  0.3007 -0.1032 -0.0709
10539W        W27013  16.005  17.267   3.203  0.0217  0.1196  0.3666
10540W        W27014   2.942   9.370   0.518  0.3155 -0.4439 -0.0746
10541W        W27015   4.851  14.187  11.216  0.1589 -0.2223  0.2076
10542W        W27016   0.351   2.128   4.407  0.1140  0.4102 -0.0575
10543W        W27017   2.163   5.197  11.281  0.1792 -0.2607 -0.5388
10544W        W27018   4.775  12.420  12.503 -0.1460 -0.0917  0.5024
10545W        W27019  16.090   2.987  13.701  0.2318  0.0645 -0.2125
10546W        W27020  17.074  17.499   1.171 -0.0242  0.2695 -0.0634
10547W        W27021   6.176   2.620   1.743 -0.0666  0.0554 -0.2101
10548W        W27022  13.616  12.496  12.298  0.2635  0.1183 -0.0438
10549W        W27023   6.188  11.319   0.753  0.2126 -0.1525  0.1393
10550W        W27024  17.489  17.208  10.453  0.2083 -0.1971 -0.0885
10551W        W27025  16.621   3.773   5.249  0.1564 -0.0468 -0.1690
10552W        W27026   2.172   6.936  12.203  0.0217  0.1544 -0.0922
10553W        W27027  16.371   0.472  12.119 -0.1250  0.1323 -0.1615
10554W        W27028   4.243   2.035   3.124 -0.0107  0.2245  0.0054
10555W        W27029  16.349  14.756   0.889 -0.0091  0.2233  0.1063
10556W        W27030  19.345   4.446  12.859 -0.0483 -0.0008 -0.3414
10557W        W27031   5.787   2.569   4.544 -0.3729  0.1539 -0.3192
10558W        W27032   4.215  11.570   3.576 -0.1576  0.1312 -0.1732
10559W        W27033   0.856  12.425   0.454  0.1237 -0.1303 -0.1836
10560W        W27034   6.363  16.338   1.587  0.2334  0.1155 -0.1436
10561W        W27035   0.230  12.588   2.833  0.0140 -0.0699  0.2687
10562W        W27036   4.712   5.335  14.186 -0.0738  0.0665  0.0503
10563W        W27037   3.620  11.465  12.946  0.0401  0.2096  0.1012
10564W        W27038   0.770  10.043  12.639 -0.0607  0.2512 -0.3465
10565W        W27039   5.634   9.564  14.500  0.2839  0.0470 -0.2089
10566W        W27040  19.350   8.505   1.924 -0.0136  0.2854  0.2051
10567W        W27041  18.575  16.095  12.495 -0.0429  0.3303  0.1801
10568W        W27042   8.760  15.520  13.320 -0.3054  0.3319  0.1229
10569W        W27043   0.036  15.022  13.874  0.2403  0.1568 -0.0087
10570W        W27044  11.967   8.872   1.736 -0.1245  0.2320  0.0366
10571W        W27045  15.823  11.248  11.211  0.0326 -0.0544 -0.3044
10572W        W27046   5.710  12.392   4.125 -0.0975 -0.1247 -0.0994
10573W        W27047   0.394   0.054  13.098  0.1804  0.0282  0.0225
10574W        W27048   9.443  12.807   0.126 -0.1088 -0.3587 -0.0409
10575W        W27049   2.101   7.400   3.349 -0.1353 -0.0533 -0.0063
10576W        W27050  16.149  11.680  14.395  0.3357  0.0477 -0.1666
10577W        W27051  12.416  16.892   4.117  0.0159  0.1394 -0.1536
10578W        W27052  14.131  18.385   3.613  0.0329 -0.3920 -0.1596
10579W        W27053  10.849  12.093  12.645 -0.1163  0.2328 -0.3570
10580W        W27054  11.426   6.120   0.775 -0.2400 -0.1437 -0.0681
10581W        W27055   0.728   6.717  12.003 -0.0590  0.0130  0.2090
10582W        W27056   6.841  18.143  13.744  0.3205  0.1799  0.0658
10583W        W27057  14.542   7.391   0.760 -0.2133  0.1617  0.1510
10584W        W27058   3.369   5.279   2.728  0.0416  0.4530  0.1492
10585W        W27059   4.574  18.540   0.729 -0.0539 -0.0192  0.1108
10586W        W27060  16.354   8.150   3.880  0.0131 -0.0357  0.2460
10587W        W27061  19.327   1.945   0.160 -0.1722  0.2630 -0.0017
10588W        W27062   9.774  13.088   9.238  0.2117 -0.1985 -0.5780
10589W        W27063   4.730  12.540  13.432 -0.0161 -0.0678 -0.1447
10590W        W27064  14.931   5.259   4.995  0.0076  0.1465  0.0894
10591W        W27065  19.047   3.910  10.922 -0.3138  0.0790 -0.1325
10592W        W27066  17.661   7.811  13.670 -0.1317  0.2522  0.2298
10593W        W27067  19.509  17.501   9.907  0.1343  0.1950 -0.0324
10594W        W27068   6.086   2.687  12.277 -0.1784 -0.2714 -0.1958
10595W        W27069  11.142   8.912   6.090  0.0295 -0.2104 -0.3391
10596W        W27070  17.706   5.669   3.321 -0.1125  0.1785  0.3385
10597W        W27071   7.339  13.251   0.879 -0.2137  0.0315  0.0020
10598W        W27072   1.173  14.102   1.344  0.1390 -0.0716 -0.1469
10599W        W27073   9.819  13.700   5.155  0.0432 -0.1425  0.1392
10600W        W27074  18.987  13.180   0.259 -0.0407  0.0214  0.0640
10601W        W27075   6.175  11.618  14.499  0.3200 -0.2115  0.2418
10602W        W27076  10.798  11.047   3.808 -0.0876  0.1107 -0.1754
10603W        W27077  17.744  19.154  10.751  0.0907 -0.1556  0.0195
10604W        W27078   1.896   5.635  11.279  0.1571  0.0658 -0.1998
10605W        W27079   2.698   9.196  11.387  0.1582 -0.1599 -0.0227
10606W        W27080  14.176   1.897  10.865  0.1745  0.3282  0.0284
10607W        W27081  11.915   5.302   2.390 -0.2284  0.0069 -0.2206
10608W        W27082  19.529   2.766   9.896 -0.1901 -0.1192  0.0139
10609W        W27083   1.173   7.066   2.876  0.0839  0.0327  0.0115
10610W        W27084   1.977   8.437   0.278 -0.0491 -0.1373  0.1331
10611W        W27085  11.796  12.727   0.541  0.3484 -0.0173 -0.3085
10612W        W27086  17.660  16.342  12.958  0.3895 -0.0367  0.1362
10613W        W27087   9.190  17.651   4.722  0.1931 -0.1163  0.0294
10614W        W27088   5.457   4.091  13.178 -0.0346 -0.0422  0.0185
10615W        W27089   4.815  15.965  14.089 -0.1336 -0.0913 -0.0079
10616W        W27090   4.903   9.161   0.631  0.3349  0.4036 -0.1967
10617W        W27091   4.994   6.785  12.858 -0.0362  0.1689  0.1163
10618W        W27092  14.946   9.627   2.243 -0.1245  0.0812 -0.1378
10619W        W27093   5.318  11.062   5.217  0.0290 -0.0332 -0.0309
10620W        W27094   4.435  15.765   4.196 -0.3766  0.1489 -0.1016
10621W        W27095  13.650   6.500   0.445 -0.0743 -0.1169 -0.0530
10622W        W27096  15.674   8.906  14.293 -0.0597 -0.1577 -0.0740
10623W        W27097   1.212  16.945  12.706  0.2384  0.0797  0.0743
10624W        W27098   5.191   6.687   2.002 -0.0405  0.1290 -0.1641
10625W        W27099  19.502   6.317  12.479 -0.0924  0.1401 -0.0635
10626W        W27100   2.577   6.546  12.725  0.2116 -0.0384 -0.2401
10627W        W27101  17.928   5.146   0.336 -0.3910 -0.0924  0.1446
10628W        W27102   8.476  13.649   4.032  0.0698 -0.0447  0.0711
10629W        W27103   6.012  18.670   1.046 -0.0506  0.2534  0.2121
10630W        W27104   8.368   4.733  11.237  0.0349 -0.0280  0.1116
10631W        W27105  16.190  17.909   1.083  0.3061  0.1677 -0.1124
10632W        W27106  14.083  12.943   0.491  0.1711  0.2527  0.1122
10633W        W27107  12.619   6.824   3.565 -0.0236 -0.3554 -0.2038
10634W        W27108  10.671  10.172   5.633  0.1459 -0.2237  0.1329
10635W        W27109  11.531   4.432   0.216  0.1589 -0.1874 -0.1992
10636W        W27110  10.407  14.329  14.119 -0.1570  0.3277 -0.1303
10637W        W27111  12.165   1.252   0.521 -0.1099  0.1604  0.2879
10638W        W27112  13.194  18.963   2.531 -0.1530  0.0667  0.1791
10639W        W27113  12.757  17.104  11.095  0.2653 -0.0894 -0.0446
10640W        W27114   9.806   0.705   3.043  0.0051  0.1862  0.2409
10641W        W27115   3.295  17.651   1.859 -0.2703  0.2488  0.2582
10642W        W27116  14.775  14.064  10.475  0.1143  0.0734  0.0232
10643W        W27117   7.448   5.126  13.276  0.0554 -0.1370 -0.1635
10644W        W27118  17.535  11.786   4.425 -0.0808 -0.2954 -0.0165
10645W        W27119  10.095  12.588  14.178  0.1520 -0.0845  0.0097
10646W        W27120  14.617   6.047   5.013 -0.0064 -0.0420  0.0297
10647W        W27121   4.501   3.111  13.832 -0.1698 -0.1685  0.0594
10648W        W27122   6.692   2.952   4.228  0.2139  0.5145  0.1726
10649W        W27123   9.642  19.456   1.416  0.0024  0.1609  0.0904
10650W        W27124   9.703   8.886  12.905  0.2152  0.0442 -0.1154
10651W        W27125  17.041  12.459   0.265 -0.2137  0.3386  0.0130
10652W        W27126   6.681  10.864   0.800 -0.1772  0.0355 -0.0283
10653W        W27127   4.168   5.115  11.142  0.0963  0.0621 -0.0028
10654W        W27128   6.749  17.875  10.702  0.3767 -0.1770 -0.0737
10655W        W27129  16.391  18.818   1.911 -0.1070 -0.0447  0.0779
10656W        W27130  15.137   2.709  13.735  0.0081 -0.2366 -0.3001
10657W        W27131  17.002   4.180   4.497  0.1964  0.2865 -0.0523
10658W        W27132   3.256   1.923   4.129  0.1271 -0.3192  0.1590
10659W        W27133  16.001  14.400  11.769  0.0674  0.2342  0.3643
10660W        W27134  13.605  16.734   5.233 -0.0519  0.0164  0.1617
10661W        W27135  12.565  13.335   0.922 -0.1886  0.3027  0.0314
10662W        W27136   0.332   9.201   0.915  0.0911 -0.2139  0.1973
10663W        W27137   0.353  12.969  11.072  0.0180  0.0564  0.3641
10664W        W27138   5.856  12.385  11.543 -0.0560  0.0004 -0.2484
10665W        W27139   4.108   4.013   4.031  0.0720  0.0179 -0.0568
10666W        W27140  18.089   4.885  11.131 -0.4345  0.0211  0.1989
10667W        W27141  13.848  18.200   2.480 -0.2428  0.1010 -0.0899
10668W        W27142  19.213   8.202  14.564 -0.1897 -0.0361 -0.2357
10669W        W27143  19.581   7.922   4.619  0.0284  0.2351 -0.1592
10670W        W27144   2.886  16.433  10.175 -0.2582  0.0807  0.1628
10671W        W27145  13.772  11.068   2.419 -0.2829 -0.0534  0.1501
10672W        W27146  13.406   4.998  14.150  0.2463 -0.3417  0.0144
10673W        W27147   3.273   0.337  11.037  0.0501 -0.0412  0.0254
10674W        W27148   4.178   1.499   9.455  0.1781  0.0098 -0.0570
10675W        W27149  12.643  14.561  12.486 -0.0630 -0.0793 -0.2235
10676W        W27150   2.232  13.753  14.278 -0.0286  0.1953 -0.0690
10677W        W27151   5.008   3.142   2.548  0.1117  0.1503  0.0858
10678W        W27152  14.653  18.828   2.801  0.2965  0.0636 -0.3085
10679W        W27153   9.819   5.018   5.124 -0.3023 -0.2461 -0.0051
10680W        W27154  17.844   9.132  12.774  0.0154  0.0440 -0.2719
10681W        W27155  11.679   5.575  13.636 -0.2337 -0.2065 -0.0734
10682W        W27156   5.356   0.154   3.588 -0.0496  0.1489 -0.0833
10683W        W27157  13.116   7.582  14.422 -0.1806  0.2034  0.1453
10684W        W27158   2.524   1.977   4.933  0.1989 -0.0323 -0.0684
10685W        W27159   2.600  11.747  10.519  0.4678  0.0598  0.1483
10686W        W27160  16.049   1.096   1.279 -0.3266 -0.1064  0.1625
10687W        W27161   8.203  15.747   4.527  0.0755 -0.1797  0.2099
10688W        W27162  11.771  13.701   5.168 -0.0368  0.1669 -0.1893
10689W        W27163  11.568   1.072  12.085  0.2070  0.1939  0.1859
10690W        W27164   8.361  13.309  11.184  0.0804 -0.1453  0.0696
10691W        W27165   9.972   6.369   2.910 -0.0607  0.0307 -0.0258
10692W        W27166   6.371  16.932  11.384  0.1272  0.0239 -0.2066
10693W        W27167   5.397  14.494   2.084  0.2805  0.2093 -0.1424
10694W        W27168   4.898  17.781   0.144  0.0693 -0.1538  0.0291
10695W        W27169   2.359  10.595  12.620 -0.2585  0.0190  0.2049
10696W        W27170   0.433   4.140  13.253  0.0206 -0.1469 -0.5132
10697W        W27171   5.246   7.377  13.146  0.2426 -0.0951  0.1718
10698W        W27172   3.462  10.140   5.155 -0.0255  0.0044  0.4135
10699W        W27173  17.649   2.635   4.093  0.0963  0.4425 -0.1890
10700W        W27174  19.028  11.446   0.228 -0.0311  0.0671 -0.3090
10701W        W27175  16.459  15.567   0.089 -0.0957 -0.0323 -0.2769
10702W        W27176   8.290   4.141   3.080  0.2618 -0.2916 -0.2606
10703W        W27177   7.466   2.678   2.443 -0.2579  0.1067 -0.0231
10704W        W27178   3.231  18.855   4.264  0.0487 -0.0420  0.2681
10705W        W27179  19.553   8.921  13.100 -0.0421 -0.2644  0.0914
10706W        W27180   4.141  16.341  10.110  0.0800 -0.2455  0.1326
10707W        W27181   2.569   2.755  10.999 -0.0736 -0.0149 -0.0496
10708W        W27182   7.215  15.652  11.719  0.0565  0.1727 -0.0022
10709W        W27183   3.124   9.658   4.478  0.1513 -0.0697 -0.1955
10710W        W27184  14.801  19.452   5.080  0.2318  0.0936  0.0991
10711W        W27185  14.357   0.450   5.130 -0.0019 -0.2184  0.0241
10712W        W27186  13.302  14.182  13.255  0.1178  0.3258 -0.3682
10713W        W27187   7.474  13.592   2.270  0.1153  0.0189  0.1345
10714W        W27188  12.819   6.576  11.952  0.0996 -0.1986 -0.2350
10715W        W27189  12.567   5.510  13.892 -0.2111 -0.0318 -0.0177
10716W        W27190   2.440   1.097  14.174  0.0971 -0.3008 -0.1018
10717W        W27191  17.095   9.407  13.120  0.1000 -0.0154 -0.2098
10718W        W27192   7.385  17.351  12.041  0.0762 -0.0052  0.1093
10719W        W27193  14.906  12.553  12.204  0.3266 -0.0223  0.3271
10720W        W27194  14.919   3.650   2.533 -0.2159  0.2374  0.1007
10721W        W27195  17.996   4.117  14.636 -0.0230  0.1050 -0.2349
10722W        W27196   4.968   7.352  11.489  0.6544  0.0156 -0.2372
10723W        W27197  18.315  12.515   0.743 -0.1252  0.1984  0.0942
10724W        W27198  12.078  16.658  13.760  0.2895  0.0552  0.0502
10725W        W27199  11.081   8.007  10.793 -0.0152 -0.0361  0.0257
10726W        W27200  13.672   9.901   3.977 -0.0114  0.2382  0.0424
10727W        W27201  11.618   1.520   4.914 -0.1872 -0.0241 -0.5957
10728W        W27202   8.615   2.670   1.011  0.1592 -0.1385  0.1441
10729W        W27203   4.568  10.856  14.541 -0.0086  0.2525 -0.0600
10730W        W27204  16.485   4.909   2.292  0.0692 -0.0327  0.0651
10731W        W27205  16.260   4.862  12.148  0.1593  0.2341  0.0355
10732W        W27206  18.988  13.304  14.466  0.1566 -0.3625  0.0584
10733W        W27207   1.319  16.901  13.824  0.0001  0.0197  0.1193
10734W        W27208  16.752   8.741   0.968 -0.0858  0.0489  0.1408
10735W        W27209  10.777   5.174   3.289  0.0684 -0.1593 -0.0048
10736W        W27210  18.161  17.156   1.015  0.2701  0.3730  0.0973
10737W        W27211   1.787  15.242  12.649 -0.0626 -0.0834 -0.0795
10738W        W27212   4.717   9.917   0.014 -0.0870  0.0580  0.0311
10739W        W27213  12.695  18.716  10.122  0.1810 -0.0473  0.0018
10740W        W27214   0.869  18.285   9.994 -0.0329 -0.2958  0.0307
10741W        W27215   1.007  12.212   3.431  0.2276  0.1094 -0.0356
10742W        W27216  11.140  16.742   1.849  0.1301  0.3502  0.0300
10743W        W27217   1.234   9.897   3.937 -0.0943  0.1771  0.0092
10744W        W27218   5.990  11.026   0.402  0.1033  0.1470 -0.2917
10745W        W27219   1.598   1.606   1.475 -0.2058 -0.2881 -0.0777
10746W        W27220  19.288  15.206   2.206 -0.1920 -0.3302 -0.1671
10747W        W27221   3.289  10.764  11.367 -0.2555  0.0871 -0.1041
10748W        W27222   8.000   4.486  13.437  0.2602 -0.0529 -0.1741
10749W        W27223   7.526  14.507   4.431 -0.2001 -0.0885  0.1365
10750W        W27224   3.216  19.398   2.646  0.1872 -0.0433  0.1984
10751W        W27225  12.702   8.712   0.361  0.1869  0.0562 -0.1613
10752W        W27226  16.028  10.022   4.157 -0.0157  0.1226  0.0465
10753W        W27227   5.647   4.645   0.587 -0.0898 -0.2204  0.0664
10754W        W27228  18.383   7.186   4.105  0.4590  0.0488  0.3076
10755W        W27229   8.862  10.215   4.635  0.1007  0.2372 -0.1265
10756W        W27230  17.133   5.216   4.020  0.1051 -0.0537  0.2581
10757W        W27231  18.253   4.604  14.353 -0.1685  0.2890  0.1226
10758W        W27232   8.935   9.393  11.280  0.0361  0.1480  0.1608
10759W        W27233   6.569   2.045  13.842  0.1914  0.0046 -0.0039
10760W        W27234   9.035   1.784   2.155  0.3472  0.2343  0.0315
10761W        W27235  11.144   8.018   2.391 -0.0684 -0.2827  0.1592
10762W        W27236   7.554  14.988   4.221  0.2373  0.4106  0.1728
10763W        W27237  15.531  14.403  11.913 -0.1145  0.3151 -0.2459
10764W        W27238  14.416   3.726   2.226  0.0493  0.1540  0.0225
10765W        W27239  18.195  11.409  11.980  0.1524  0.1723  0.1846
10766W        W27240   6.811  11.494   1.977 -0.2506 -0.0221 -0.0318
10767W        W27241  11.208   1.108   3.080 -0.2715  0.0392 -0.0712
10768W        W27242   5.190   3.713  10.439 -0.1188  0.0788  0.2359
10769W        W27243  12.057   5.736   5.204  0.2112  0.0575  0.0186
10770W        W27244  12.254  11.346   5.568  0.2195  0.1775  0.2284
10771W        W27245   5.070   5.165   3.127  0.0833 -0.0120 -0.1541
10772W        W27246  12.018  19.469   4.297 -0.1636 -0.1014  0.3510
10773W        W27247  18.259  14.840   4.681  0.1870  0.1977 -0.2251
10774W        W27248  17.438   1.374  12.837  0.0167 -0.0057  0.1639
10775W        W27249  17.223   9.533   3.104  0.0086 -0.1829 -0.0319
10776W        W27250  17.599  12.248   2.423  0.5559  0.3489  0.2077
10777W        W27251   9.525  16.151   3.640 -0.0105  0.0440 -0.2655
10778W        W27252  11.884   0.880   2.726  0.0589  0.0295  0.1435
10779W        W27253   1.289   5.114   1.720  0.1065 -0.2746 -0.0842
10780W        W27254  17.730  15.618  12.212 -0.0700 -0.2133 -0.1407
10781W        W27255  11.613  19.475  14.678  0.1817  0.2368  0.2001
10782W        W27256  16.705   2.044  12.881  0.0211 -0.3776 -0.1169
10783W        W27257   9.703   2.146  12.902  0.0287 -0.3316 -0.1072
10784W        W27258   0.049   5.722  13.794 -0.0859 -0.2397  0.6110
10785W        W27259   4.815  13.782   1.946  0.0574  0.0363  0.4278
10786W        W27260   8.358  15.363   0.731 -0.0913  0.1894  0.0618
10787W        W27261  13.546   2.392   2.481  0.3344  0.0804 -0.0955
10788W        W27262   8.084  11.595  12.813 -0.0596 -0.0402 -0.0511
10789W        W27263   8.612  15.177   1.740  0.0436  0.0682 -0.1273
10790W        W27264  12.539  13.763  10.797 -0.0970  0.0213  0.0464
10791W        W27265   0.365  10.829   1.618  0.2154 -0.2981  0.0793
10792W        W27266   5.979   7.264   1.019 -0.0530 -0.1683  0.0442
10793W        W27267  16.801   1.275  12.199 -0.0983  0.0651  0.0742
10794W        W27268  12.076  11.887   1.408 -0.1790 -0.2592  0.0467
10795W        W27269   3.350  16.212   1.254  0.1431  0.1288 -0.2534
10796W        W27270  13.985  15.878  10.933  0.1438  0.0100 -0.0501
10797W        W27271  13.057   6.912  13.249 -0.0554  0.0587  0.1803
10798W        W27272   8.161  11.764  10.313 -0.1278  0.1956 -0.1014
10799W        W27273   0.735   4.803  13.358  0.2248  0.0276  0.1325
10800W        W27274  14.277  15.137   0.062  0.1358 -0.2689  0.2462
10801W        W27275   0.562   8.101   0.193  0.0327 -0.0127  0.3073
10802W        W27276  16.627   6.004   1.972  0.0196  0.1338 -0.0261
10803W        W27277  18.817   9.607  13.108 -0.0590  0.3538  0.0078
10804W        W27278  15.557   4.580   5.014 -0.1301 -0.0727 -0.1284
10805W        W27279  13.016  15.087  11.335 -0.1315 -0.0144  0.1177
10806W        W27280  18.901   8.866  11.496 -0.2446  0.2612 -0.0293
10807W        W27281  12.238  18.021   2.860  0.4553 -0.0739 -0.1426
10808W        W27282  14.974  12.032  11.748  0.2812  0.3103 -0.0198
10809W        W27283  10.833   7.724  11.207 -0.1233 -0.0238 -0.1011
10810W        W27284   3.128  10.080  12.273  0.1572  0.0717  0.0354
10811W        W27285  18.640   6.854   0.872 -0.2006  0.3561 -0.3042
10812W        W27286  11.603   9.126  14.552 -0.2297  0.0282  0.0214
10813W        W27287   5.921  18.843   2.014 -0.5902 -0.3557  0.3128
10814W        W27288  15.961  18.886  11.092  0.0843  0.0227  0.1032
10815W        W27289  12.964  12.642  13.548 -0.0546  0.2344  0.0526
10816W        W27290   9.632   2.880   2.203 -0.0347 -0.1299  0.1363
10817W        W27291  17.317   2.385  13.702 -0.2720 -0.2410  0.4330
10818W        W27292  16.321  17.584  14.514 -0.0649 -0.0864 -0.1878
10819W        W27293   0.550   7.684  12.703  0.3774  0.1227  0.0498
10820W        W27294  16.108   2.935  12.004  0.0847  0.2616  0.0822
10821W        W27295  11.840   6.779  12.089  0.0252 -0.0416  0.0948
10822W        W27296   0.938  13.702  10.872  0.2866 -0.1915  0.1501
10823W        W27297   3.022   5.657   1.913 -0.2499 -0.0520  0.0551
10824W        W27298   0.096   9.271   4.893  0.1164  0.4481 -0.1293
10825W        W27299  16.935   0.855   2.199 -0.0658  0.1749 -0.1803
10826W        W27300  12.878  16.644  14.297  0.1249  0.0060  0.2542
10827W        W27301  14.324  17.855  12.685 -0.0346  0.1438 -0.3722
10828W        W27302  10.312  13.250   1.008  0.3879  0.0621  0.3846
10829W        W27303  19.093   9.387   3.736  0.2477  0.1139  0.1020
10830W        W27304   9.746   3.599   0.131 -0.1551 -0.0830  0.0183
10831W        W27305  16.863   8.629   2.512 -0.1440 -0.1018  0.2881
10832W        W27306  10.932  19.201   2.782  0.0853 -0.0950 -0.2559
10833W        W27307   1.916   3.697   0.568 -0.0495  0.2083 -0.2290
10834W        W27308   1.715  12.060  10.397 -0.3168 -0.1532 -0.1000
10835W        W27309  13.801  11.974   2.419 -0.0855  0.1146  0.0855
10836W        W27310  12.899   6.528   9.968  0.2906 -0.4152  0.2047
10837W        W27311   4.385   8.014  14.667 -0.0989  0.1547 -0.1295
10838W        W27312  16.475  11.115   0.184 -0.1501 -0.0506 -0.1736
10839W        W27313  18.331   2.597  11.307 -0.1181  0.0138  0.0718
10840W        W27314  15.399   6.627  14.108 -0.1477  0.1327 -0.1999
10841W        W27315   3.259   0.959   8.960  0.1793  0.1220 -0.0839
10842W        W27316  18.590   8.874  14.559  0.0516  0.4003 -0.0416
10843W        W27317  11.485   9.746  13.409  0.0381  0.1836  0.0561
10844W        W27318  17.798   5.806   1.935  0.0945  0.1941  0.1108
10845W        W27319  16.453  13.732   0.770  0.0245 -0.0472 -0.2489
10846W        W27320   5.885   4.719  11.160  0.2315 -0.1390  0.0781
10847W        W27321  12.439  16.459   4.739 -0.1522  0.1759 -0.3153
10848W        W27322  10.386  16.424  13.912  0.0907 -0.1802  0.0896
10849W        W27323   6.496   4.788  10.976  0.0285  0.1633 -0.1642
10850W        W27324   7.393   9.029   2.702 -0.1561  0.0283 -0.0500
10851W        W27325   7.862  11.074   9.405 -0.0611  0.0441 -0.1993
10852W        W27326   1.739  16.989   2.176 -0.0570 -0.1127  0.4220
10853W        W27327  13.410  13.248   3.323 -0.2134 -0.1640 -0.1776
10854W        W27328  10.762  14.769  11.324 -0.1394  0.3093 -0.2273
10855W        W27329   9.052   4.130   4.196 -0.1130 -0.0907 -0.2260
10856W        W27330  17.002  16.254   0.923 -0.1303 -0.1841 -0.0829
10857W        W27331   4.930  18.296  14.704  0.4083 -0.2841  0.1485
10858W        W27332   2.733   5.667  13.368 -0.1809  0.0717 -0.2566
10859W        W27333  10.626   9.707   1.451 -0.0259  0.0788  0.2422
10860W        W27334  10.201   1.765   3.382  0.0946  0.3203 -0.1534
10861W        W27335  19.493   0.700   0.478  0.1065  0.0878  0.2097
10862W        W27336  11.346  14.564   2.184  0.0537 -0.1183 -0.0153
10863W        W27337  16.424  17.381  10.180  0.2219 -0.1530  0.0716
10864W        W27338  15.542  19.458  11.184  0.0281  0.1144  0.1153
10865W        W27339  14.947   4.630   2.653 -0.1312  0.0723 -0.0394
10866W        W27340  12.048   7.679   0.479 -0.0802  0.2812  0.2478
10867W        W27341   3.830  13.840   4.471  0.1106 -0.0646 -0.0795
10868W        W27342   7.273  15.213  11.888  0.0203  0.0184 -0.0220
10869W        W27343  13.240   9.141   0.959 -0.0791 -0.0933 -0.1000
10870W        W27344  17.218   9.732  12.210  0.3128 -0.1256 -0.0101
10871W        W27345  11.618  16.370  13.035  0.0155  0.1304 -0.2491
10872W        W27346  14.821   7.454   1.873 -0.2535  0.0306  0.3766
10873W        W27347  18.122   7.961  12.320 -0.0574 -0.0710  0.0285
10874W        W27348   4.937  14.241   1.644 -0.2087  0.0339 -0.2796
10875W        W27349   7.300   3.166  12.788  0.3687  0.2360  0.0541
10876W        W27350   1.199   7.376  11.412  0.1339 -0.1709  0.0491
10877W        W27351  18.869  15.325   9.165  0.0001 -0.0248 -0.3360
10878W        W27352  16.717   7.261   0.234  0.2064  0.3865 -0.2288
10879W        W27353  14.607   9.495  14.648  0.0375  0.0583 -0.0781
10880W        W27354   8.669  11.425  13.053 -0.1998  0.0688 -0.0838
10881W        W27355   8.984   0.318   3.937  0.2407  0.2222 -0.3210
10882W        W27356   3.297   3.452   2.658  0.2129  0.2854  0.0016
10883W        W27357  13.093  19.027  11.616  0.1146 -0.2887  0.1537
10884W        W27358  18.080  18.890  13.215 -0.1247 -0.0460  0.0205
10885W        W27359  16.886  12.042  11.060 -0.1396  0.4167  0.1844
10886W        W27360   6.690  10.220   3.543  0.1582  0.1211 -0.1699
10887W        W27361  16.190   2.473  13.569  0.0434  0.4409  0.1431
10888W        W27362   8.663  14.846  11.745  0.3877 -0.4417 -0.2562
10889W        W27363  12.312  15.918   2.611 -0.0086 -0.0773 -0.0471
10890W        W27364  15.546   0.939   9.106 -0.0420 -0.0214 -0.3714
10891W        W27365   5.649  12.509  12.040  0.0653  0.2512  0.4634
10892W        W27366  15.652   2.741  13.755  0.1637 -0.0679  0.1025
10893W        W27367  15.691  10.905  10.586  0.3979  0.3333 -0.1534
10894W        W27368   4.719  19.144  12.342 -0.2629  0.1020  0.0713
10895W        W27369   5.536   9.292  13.164  0.1658 -0.3800 -0.0654
10896W        W27370  16.528   2.908  13.184 -0.1224 -0.3830  0.1749
10897W        W27371  15.918   1.990  11.488  0.0182  0.2130 -0.0843
10898W        W27372   5.288   7.169  10.655  0.1271  0.2890  0.0477
10899W        W27373   8.501   4.415  13.305 -0.1372 -0.2139 -0.1163
10900W        W27374   0.465  15.438   5.350  0.0146 -0.0070 -0.3030
10901W        W27375  18.207   1.238  14.035 -0.1127 -0.1286  0.0244
10902W        W27376  16.904  15.495  11.748  0.0471  0.0125  0.2113
10903W        W27377   4.909   4.619   4.300  0.0328 -0.0105  0.1173
10904W        W27378  15.659  15.758  12.422  0.1499  0.2274 -0.0695
10905W        W27379   3.761  10.241  13.385 -0.1301  0.0587 -0.1247
10906W        W27380   2.225  17.625   4.344  0.0458  0.1387 -0.0514
10907W        W27381   2.649  17.512   2.043  0.1984  0.4239  0.2007
10908W        W27382   7.051  14.993  14.228 -0.0360  0.0403  0.0899
10909W        W27383   8.693  14.129   2.599  0.2755  0.2096  0.2786
10910W        W27384   1.546   7.753  13.645 -0.2223  0.2656 -0.1873
10911W        W27385  17.643  11.263  11.105 -0.0605 -0.1686  0.1445
10912W        W27386   4.104   8.054   2.314 -0.0897 -0.1780 -0.0918
10913W        W27387   3.207   7.222  10.686 -0.0058 -0.0165 -0.3102
10914W        W27388  18.882   0.295  14.601  0.0281 -0.2392  0.2379
10915W        W27389   2.283   0.566  13.820  0.0796  0.2859  0.1529
10916W        W27390  16.936  13.654  14.449  0.0858  0.1373  0.2128
10917W        W27391  14.859   7.761  13.517  0.1770  0.0348  0.2298
10918W        W27392  16.467  16.660  11.802 -0.1704  0.0069 -0.0749
10919W        W27393  15.554   5.871  10.434 -0.0589  0.4204 -0.2784
10920W        W27394  11.923   8.235   0.398  0.2975  0.0376 -0.1203
10921W        W27395  15.975  10.658   1.887  0.0917  0.2591 -0.2474
10922W        W27396   6.011   5.860   3.294  0.2093  0.0422 -0.1345
10923W        W27397  17.882  10.626   5.125  0.0399 -0.1068  0.3632
10924W        W27398   7.961  16.290  14.625 -0.2066 -0.0230  0.1965
10925W        W27399  12.224  13.946  14.413 -0.2908 -0.0249  0.0264
10926W        W27400  17.464   2.961  10.281  0.1524  0.1471  0.3719
10927W        W27401  10.687  18.707  13.831 -0.0542 -0.1511 -0.0954
10928W        W27402   3.155   4.499  11.561  0.1003 -0.1682  0.2824
10929W        W27403   4.504  11.223   4.329  0.0495  0.3562  0.0827
10930W        W27404   8.067   7.560   4.911 -0.0248 -0.1814  0.6498
10931W        W27405   3.628  19.372  13.922 -0.0502  0.1120 -0.0885
10932W        W27406   2.958   1.286   1.262  0.1991 -0.1531  0.1138
10933W        W27407   2.759  14.194   3.236 -0.1896  0.1100 -0.0014
10934W        W27408   4.904  13.227   3.414  0.0487  0.5431 -0.2428
10935W        W27409  18.492   3.840   4.031  0.2081  0.0725 -0.1590
10936W        W27410   9.946   8.326  14.642 -0.1663  0.1130  0.1098
10937W        W27411   0.908   6.891   4.942 -0.0002  0.1444 -0.2660
10938W        W27412   7.612   1.598  14.553 -0.0574  0.0477 -0.0568
10939W        W27413  11.243   5.965  10.274  0.1218 -0.0946 -0.0075
10940W        W27414   3.356   1.269  14.292  0.1284 -0.2616 -0.2505
10941W        W27415  15.332   0.156   1.975  0.2108 -0.1914  0.1095
10942W        W27416   4.830  15.404   4.100  0.0294  0.5523 -0.1826
10943W        W27417  15.999   2.558   1.720  0.1337 -0.2976 -0.0105
10944W        W27418   3.808   5.102  14.102 -0.1981 -0.1075 -0.2041
10945W        W27419  18.359   4.294   1.721 -0.1096  0.1568 -0.0535
10946W        W27420  18.046   8.245  14.147 -0.0431  0.0177  0.0853
10947W        W27421  10.862   3.551   5.119 -0.2297  0.1658 -0.1002
10948W        W27422  11.719  12.957   3.546  0.0125  0.0207 -0.0893
10949W        W27423   4.092   8.553   1.272 -0.3395  0.0321  0.1429
10950W        W27424   9.833   0.193   2.902 -0.2655  0.0048 -0.1132
10951W        W27425   0.334   8.255   1.497  0.2094  0.2719  0.0565
10952W        W27426  15.943  16.683  11.064 -0.4226  0.1790  0.2321
10953W        W27427  11.650   5.167  10.909 -0.1564 -0.2028  0.3281
10954W        W27428  16.905   4.621   1.750  0.0469 -0.2096 -0.1596
10955W        W27429   8.338   9.378   4.389 -0.2261  0.3661 -0.0233
10956W        W27430   2.042   7.837  13.397 -0.0899 -0.0985 -0.1311
10957W        W27431   0.528  18.172  12.907 -0.1635 -0.0869  0.0707
10958W        W27432  15.333  15.638   3.118 -0.1700  0.3947 -0.2363
10959W        W27433  19.101   1.556  11.593 -0.3437 -0.0726 -0.0415
10960W        W27434   4.757   0.979  12.784  0.0311 -0.0363  0.0521
10961W        W27435   2.472  15.847   1.699 -0.0321 -0.1445  0.0406
10962W        W27436   5.226   6.388   4.183  0.3608  0.1035  0.1413
10963W        W27437   1.229  16.437   3.400  0.1568  0.3428 -0.3392
10964W        W27438  15.071  10.740   3.790  0.0741 -0.2308  0.0178
10965W        W27439  17.722   7.128   5.083 -0.1209  0.1670  0.1351
10966W        W27440  10.229  16.328   2.208  0.0167  0.3363  0.1679
10967W        W27441  17.271  12.211   2.936  0.0546  0.1490 -0.3074
10968W        W27442  16.773  11.130   3.642  0.0267  0.4047  0.2355
10969W        W27443   8.622   8.559  13.864  0.2316  0.1403 -0.2819
10970W        W27444   8.630  17.354   0.940 -0.1179  0.2147  0.1814
10971W        W27445  16.768  19.178   0.264  0.1392  0.0913  0.0845
10972W        W27446  17.470  17.899  11.721  0.2810 -0.0480  0.0284
10973W        W27447   7.012  15.191  12.349 -0.0617  0.0233 -0.1392
10974W        W27448   1.480  13.091   2.249 -0.1837 -0.0470 -0.0880
10975W        W27449  11.440   7.273   1.276 -0.4182  0.0941 -0.3386
10976W        W27450   8.800  18.955   3.337  0.0611  0.1119 -0.3202
10977W        W27451  18.667   1.127   3.380 -0.1393  0.0249  0.2638
10978W        W27452  17.846   6.640   5.171  0.2068  0.4862  0.2806
10979W        W27453  16.113  10.363   5.109 -0.1525 -0.2034 -0.0664
10980W        W27454  18.845  12.408  12.902 -0.1264 -0.1007 -0.1300
10981W        W27455  16.507   5.384  11.029  0.2250 -0.0933 -0.1217
10982W        W27456  16.597   5.898   2.567 -0.0943  0.1528  0.2409
10983W        W27457   5.624  11.766   0.914 -0.1016 -0.1265  0.4043
10984W        W27458  14.045  19.424   4.443 -0.1877 -0.4475  0.2107
10985W        W27459  17.512   3.754  12.059 -0.0588  0.0775  0.2972
10986W        W27460   5.225   5.123  12.360  0.2018  0.2276  0.3527
10987W        W27461   0.960  13.258   3.408  0.2632 -0.3542 -0.1996
10988W        W27462   8.321  17.304   3.562 -0.0894 -0.0423  0.0714
10989W        W27463   0.112  10.746  13.482  0.0920  0.0146 -0.1271
10990W        W27464   2.459   7.180   1.690 -0.3093 -0.0241 -0.0889
10991W        W27465   4.657  14.487  13.830 -0.3016 -0.1786 -0.0183
10992W        W27466  13.798  12.978  13.311 -0.1807  0.0876  0.0286
10993W        W27467   5.921   9.605  12.902  0.2114 -0.0946 -0.0424
10994W        W27468  15.091  11.561   4.021  0.3787  0.3171 -0.2340
10995W        W27469   6.498  11.967   5.247 -0.2373  0.0818 -0.0027
10996W        W27470   6.152  12.881  12.997  0.0607  0.0261  0.1765
10997W        W27471   5.165   8.163   3.895 -0.1655 -0.1766 -0.1409
10998W        W27472  14.364  13.351  12.887  0.1663 -0.1483  0.2526
10999W        W27473   2.542  15.074   9.131 -0.2052  0.1256  0.0396
11000W        W27474   9.153   4.001  11.785  0.0435  0.1736 -0.1779
11001W        W27475  15.475   7.296  10.870  0.2742 -0.3950 -0.0387
11002W        W27476  12.568  18.706  12.890 -0.3430  0.2515  0.1188
11003W        W27477   0.790  16.250   1.246  0.0149 -0.0238 -0.1558
11004W        W27478  12.543  13.440  14.567  0.2026  0.1541  0.0512
11005W        W27479   8.499   7.724  13.315  0.0759  0.0460  0.0374
11006W        W27480   7.109   0.792  14.455 -0.3231 -0.0790 -0.0250
11007W        W27481   7.275   2.317   4.550 -0.1705  0.0274  0.0136
11008W        W27482  12.003  17.410   9.878  0.3646 -0.2275  0.0420
11009W        W27483  14.173  14.345   2.902 -0.2020  0.2215  0.2587
11010W        W27484  18.676   2.386  13.779  0.2348 -0.2478  0.1345
11011W        W27485   3.741   1.234   5.257 -0.1514 -0.0723  0.0658
11012W        W27486  14.717  11.949   3.268  0.1924  0.0869 -0.0843
11013W        W27487   2.911  14.896  10.480 -0.0434  0.0454 -0.1403
11014W        W27488   4.128   2.480   3.877 -0.0373 -0.1769 -0.0109
11015W        W27489   2.888  15.946   9.746  0.1695  0.0918 -0.0620
11016W        W27490   7.249   5.772   0.798  0.0048 -0.1331 -0.2095
11017W        W27491  10.224  11.166   1.319  0.0160 -0.1114  0.2016
11018W        W27492  14.500  15.185  13.629  0.1212  0.0893 -0.3448
11019W        W27493  18.121  11.498   0.063 -0.4032  0.1272  0.0227
11020W        W27494  16.194  16.871   1.824  0.1240  0.0279  0.0198
11021W        W27495  14.702   2.118   4.456 -0.0765  0.0001  0.0093
11022W        W27496   8.166  11.077   2.099  0.2185 -0.0660  0.0070
11023W        W27497  11.621  11.421  13.555  0.1153 -0.2616 -0.1341
11024W        W27498  14.828  16.738   4.394  0.1694  0.0513  0.1462
11025W        W27499   5.348   8.570   3.613 -0.1415 -0.0963 -0.0345
11026W        W27500   0.057  18.065  14.627 -0.1736  0.3549 -0.0103
11027W        W27501  10.480  18.971   2.623 -0.2464  0.0388 -0.0860
11028W        W27502   9.528  12.600   0.608  0.2128 -0.2227 -0.2628
11029W        W27503  15.103   0.022  10.993  0.4138  0.0094  0.0297
11030W        W27504  12.559  15.864  10.761  0.0899  0.2261 -0.1703
11031W        W27505  18.409  11.061  10.695 -0.0934  0.0408 -0.3664
11032W        W27506   1.146  18.738   5.277 -0.2076 -0.1294  0.0656
11033W        W27507  10.453   9.883  13.276  0.1211  0.1347  0.2928
11034W        W27508   9.301   1.809   2.804  0.4250 -0.0306  0.0227
11035W        W27509  17.141   8.214   3.455 -0.0525 -0.0142 -0.3900
11036W        W27510  13.768  14.823  11.844 -0.0697 -0.2583 -0.0836
11037W        W27511   4.758  14.603  11.016 -0.2176  0.0123  0.0202
11038W        W27512  10.854   1.709  12.904 -0.3004 -0.0296 -0.1776
11039W        W27513  15.534   9.020  13.868  0.1053  0.0196  0.0201
11040W        W27514  15.558   3.851  12.928  0.1823 -0.0575  0.0980
11041W        W27515   3.934  13.578   0.722  0.1045 -0.0178  0.1393
11042W        W27516   9.988   2.407  11.042 -0.2194 -0.1168 -0.2825
11043W        W27517   6.874  13.078   0.735  0.3672  0.3340 -0.3874
11044W        W27518  12.193   5.857  12.096  0.1498 -0.0844  0.3356
11045W        W27519   6.613  17.406   3.229 -0.2576  0.1750 -0.1542
11046W        W27520   1.552   3.989   5.049 -0.1597  0.1206 -0.2894
11047W        W27521  18.072  19.422  12.230 -0.1638 -0.2420 -0.5183
11048W        W27522   6.307   0.027   1.431  0.1296  0.2191  0.0909
11049W        W27523  13.269  19.167  13.434  0.1408 -0.1602  0.2254
11050W        W27524  11.375  11.325  14.000 -0.0202 -0.1232  0.1884
11051W        W27525   0.473  15.479  11.537  0.0506 -0.0150  0.2245
11052W        W27526  16.518   1.124   2.559  0.1995  0.0601 -0.0267
11053W        W27527  15.247  13.532   0.549 -0.1540  0.0323  0.4102
11054W        W27528  12.391   1.113   3.887 -0.1838  0.2645  0.1621
11055W        W27529  15.235  17.045   3.744  0.0913 -0.1939  0.1128
11056W        W27530   2.620   2.519   1.875  0.2224 -0.1478 -0.2542
11057W        W27531   4.263   2.963  11.249 -0.0667  0.2324  0.0710
11058W        W27532   6.988  15.808  13.789  0.1620 -0.1493 -0.2373
11059W        W27533  16.705  13.816  11.831  0.0024  0.2969  0.3375
11060W        W27534  15.527  14.223   3.142 -0.1578  0.0440 -0.1702
11061W        W27535  16.085  10.971  11.976 -0.1141 -0.2148  0.3028
11062W        W27536  14.570   0.620   1.680 -0.2385 -0.0823  0.1945
11063W        W27537  15.714   6.144   2.490 -0.1057  0.0009 -0.0961
11064W        W27538  15.650   2.960   4.738  0.0264 -0.1187 -0.0503
11065W        W27539   6.828  13.839  11.537  0.2065 -0.1587  0.2596
11066W        W27540  11.093   1.332  12.529 -0.0472  0.0746 -0.0096
11067W        W27541  11.937   8.019   3.146  0.2192 -0.3398  0.3773
11068W        W27542   3.833  18.853  12.840 -0.2130 -0.1418 -0.2311
11069W        W27543  18.262  15.168  12.604 -0.3105 -0.0299  0.1142
11070W        W27544  14.978  18.816   1.905 -0.2405 -0.4252  0.2968
11071W        W27545   8.463   9.502  14.401  0.1210 -0.0690 -0.1897
11072W        W27546  18.079   9.973  12.673 -0.2037  0.1847 -0.2193
11073W        W27547   2.856  14.363   2.643  0.2664 -0.1186 -0.2403
11074W        W27548   9.703   8.603   2.880 -0.2808  0.3525  0.3284
11075W        W27549  19.224  14.465   0.356 -0.0639  0.2801 -0.0828
11076W        W27550   0.513   4.852  10.939  0.1275  0.0499  0.0002
11077W        W27551  10.888  18.658   5.207  0.0613 -0.3064 -0.0220
11078W        W27552  16.061  11.807   2.050  0.0043 -0.1601 -0.0571
11079W        W27553   5.134   9.608  10.641 -0.1258 -0.0170  0.2084
11080W        W27554  10.634  16.831  14.151 -0.2274  0.1283 -0.0003
11081W        W27555   9.827  14.261   9.886  0.0977  0.0525 -0.0737
11082W        W27556   1.578  14.461   3.149  0.1359 -0.1276  0.4116
11083W        W27557   9.437  17.209   4.676 -0.1086 -0.0984 -0.0969
11084W        W27558  18.385  13.760  13.964  0.2553 -0.2105 -0.5528
11085W        W27559  11.174   5.178  10.848  0.0147  0.1473 -0.2825
11086W        W27560   0.971  16.409  13.270  0.3530 -0.0592  0.2704
11087W        W27561  17.390   6.009   4.704  0.1231 -0.0763 -0.2533
11088W        W27562  18.625   0.879   1.343 -0.0989  0.3456 -0.1217
11089W        W27563   8.932   6.207   3.759 -0.1058  0.1209  0.0148
11090W        W27564   4.171   3.283   3.498 -0.1708  0.1876 -0.0959
11091W        W27565  12.310   0.555  10.565  0.1643 -0.1272  0.2054
11092W        W27566  17.437  15.225  11.238  0.2090 -0.3651  0.1551
11093W        W27567   9.262  19.366  11.489  0.2459  0.3148  0.2745
11094W        W27568  17.864   5.322   1.580 -0.1703  0.0555 -0.1824
11095W        W27569   1.366  15.043   9.800 -0.0804  0.0661  0.1284
11096W        W27570   3.469   6.254   3.738  0.0765  0.2913 -0.2284
11097W        W27571  11.250   6.239  14.494 -0.3131 -0.0353  0.2823
11098W        W27572  17.413   8.453   3.898  0.3965 -0.2011  0.1997
11099W        W27573   4.532   9.640   5.911  0.0820  0.0433 -0.1345
11100W        W27574  13.434   7.594   3.386 -0.1559  0.0493 -0.0328
11101W        W27575  13.181  16.016   3.509 -0.3962  0.1653  0.1154
11102W        W27576   1.849  12.272   0.682  0.0242 -0.1970 -0.3447
11103W        W27577  10.534  13.436  14.183 -0.0302  0.2006 -0.3993
11104W        W27578   7.091  16.375  13.638  0.1028 -0.0755  0.0613
11105W        W27579   9.390   4.587  11.083 -0.0917  0.0558  0.0938
11106W        W27580   9.469  14.987   2.830 -0.1316 -0.3239  0.2028
11107W        W27581   9.806  15.048  13.467 -0.0061 -0.0664  0.0012
11108W        W27582  14.903  15.825  14.302  0.0048  0.3328  0.1656
11109W        W27583   8.077  15.780  10.302 -0.0463  0.0897 -0.1666
11110W        W27584   5.823   9.809   1.613  0.1223 -0.1963  0.0378
11111W        W27585  17.908   0.040   3.362  0.1017  0.1333  0.2509
11112W        W27586  14.998  14.560   1.123  0.1283  0.1991 -0.0889
11113W        W27587  17.303  11.366   4.089 -0.0512  0.1098  0.1853
11114W        W27588  12.083  17.877   1.938  0.0905 -0.1296  0.1823
11115W        W27589  17.677  14.320   3.093 -0.1014  0.0230  0.0357
11116W        W27590   2.059  17.234   9.652  0.1816  0.2806  0.1957
11117W        W27591  10.638  18.152  13.654 -0.1413 -0.2944 -0.0089
11118W        W27592  18.996   1.384   2.596 -0.5362  0.1565 -0.2381
11119W        W27593  14.479   9.711  10.669 -0.0280  0.2214 -0.3650
11120W        W27594   9.797   9.775   0.531 -0.0952 -0.0243  0.1833
11121W        W27595   2.068   5.687   4.008 -0.0555 -0.0042 -0.0007
11122W        W27596   9.928  10.104  13.714  0.0020 -0.0953  0.0104
11123W        W27597   0.887  17.712  11.347 -0.0034  0.2667  0.1602
11124W        W27598  15.688  18.254  10.655 -0.1300  0.1418 -0.2083
11125W        W27599   6.741   2.627  10.348  0.0823 -0.1426 -0.1215
11126W        W27600  18.793  15.923   3.415  0.0550  0.0677  0.1053
11127W        W27601  13.722  10.760  13.561  0.2451  0.2426 -0.1671
11128W        W27602  11.061  19.448   2.303 -0.2484  0.0199  0.0975
11129W        W27603  17.675   4.516  11.374 -0.2001 -0.0485  0.1559
11130W        W27604   7.957  15.590   2.340  0.2990 -0.1810 -0.1604
11131W        W27605  14.902   9.271  14.308 -0.0849  0.1117  0.0692
11132W        W27606  15.249  17.925   0.779 -0.1805  0.0370  0.1453
11133W        W27607  11.442  10.556  10.069  0.0611  0.0564 -0.1018
11134W        W27608   9.797  16.320   9.504 -0.1048 -0.1685  0.1865
11135W        W27609   9.791   9.305  13.246  0.0477 -0.0102 -0.1192
11136W        W27610  13.922  18.440   1.521  0.0705 -0.1266  0.2607
11137W        W27611  17.005  15.481  10.534 -0.3288 -0.0325  0.1676
11138W        W27612   5.299   2.812   5.516 -0.1148  0.1173 -0.0456
11139W        W27613  14.767  14.129   4.562  0.1448  0.0588 -0.3665
11140W        W27614   0.045  10.855  12.933 -0.1399  0.2013 -0.0594
11141W        W27615  11.728  11.428  12.160 -0.1176  0.3812 -0.0281
11142W        W27616  15.217  12.860   1.436  0.2659  0.1908  0.2671
11143W        W27617  16.557  13.773  13.495  0.1916 -0.0455  0.2527
11144W        W27618   3.764  16.874   0.609  0.1353  0.0368 -0.0091
11145W        W27619   0.123   1.081   9.365  0.1233  0.2011 -0.5271
11146W        W27620  14.976  13.870   2.382 -0.0296 -0.0434  0.2662
11147W        W27621   3.704  15.788   3.610 -0.1740  0.1127 -0.0758
11148W        W27622   6.231  16.249   3.474 -0.0701 -0.1865  0.0738
11149W        W27623   4.054   1.848  11.387 -0.1672  0.1679 -0.1184
11150W        W27624   8.873  18.246   3.437 -0.1766 -0.3501  0.0200
11151W        W27625  10.691   3.371  10.729 -0.2005  0.0771  0.1386
11152W        W27626   7.798  16.160  14.156 -0.1469 -0.3365 -0.0543
11153W        W27627   4.730  11.959   3.042 -0.0848  0.1814  0.1469
11154W        W27628  15.306   1.578   3.483 -0.2735  0.1941 -0.0791
11155W        W27629   1.654  18.668   0.468  0.0047 -0.2480 -0.0358
11156W        W27630  10.239  15.682   2.168 -0.0735 -0.1401 -0.0440
11157W        W27631   5.618  16.650   5.002  0.2829 -0.4363 -0.3623
11158W        W27632  14.434  13.264   1.683  0.0947  0.1118  0.2567
11159W        W27633   4.342  18.027   2.920  0.1174 -0.1884  0.0268
11160W        W27634  14.193  18.501   4.572 -0.2196  0.0718 -0.0806
11161W        W27635  10.858   0.009  12.489  0.0136  0.2300 -0.3037
11162W        W27636   8.371   4.463   3.470 -0.1550 -0.0065  0.0472
11163W        W27637  17.335  11.693  10.899 -0.0922 -0.1392 -0.0759
11164W        W27638   9.122  16.001   4.831 -0.1678 -0.1588  0.1727
11165W        W27639  19.320  10.141   5.345  0.0063  0.0334  0.0592
11166W        W27640   5.440  10.124  14.465 -0.0499  0.0198 -0.2484
11167W        W27641  19.006  13.792   3.416 -0.1552  0.1130 -0.0919
11168W        W27642  16.509  17.822   0.333  0.0559 -0.0653 -0.0374
11169W        W27643   5.337   6.914   5.184  0.0732  0.0029 -0.2191
11170W        W27644  13.363   0.817  14.097  0.1645 -0.0269  0.2517
11171W        W27645  13.932   8.189  13.763  0.1756 -0.0242  0.0409
11172W        W27646  18.879  11.640  12.902 -0.0819 -0.1123 -0.1194
11173W        W27647  11.671   6.647   3.850 -0.1423 -0.1748  0.2528
11174W        W27648   1.699   7.805   3.253  0.0634 -0.0288  0.0682
11175W        W27649  15.364   2.936   0.326  0.0421 -0.2055  0.2737
11176W        W27650  15.064   1.809   2.668  0.0293  0.1449 -0.0703
11177W        W27651   7.116   5.868  12.049 -0.2673 -0.1676  0.0978
11178W        W27652   6.396   8.366   4.822 -0.1100 -0.2497 -0.2795
11179W        W27653   2.930   3.142  10.375 -0.4231 -0.1646  0.3823
11180W        W27654  15.440   8.274  11.142 -0.1789 -0.3458 -0.0170
11181W        W27655   7.186   0.207  13.777  0.0063 -0.0408  0.0904
11182W        W27656   2.655   5.075   1.655  0.0624 -0.3063 -0.1454
11183W        W27657   4.488   0.350  10.064  0.3260  0.0571 -0.0037
11184W        W27658   8.897   1.196   2.457 -0.1676  0.2436 -0.0759
11185W        W27659  19.437  10.237   2.773  0.3734 -0.1150  0.3117
11186W        W27660   7.766  11.714  13.556  0.2241 -0.0878  0.2294
11187W        W27661   0.321  14.843   4.506 -0.0923  0.0397  0.0932
11188W        W27662  17.404   6.554  13.127 -0.0414 -0.0639  0.1209
11189W        W27663  15.258   9.528   1.382 -0.2495  0.0542  0.3195
11190W        W27664  18.671  13.529   2.436  0.0693 -0.0002  0.1997
11191W        W27665   7.995  18.142   4.102 -0.1075 -0.2360 -0.2281
11192W        W27666   5.483  15.375  12.328  0.2042 -0.1081  0.0453
11193W        W27667  13.384   4.416   3.753 -0.2550 -0.2792 -0.0339
11194W        W27668  18.660   2.755  13.059 -0.1055  0.1174 -0.0134
11195W        W27669   3.374   7.654  12.229  0.1335  0.0636 -0.1756
11196W        W27670  10.746   7.252   2.779  0.0396  0.0310  0.2839
11197W        W27671   2.136  12.051   4.731 -0.0529  0.0245 -0.0319
11198W        W27672   3.822   9.887  11.370  0.2384  0.0526 -0.0758
11199W        W27673  10.070   4.843  11.069  0.1063  0.3826  0.0302
11200W        W27674  14.569  10.747  13.363 -0.0910  0.0080 -0.2448
11201W        W27675   3.420   2.186   1.847  0.3699 -0.0928  0.1262
11202W        W27676  14.435  15.450  10.901 -0.0625  0.1562  0.3837
11203W        W27677   5.339   8.192  12.995 -0.0555 -0.1708  0.1834
11204W        W27678  15.837   2.437  10.850  0.1959  0.1188  0.1402
11205W        W27679   9.704   1.682  11.700  0.0307 -0.0164 -0.3771
11206W        W27680   8.267  14.307   2.674 -0.0031 -0.0138  0.0490
11207W        W27681   3.455  16.394   3.730 -0.1298  0.0229 -0.1930
11208W        W27682  10.894  19.533   0.790 -0.0147  0.1383  0.0217
11209W        W27683  13.483   2.362  13.203 -0.0599  0.2110 -0.1877
11210W        W27684   9.057   7.242   3.946  0.0610  0.0336  0.2327
11211W        W27685   8.593  17.775  13.960  0.1498 -0.0042  0.1190
11212W        W27686   5.602  11.861   4.155 -0.1701 -0.2372 -0.2946
11213W        W27687   4.108   6.274  11.924  0.3167  0.2587 -0.0789
11214W        W27688   6.017   3.304   1.777 -0.0519  0.1426 -0.1651
11215W        W27689  11.709   9.069  14.016 -0.0204  0.0690 -0.1746
11216W        W27690  12.408   1.165  14.716 -0.1348 -0.1419  0.1905
11217W        W27691   3.101  13.295   1.048  0.0405 -0.1081 -0.3247
11218W        W27692  13.865   0.444  14.050  0.0099  0.0014 -0.2820
11219W        W27693   8.689   3.762  13.925 -0.1924 -0.1718 -0.0582
11220W        W27694   6.852   5.971  13.773  0.0678 -0.1826 -0.0909
11221W        W27695  14.338  19.547   9.256 -0.0986 -0.2562  0.0939
11222W        W27696   3.575  15.952  12.655 -0.0412 -0.3086 -0.2182
11223W        W27697  15.869   2.584   3.941  0.1428 -0.1516 -0.1264
11224W        W27698   3.557   4.667  11.874  0.1572 -0.2705 -0.0828
11225W        W27699   1.387   1.158   8.944  0.0715 -0.0929  0.2933
11226W        W27700   5.714   6.182  11.227 -0.2183 -0.2270  0.3312
11227W        W27701   2.077   4.835   4.692 -0.1643  0.3500  0.2448
11228W        W27702  14.551   1.905   2.886  0.0185  0.3373 -0.1830
11229W        W27703  16.394  12.540  13.836  0.1067 -0.0473  0.0539
11230W        W27704   2.026  17.815   1.992 -0.2086 -0.1752  0.1776
11231W        W27705  10.861   5.069   4.171 -0.1111 -0.2482  0.4440
11232W        W27706  14.693  19.118   4.139 -0.2930 -0.2693 -0.4800
11233W        W27707  19.016  16.936  14.276  0.1835 -0.2586  0.3754
11234W        W27708   4.270  15.297  10.913 -0.2772  0.0475 -0.0829
11235W        W27709   7.201  10.751   4.016  0.0996 -0.1901  0.1290
11236W        W27710  19.523   4.471  10.490  0.0581  0.0596  0.4133
11237W        W27711  19.571  16.425   3.204 -0.1081 -0.2666 -0.1154
11238W        W27712  14.326  16.952  14.583 -0.0005  0.0377  0.0994
11239W        W27713  12.555   2.450   1.877 -0.4898 -0.0740  0.3140
11240W        W27714  16.690   2.608   3.501 -0.0130 -0.0977  0.1371
11241W        W27715   5.827  14.221   9.889  0.0134 -0.2639 -0.0009
11242W        W27716  14.023  10.914   5.080 -0.2734  0.1702  0.3590
11243W        W27717   2.391   4.036  11.227 -0.3208  0.2319 -0.0420
11244W        W27718  11.656   8.496  13.782  0.1254  0.0706 -0.0672
11245W        W27719   4.190   9.682  14.085  0.0089 -0.2055  0.1024
11246W        W27720   2.674  11.320  12.697  0.2165  0.2107 -0.0048
11247W        W27721   6.395   3.643  12.263 -0.0551  0.0257 -0.1073
11248W        W27722   7.508  13.255   3.249  0.1573  0.0201 -0.1328
11249W        W27723   3.913  12.215   0.348 -0.2653 -0.0272 -0.0523
11250W        W27724   1.430   8.669  13.279 -0.1931  0.0420 -0.1116
11251W        W27725   2.897   8.302  11.552  0.0988  0.1988 -0.1590
11252W        W27726  15.284   4.586   3.594 -0.2590  0.2339 -0.5214
11253W        W27727  13.281   4.569   2.820 -0.0612 -0.0084 -0.0705
11254W        W27728  15.632   0.369   4.073 -0.0466 -0.0282  0.2192
11255W        W27729  12.989   8.591   2.065  0.2287 -0.0564  0.1670
11256W        W27730  14.599   5.103   2.637 -0.1784 -0.0597  0.0760
11257W        W27731   0.584   8.677   3.010 -0.0881  0.1422  0.1145
11258W        W27732  18.054  19.094   1.627  0.3006  0.0411  0.3519
11259W        W27733  16.352  16.031   0.144  0.2342 -0.0111 -0.0091
11260W        W27734  12.426   7.792  11.620 -0.2418  0.1275  0.2888
11261W        W27735   2.603  13.532   3.767  0.0926  0.1323  0.1343
11262W        W27736   9.601   0.842  11.584  0.2803 -0.1845  0.0768
11263W        W27737   8.813   1.762  11.216 -0.0524 -0.3533  0.0296
11264W        W27738  14.743  16.140   0.016  0.0647 -0.0950 -0.0202
11265W        W27739  18.051  16.247   0.381 -0.2267  0.0694  0.2005
11266W        W27740   8.820  16.130   0.498  0.2041  0.4091  0.2100
11267W        W27741   8.580  12.414   3.166 -0.1702 -0.1362  0.3279
11268W        W27742   6.467  17.008   0.951  0.0447 -0.0099 -0.0319
11269W        W27743  18.766  11.158   2.722 -0.0434  0.0796  0.3094
11270W        W27744   7.649  10.757   0.553  0.0868  0.0065 -0.0399
11271W        W27745   4.650  16.441  14.166 -0.1408  0.1147 -0.0295
11272W        W27746  18.110   3.589  13.022  0.2296 -0.0544 -0.0033
11273W        W27747   2.974   3.148   2.383 -0.0294  0.2817 -0.1884
11274W        W27748   9.548  17.313   5.181 -0.0637  0.0559  0.1409
11275W        W27749   7.579   6.657  11.077  0.0498  0.0640 -0.5754
11276W        W27750   1.095   5.751  12.252 -0.2065 -0.0097  0.2341
11277W        W27751  17.008   4.031   1.414 -0.1342 -0.1639 -0.2155
11278W        W27752  19.190   6.527   2.111  0.2463 -0.0472 -0.1589
11279W        W27753   9.760   1.640  14.044 -0.2994  0.1667 -0.0163
11280W        W27754  11.410  13.160  11.152 -0.3552 -0.1189  0.0933
11281W        W27755  18.044  11.924   4.482  0.3244  0.2699 -0.0420
11282W        W27756  16.930   7.531   0.658 -0.1870 -0.1135  0.3009
11283W        W27757  13.225  17.297  10.948  0.2956 -0.0541  0.0008
11284W        W27758  12.042  12.406  13.960 -0.1959 -0.1471  0.1928
11285W        W27759  14.487   0.694  13.384  0.0073 -0.2754 -0.1080
11286W        W27760  19.125  14.642  11.605  0.3174  0.1236 -0.4776
11287W        W27761  14.635  14.698   1.418 -0.1114 -0.0931  0.0391
11288W        W27762   4.051  13.919  11.683  0.2090  0.1706  0.1309
11289W        W27763   8.574   0.425  10.348 -0.4081 -0.1118  0.3002
11290W        W27764   0.849   4.980   0.575  0.1935  0.1142  0.0258
11291W        W27765   1.322   0.788   2.733  0.0692  0.0182 -0.1920
11292W        W27766   8.455  15.260   2.531 -0.0344 -0.1967 -0.2387
11293W        W27767  12.710   1.462   3.052  0.1839 -0.2008 -0.0583
11294W        W27768  15.034   5.417   0.712  0.3943 -0.1047  0.2118
11295W        W27769  17.529   8.923  12.364 -0.0702  0.0352  0.1648
11296W        W27770   9.090  12.358  14.606  0.0544  0.1959  0.0183
11297W        W27771   2.719   5.305   4.584  0.2125 -0.0816  0.0690
11298W        W27772  18.496  17.388   2.272  0.0798  0.0530 -0.1700
11299W        W27773  10.229   0.725  12.785 -0.0164  0.1518  0.0493
11300W        W27774  15.932  16.930  12.186  0.0424  0.1762 -0.1656
11301W        W27775  13.840   1.517   3.776  0.6508 -0.0384 -0.2892
11302W        W27776  16.710   9.629  12.140 -0.1113 -0.1661  0.0797
11303W        W27777  13.253   2.059   4.827  0.3302 -0.0364 -0.0456
11304W        W27778   3.638  10.125  12.179  0.1808 -0.1627  0.1656
11305W        W27779  12.193   0.043  12.744  0.1132  0.3548  0.1964
11306W        W27780   6.996   3.534   0.734  0.0761 -0.0389  0.2253
11307W        W27781  10.779   0.413   3.748  0.2148 -0.2457  0.2132
11308W        W27782  18.370   1.210   0.912  0.0233 -0.0718  0.1119
11309W        W27783   1.355  11.954  11.411  0.6387 -0.0131  0.1057
11310W        W27784  18.589   2.635   0.168  0.1281  0.3420  0.0505
11311W        W27785   2.320   9.022  10.226 -0.2349  0.0736  0.1653
11312W        W27786  11.689   5.821  10.584 -0.3088 -0.3787 -0.1520
11313W        W27787  19.549  10.196   1.433  0.0425  0.1214  0.3532
11314W        W27788  11.797   2.062   0.417  0.1240  0.0561 -0.0587
11315W        W27789  14.765   9.435   1.480 -0.2207 -0.0392 -0.3460
11316W        W27790  10.661   5.146   0.340  0.4470  0.1394  0.2273
11317W        W27791   3.184  19.261   3.138 -0.0516  0.2160  0.1108
11318W        W27792  12.501   9.558  13.754  0.0893 -0.2809  0.1387
11319W        W27793  15.619  19.078   0.463  0.0111 -0.2039  0.0430
11320W        W27794   6.027  13.023   0.529 -0.1859  0.1152 -0.1802
11321W        W27795   6.147  16.344  13.299  0.0792  0.0734  0.0175
11322W        W27796  19.299   6.556   1.526  0.1444 -0.0773  0.0845
11323W        W27797   8.997   2.654   2.681 -0.1271  0.0359  0.0764
11324W        W27798   5.319   0.461   3.976 -0.0906 -0.0126 -0.0950
11325W        W27799  17.330  17.463   5.398  0.0896 -0.0500  0.3054
11326W        W27800  18.173  14.982   3.774  0.1959 -0.1040 -0.2011
11327W        W27801  13.963  10.049   4.377 -0.0144 -0.0399  0.2869
11328W        W27802   4.556  14.556   3.066 -0.1497  0.3999 -0.1660
11329W        W27803  19.400   9.164   0.117  0.1829 -0.2829  0.2199
11330W        W27804  15.402  12.579  13.043  0.2220 -0.2517  0.0920
11331W        W27805  10.927   8.852   5.175  0.0233 -0.0453 -0.3858
11332W        W27806  17.086   6.069  12.865 -0.1379  0.0943  0.1804
11333W        W27807   8.429   5.793   4.778  0.1724 -0.2305  0.2412
11334W        W27808   1.540   4.743   2.292  0.3366  0.3522  0.2232
11335W        W27809   3.122   8.836  11.529 -0.1101 -0.1014  0.2847
11336W        W27810  14.259   9.132   1.558  0.0467  0.1817  0.2335
11337W        W27811   3.693  11.032  13.573 -0.2939 -0.0585  0.2365
11338W        W27812  16.963  11.011  14.073  0.5092 -0.3248  0.1275
11339W        W27813   9.499   2.835   3.515 -0.1510  0.2568 -0.1591
11340W        W27814   6.858  11.033   2.867  0.2373 -0.4877  0.0789
11341W        W27815  17.839  17.119  11.884  0.1456  0.0235 -0.2989
11342W        W27816   3.270   8.057  10.628  0.1434 -0.0760 -0.4755
11343W        W27817   3.660   4.215   5.664  0.0007  0.0909 -0.2812
11344W        W27818   9.565   7.799  11.072 -0.1232 -0.1629 -0.0692
11345W        W27819  10.188  12.616   1.421  0.1972 -0.2032 -0.0193
11346W        W27820  15.950   0.545   9.931  0.0558  0.2295 -0.0087
11347W        W27821   0.900   2.945  12.143 -0.0757  0.1057 -0.0252
11348W        W27822   6.006   9.423   9.742 -0.2232 -0.1912  0.1551
11349W        W27823  11.592   2.029   4.039 -0.1628  0.0261  0.0081
11350W        W27824   8.917   2.324  13.180 -0.3783 -0.0977  0.2623
11351W        W27825   4.807   1.718   0.020  0.0742  0.0191 -0.2818
11352W        W27826  16.166   0.871  13.500  0.3649  0.1759  0.2973
11353W        W27827   6.487   3.565   2.124 -0.3416 -0.0220  0.3072
11354W        W27828  13.779   3.947  11.538 -0.3593 -0.0962  0.3925
11355W        W27829  12.687  13.986   4.742 -0.2593 -0.0726 -0.1006
11356W        W27830  13.324  10.611   1.878 -0.1633 -0.0350  0.2397
11357W        W27831   2.829   6.453  11.729  0.4542 -0.1400 -0.0561
11358W        W27832   9.457  12.050  14.446 -0.2724  0.2142 -0.0253
11359W        W27833   8.395  12.846  11.123  0.0178 -0.0788  0.2636
11360W        W27834   5.322  12.733   3.652  0.0813  0.1019 -0.2842
11361W        W27835  13.458   0.360  12.968 -0.1531  0.0873  0.1277
11362W        W27836   0.033  19.127  10.621  0.3338 -0.1283  0.0400
11363W        W27837  14.197  14.252  13.227  0.0231 -0.1692  0.0287
11364W        W27838  16.303   0.945  11.492 -0.1559  0.1233  0.4146
11365W        W27839   9.751  10.190   2.534 -0.6260 -0.0444  0.0806
11366W        W27840   3.453   4.089  11.729 -0.2396  0.0864  0.0942
11367W        W27841  12.205   4.438  11.801  0.0386 -0.2389 -0.1680
11368W        W27842  15.342   4.423  13.834 -0.0095  0.1225 -0.2010
11369W        W27843  11.085  10.271  11.338  0.2090 -0.0452  0.4251
11370W        W27844   5.294   2.944  14.235  0.0461  0.0792  0.2495
11371W        W27845  14.431   9.565   0.916  0.3045  0.1389 -0.0651
11372W        W27846   4.459  13.865   2.572 -0.0842  0.1205  0.1940
11373W        W27847   8.292  12.247   4.069  0.2293 -0.0221 -0.1972
11374W        W27848   7.798  13.840  10.500  0.0678  0.0649  0.0802
11375W        W27849  16.985  14.082   1.055  0.1632 -0.1053 -0.1741
11376W        W27850   2.502  15.366   1.956 -0.1765 -0.2192 -0.3218
11377W        W27851   0.368  13.110   2.806  0.0837 -0.0297 -0.2933
11378W        W27852   4.485   5.785  10.477 -0.0328  0.1073 -0.3282
11379W        W27853   3.728  17.534   1.596  0.1636  0.0399  0.1199
11380W        W27854   0.330   4.255  11.425 -0.0646  0.1477 -0.3382
11381W        W27855  10.765  13.892  14.132 -0.0855 -0.2865 -0.1458
11382W        W27856   4.327   8.373   4.281  0.1544  0.0954  0.0015
11383W        W27857   8.607   5.691   1.334  0.0064 -0.3560  0.0801
11384W        W27858   4.910   1.069   0.244 -0.1447 -0.2806 -0.1558
11385W        W27859   9.702  12.298  10.453  0.1822  0.0682  0.3427
11386W        W27860  10.294   7.682  12.270  0.2948  0.2202  0.2448
11387W        W27861  13.395   4.173   1.539  0.0149  0.3908 -0.0346
11388W        W27862  10.283   9.062   4.893  0.2469 -0.0156 -0.2170
11389W        W27863   6.791   9.756   4.750 -0.5590  0.0821 -0.0045
11390W        W27864  11.775  14.846  10.619  0.1795 -0.0512  0.0469
11391W        W27865  16.181   9.033  14.451  0.0483  0.2866 -0.3763
11392W        W27866  18.106  13.034   0.063 -0.1128 -0.0757 -0.2645
11393W        W27867   4.689   6.476   4.107  0.0092  0.0930  0.0622
11394W        W27868   3.264  10.131  13.208 -0.0634 -0.0921 -0.1213
11395W        W27869   7.328  12.186  11.449  0.1186 -0.1292  0.1584
11396W        W27870  18.313   4.032  11.899  0.0055 -0.2348 -0.1296
11397W        W27871   2.446   8.262   1.472 -0.1559  0.1463  0.0334
11398W        W27872  12.533   5.686  11.269  0.2186  0.1326  0.0649
11399W        W27873  16.075   1.305   2.511  0.3618  0.1132 -0.1921
11400W        W27874  11.252  12.982   1.314  0.1269 -0.2908  0.0284
11401W        W27875  11.934   6.320   1.195 -0.0425 -0.2469  0.2063
11402W        W27876   4.333  10.811   4.576 -0.4653 -0.0597  0.0844
11403W        W27877  11.051  17.465   2.541 -0.2802  0.2225  0.0026
11404W        W27878   0.370   0.883  10.198  0.3046 -0.0798 -0.2108
11405W        W27879  17.812   9.036  14.185 -0.0144 -0.2928  0.5603
11406W        W27880   2.281   9.146   4.319  0.5081 -0.2686  0.1663
11407W        W27881   6.851   8.605   3.320 -0.0832  0.3648 -0.2968
11408W        W27882   0.741   9.143  12.073  0.0565 -0.2846 -0.1107
11409W        W27883  15.148  18.399  12.607  0.2949  0.1961  0.2094
11410W        W27884   2.581   8.631  14.387 -0.0576 -0.2203  0.1762
11411W        W27885  11.729   7.201   2.639  0.0067  0.0722  0.0652
11412W        W27886   4.539   5.589   0.573 -0.2829 -0.0106 -0.3830
11413W        W27887  10.468  16.461   3.790 -0.1891 -0.5362  0.5928
11414W        W27888   0.446  14.475  10.565 -0.2516  0.1534  0.2260
11415W        W27889   6.191   3.212   4.372 -0.1730 -0.3630 -0.0138
11416W        W27890   1.210  13.588  12.022  0.0654  0.0994 -0.0911
11417W        W27891  12.455  17.294   0.569  0.2069  0.1360 -0.3572
11418W        W27892   4.515   2.882   3.823 -0.2175 -0.0983 -0.1719
11419W        W27893  17.203  13.877   3.791 -0.3844 -0.1651 -0.6079
11420W        W27894   1.878   9.321  10.661  0.0629 -0.1464 -0.2303
11421W        W27895   9.440   7.800   2.338  0.0667 -0.2183 -0.2012
11422W        W27896   2.414   5.592  11.311  0.0378  0.2593 -0.3007
11423W        W27897  12.812   3.090  12.190  0.0177  0.3207  0.1578
11424W        W27898   8.741   0.141  13.093 -0.0035  0.2265  0.1998
11425W        W27899   6.629  11.472  11.155  0.1485 -0.0153  0.1294
11426W        W27900  16.637   3.635  14.349  0.1646 -0.0782  0.2514
11427W        W27901  14.669   4.489  11.787  0.0636 -0.2269  0.2079
11428W        W27902   6.074   6.085   3.738 -0.0212  0.4208  0.2759
11429W        W27903   9.955  12.015  13.121 -0.0119 -0.0056  0.1903
11430W        W27904   6.821   3.298   3.807  0.1142 -0.0868  0.1016
11431W        W27905  11.152  16.016  13.567  0.1226  0.2074  0.1807
11432W        W27906  10.925  16.853   5.547 -0.1049 -0.1533 -0.0312
11433W        W27907   4.760   3.011   0.189  0.0472 -0.0776  0.2058
11434W        W27908  12.614   6.742   0.642 -0.2673 -0.0993 -0.0111
11435W        W27909   7.317   5.766  14.692  0.0169  0.0800 -0.1274
11436W        W27910  18.759   2.700  12.245  0.3873 -0.2690 -0.2271
11437W        W27911   4.877  14.077  13.177  0.1898 -0.2891 -0.0618
11438W        W27912  14.692  15.000  10.830  0.1632  0.0281 -0.1427
11439W        W27913   0.413  14.681  11.854  0.1512  0.0815  0.0586
11440W        W27914  15.589  16.204  10.357 -0.0521  0.4097 -0.3017
11441W        W27915  19.083   9.527  12.514  0.0811 -0.1924  0.0291
11442W        W27916   5.589   4.986  10.724 -0.1832  0.2499 -0.0949
11443W        W27917  12.825  17.672  10.376 -0.0304  0.1606 -0.3158
11444W        W27918   9.617   8.739  11.561 -0.0217  0.2212 -0.2808
11445W        W27919   0.230  17.045   0.840 -0.1480  0.1234  0.2068
11446W        W27920   3.079  13.878   0.898  0.4951  0.1233  0.2979
11447W        W27921   4.234   0.032  13.048 -0.1500  0.1043  0.1060
11448W        W27922  13.739  11.104  12.052  0.0611  0.3422 -0.2443
11449W        W27923   6.574  18.830   2.921 -0.2263  0.0272 -0.1054
11450W        W27924   2.932  17.333   2.574  0.1532 -0.1518 -0.0401
11451W        W27925   4.611  16.811  12.483 -0.0064 -0.3242 -0.1153
11452W        W27926   0.156   4.281  10.876  0.0070 -0.0928 -0.3139
11453W        W27927   4.193  13.191   0.896  0.3740  0.5240 -0.1373
11454W        W27928  10.496   8.783  11.305 -0.0565 -0.2301 -0.0872
11455W        W27929   1.510   1.383  13.010 -0.0449  0.2036 -0.0468
11456W        W27930   3.356  11.319   2.819 -0.1224 -0.1510 -0.3341
11457W        W27931  12.949  11.383  13.868 -0.1133 -0.1080  0.1809
11458W        W27932   6.311   8.124  11.072 -0.0717 -0.2018  0.4591
11459W        W27933  15.796   5.632   2.071 -0.2475 -0.1480 -0.1712
11460W        W27934  16.450   1.259   1.540  0.1342  0.0414 -0.4672
11461W        W27935  19.395   4.120   1.496 -0.0674  0.2268 -0.1242
11462W        W27936  15.109   8.170  10.630  0.2503 -0.0121 -0.1281
11463W        W27937   6.441   9.339   4.371 -0.1675  0.1408 -0.1055
11464W        W27938  15.486  10.875  12.074 -0.1170  0.4607  0.1382
11465W        W27939  12.050  16.396  14.419 -0.0080 -0.0165 -0.0440
11466W        W27940  15.881   9.522  11.783 -0.2669 -0.0853 -0.3125
11467W        W27941  17.279   4.748  12.231 -0.0635  0.1382 -0.0716
11468W        W27942  18.236   6.110  13.576  0.1334  0.1666 -0.1439
11469W        W27943   4.490  11.127  13.071 -0.0072 -0.2152  0.0620
11470W        W27944   7.108  11.717   4.445  0.0556  0.0909 -0.0719
11471W        W27945   9.992   6.265   2.419 -0.0173  0.2581  0.4604
11472W        W27946   2.957   6.025   3.726  0.0442 -0.1960  0.0334
11473W        W27947  11.817  10.190  13.496  0.0241 -0.3180  0.2039
11474W        W27948  12.333   7.127   3.992  0.1402  0.0701 -0.0687
11475W        W27949  12.812   9.360   0.936  0.2375  0.0470 -0.0393
11476W        W27950  18.184  11.938   3.731 -0.4369 -0.2288  0.3046
11477W        W27951   7.513   2.859   3.939 -0.0655  0.0451 -0.2292
11478W        W27952  15.489   9.372  10.297  0.0305  0.2277 -0.2052
11479W        W27953   3.516  13.120   9.650 -0.0142 -0.2090 -0.0071
11480W        W27954  17.680  12.719   2.333 -0.1652  0.0041  0.3081
11481W        W27955   0.008  17.945   2.328 -0.0570  0.3320 -0.0627
11482W        W27956   6.292  14.271   0.600  0.3008 -0.4309 -0.2269
11483W        W27957   1.137   5.900   0.767  0.3414 -0.5420 -0.1656
11484W        W27958  19.314  19.559  14.369  0.0533  0.2271  0.0358
11485W        W27959   1.920  11.310   0.769 -0.1303  0.2885 -0.1401
11486W        W27960   2.438  15.646   9.896 -0.2095  0.2911  0.2883
11487W        W27961   8.778  19.005   1.742 -0.0694 -0.2662 -0.0523
11488W        W27962   2.651  10.720   3.224  0.0093 -0.0420  0.1788
11489W        W27963   1.395   1.349   1.066 -0.1700  0.0185 -0.1942
11490W        W27964  12.714   9.630  12.496 -0.2594  0.3226  0.0166
11491W        W27965  11.087   4.459   0.423  0.0434  0.0074  0.0365
11492W        W27966  15.389   6.582   0.778 -0.1880  0.0583  0.0436
11493W        W27967   8.501   8.369   3.755 -0.0149  0.0574 -0.1366
11494W        W27968  11.421  12.546   0.313  0.1620  0.0212  0.1642
11495W        W27969  18.828   6.891   0.357 -0.3002 -0.2689  0.0834
11496W        W27970  15.819  16.574   1.944  0.1587  0.3321  0.1796
11497W        W27971   9.004  17.780   2.291 -0.0461 -0.0112 -0.0457
11498W        W27972   5.549   3.088   1.818 -0.2048  0.0935 -0.3601
11499W        W27973  16.360  16.319  12.580  0.0407 -0.0019  0.2226
11500W        W27974   0.122   4.760  13.618 -0.1464  0.4484  0.1415
11501W        W27975   0.455  10.909   4.396  0.2350 -0.1713 -0.1267
11502W        W27976  10.569   0.757   3.062 -0.0840  0.4412  0.1951
11503W        W27977  13.904  13.386   0.277 -0.1851 -0.0865 -0.1947
11504W        W27978  18.758  16.361  11.907 -0.4329 -0.3070 -0.0380
11505W        W27979   3.052  11.157   1.299  0.0280  0.0179  0.2117
11506W        W27980  17.128  18.885  13.617  0.2975 -0.1645 -0.1123
11507W        W27981  18.575  11.591   0.928  0.3441 -0.0948  0.3327
11508W        W27982  16.669   8.948  13.883  0.0911 -0.0815 -0.2257
11509W        W27983   0.193  13.335  12.790  0.3842 -0.1013 -0.0494
11510W        W27984   0.005  12.478   3.727 -0.0076 -0.0376  0.1060
11511W        W27985  16.433   0.666   1.472  0.0446 -0.0217  0.1593
11512W        W27986  18.620   3.501   0.020  0.1208 -0.2556  0.0614
11513W        W27987  16.813  17.746   2.650  0.6563  0.2268  0.6859
11514W        W27988  15.530  17.992   2.056 -0.2319 -0.1146  0.3509
11515W        W27989  11.325  10.373   2.846  0.2330  0.2262 -0.0619
11516W        W27990   5.363  12.928  12.783  0.0668  0.0943  0.2068
11517W        W27991  16.959   7.705   1.174  0.0922 -0.2358  0.2705
11518W        W27992  11.881   2.784   3.079 -0.1133  0.1609 -0.0530
11519W        W27993   9.375   7.658  14.361 -0.1311 -0.1697  0.0258
11520W        W27994   6.541   5.706  12.990 -0.2739 -0.0059 -0.3173
11521W        W27995   8.567  18.677  13.208  0.1481 -0.0626 -0.3106
11522W        W27996   4.225   4.890  14.297 -0.2221 -0.0022 -0.0388
11523W        W27997  10.563   8.155   0.697  0.1592 -0.1099  0.0762
11524W        W27998   5.443   3.299   5.738 -0.0250 -0.0823 -0.1547
11525W        W27999  11.592  11.701  11.678 -0.1597 -0.1619 -0.2614
11526W        W28000  11.457   0.940   3.510 -0.5086 -0.1763  0.0323
11527W        W28001  11.311   7.475   4.888 -0.1207 -0.1338 -0.1637
11528W        W28002   0.889   8.519   0.372  0.1531  0.1564 -0.0770
11529W        W28003   9.485   3.770   1.388 -0.3119 -0.0545 -0.1439
11530W        W28004   9.706  10.381   4.977  0.1483  0.0704  0.0323
11531W        W28005   3.039   0.170   3.064 -0.1483  0.0013 -0.2416
11532W        W28006   4.512  19.382   3.842  0.0341  0.0922 -0.0515
11533W        W28007   3.421  18.130   0.413 -0.0616  0.2370  0.2758
11534W        W28008   3.307   5.096  12.747  0.0031  0.2506 -0.0384
11535W        W28009   2.116   1.756   1.541  0.0817 -0.0592 -0.1382
11536W        W28010   9.428   6.404   5.232 -0.0050  0.0935 -0.0782
11537W        W28011  11.113   0.340   2.403  0.0092 -0.0501 -0.2084
11538W        W28012   0.633  17.365   9.995  0.2472  0.4542 -0.4802
11539W        W28013   3.480  12.367   3.195 -0.3687  0.1885  0.0942
11540W        W28014   3.235   4.173  11.152  0.1560 -0.2888 -0.0702
11541W        W28015  15.654  17.423   1.255  0.1748 -0.1560 -0.1964
11542W        W28016  14.982   6.010   3.250 -0.2815 -0.1294  0.1463
11543W        W28017   4.987   3.164   5.271  0.0551  0.0097  0.1501
11544W        W28018  18.221   6.719  10.957  0.1233 -0.0292  0.0722
11545W        W28019  12.999  19.012   0.988 -0.3859  0.1115  0.0152
11546W        W28020   3.235   5.340   0.608  0.1088 -0.0371  0.2317
11547W        W28021  13.037   3.714   1.738  0.0649  0.1139  0.0383
11548W        W28022   4.218  17.055   1.116 -0.0041  0.1910 -0.0863
11549W        W28023  12.315   6.921   1.322  0.1364 -0.2381  0.1002
11550W        W28024  14.472   9.653   5.051  0.0451 -0.4181 -0.1004
11551W        W28025   5.523   6.357  11.678  0.2787 -0.2413  0.0450
11552W        W28026  11.649   2.578   1.311 -0.0718  0.1756  0.1657
11553W        W28027  15.013  14.789   5.814 -0.2116  0.2126  0.2559
11554W        W28028  17.869  10.309  13.100 -0.1988  0.3069  0.2816
11555W        W28029  13.324   9.867  11.954 -0.1486 -0.1337  0.3680
11556W        W28030   3.696   3.502  12.294 -0.5633 -0.0080  0.0474
11557W        W28031   1.158  13.641  14.603 -0.0208  0.2869 -0.3634
11558W        W28032  14.194   0.121  12.574  0.1964  0.0371  0.3604
11559W        W28033  10.481   0.042   4.757 -0.2076 -0.2335  0.0001
11560W        W28034  10.289  18.158  10.027 -0.0504  0.3136 -0.3291
11561W        W28035   4.556   8.751  13.463  0.1313 -0.0054  0.1015
11562W        W28036   9.452   0.796   0.952  0.0709 -0.0623  0.2047
11563W        W28037   0.238  11.211   2.021 -0.3283 -0.3884  0.0303
11564W        W28038  11.710   5.263   2.907 -0.0917  0.0284  0.0690
11565W        W28039  16.567  15.373   2.468 -0.1734  0.2697 -0.0412
11566W        W28040  11.347  10.339   3.730  0.1990 -0.3362  0.0248
11567W        W28041  18.944   1.762   4.069 -0.2874 -0.1230  0.0977
11568W        W28042   5.932   1.534  11.476 -0.0337 -0.1689  0.1340
11569W        W28043  16.186   5.158   0.796 -0.0341 -0.0071  0.5190
11570W        W28044   1.014   0.346   1.874  0.0556  0.1232  0.0923
11571W        W28045  11.498   7.919  10.477  0.1116  0.2960 -0.0284
11572W        W28046  15.974  16.724  13.904  0.4045  0.3498  0.1188
11573W        W28047   0.511   0.606  11.046  0.3413  0.3357  0.3307
11574W        W28048   0.795  16.189   2.289 -0.0256  0.0105 -0.2355
11575W        W28049   9.798  16.791  13.128 -0.1159 -0.1622  0.1923
11576W        W28050  14.540   2.294   1.119  0.0126 -0.0177  0.3140
11577W        W28051   6.734   3.738   2.508  0.0251  0.0906 -0.1859
11578W        W28052  15.879   1.808   5.392 -0.0958 -0.1970  0.2130
11579W        W28053  15.106  15.407   4.303  0.2144  0.2181 -0.3706
11580W        W28054   5.190  14.798   4.350 -0.0512  0.1072 -0.3520
11581W        W28055   8.082   8.123  11.516 -0.0664  0.1068 -0.1024
11582W        W28056   0.409  19.259   0.832  0.0163 -0.0238 -0.2424
11583W        W28057   7.508   0.734  10.021  0.1404  0.0400 -0.0137
11584W        W28058  12.267   4.442   2.022  0.1744 -0.1666  0.1271
11585W        W28059   4.865   2.311   1.372 -0.2989  0.1654  0.2355
11586W        W28060   8.131  14.652  10.106 -0.2134  0.1596  0.0163
11587W        W28061  13.403  19.021  10.201 -0.0413 -0.0992  0.1675
11588W        W28062  10.667   2.782   3.500  0.0472  0.1470  0.1915
11589W        W28063  17.471  15.337   0.184 -0.2380 -0.1637 -0.1675
11590W        W28064  14.609   0.250  10.889  0.1874  0.1341  0.1770
11591W        W28065   0.037  11.721  13.596 -0.0106  0.4015  0.0692
11592W        W28066  19.354   7.165   9.782 -0.3302 -0.3181 -0.0164
11593W        W28067   0.490   8.510   2.459 -0.3909  0.0962 -0.1526
11594W        W28068  10.529  19.223  10.852  0.0227 -0.1120 -0.4468
11595W        W28069   8.756  13.001   0.380 -0.3488  0.1405  0.3943
11596W        W28070  13.212   6.932  10.797  0.1367 -0.1452  0.1237
11597W        W28071   8.935  14.602  12.980 -0.0698 -0.2021  0.4693
11598W        W28072  16.401   5.539   0.546 -0.4841 -0.0807 -0.1592
11599W        W28073   0.261  16.367  12.543 -0.0178  0.4630  0.0548
11600W        W28074   5.537  11.130   5.765  0.1401  0.0354 -0.1003
11601W        W28075   0.516  17.712  13.268  0.0203  0.2850  0.5160
11602W        W28076   4.694   9.965  13.218 -0.0833  0.1131  0.1405
11603W        W28077   8.907  17.281   1.316 -0.0046  0.0636  0.1387
11604W        W28078  18.980  11.231  10.747  0.1817 -0.4239 -0.3274
11605W        W28079   5.033  11.704   3.844  0.1863  0.2671  0.0727
11606W        W28080  11.986  13.290   0.777  0.0931  0.0128  0.0631
11607W        W28081   0.956  19.437  13.177 -0.3276 -0.3364 -0.3195
11608W        W28082  14.984   9.231   5.886  0.0553 -0.2539 -0.1616
11609W        W28083   5.463   1.295   3.661  0.0251 -0.0335  0.1978
11610W        W28084   2.866   1.270   2.204  0.1507  0.1923 -0.0395
11611W        W28085   3.015  15.035   1.373  0.1144  0.2197 -0.3093
11612W        W28086  14.438  18.358   2.215  0.1752 -0.0344  0.0761
11613W        W28087   6.998   9.490  12.059 -0.2537 -0.2101 -0.0813
11614W        W28088   8.524  19.562  14.024  0.1190  0.0698  0.0037
11615W        W28089  18.532  12.121   1.028 -0.2102  0.2812 -0.0169
11616W        W28090  10.058   1.268   1.780 -0.4876 -0.1319 -0.0946
11617W        W28091   3.916  14.378   4.544 -0.2938  0.0065  0.1479
11618W        W28092   3.636  13.427   3.162 -0.2995  0.1127  0.0599
11619W        W28093  18.089   8.941   1.314 -0.1481  0.0032 -0.0838
11620W        W28094   4.323  12.786   3.221 -0.1455  0.0255  0.2454
11621W        W28095   9.002   1.299  10.494  0.1709 -0.0751 -0.1447
11622W        W28096  18.557  13.404  10.525 -0.0838  0.2640 -0.1692
11623W        W28097   3.054  13.266   9.690 -0.3842  0.0242 -0.0020
11624W        W28098   1.547   3.739  13.323  0.3050 -0.0793 -0.3582
11625W        W28099   6.087   9.011  13.069  0.1062 -0.0333  0.1646
11626W        W28100  11.003  13.403  14.375  0.0262 -0.0354 -0.4062
11627W        W28101  13.870  15.545   1.225 -0.1543  0.1611  0.2055
11628W        W28102   6.839  14.285   2.037  0.1864 -0.0738  0.0289
11629W        W28103  19.410  18.365   2.871  0.1786  0.0136  0.1746
11630W        W28104   5.485  18.798  11.563  0.0083  0.0486 -0.1141
11631W        W28105   0.391  16.841  11.950 -0.0051  0.3043 -0.0396
11632W        W28106  10.058  10.416  12.911  0.2394 -0.2565  0.2115
11633W        W28107  11.574   9.080   5.852 -0.3338 -0.2237  0.2715
11634W        W28108  14.065   9.283   1.126  0.3542  0.1103  0.3352
11635W        W28109   9.627  18.672   2.970  0.1054 -0.0107  0.1175
11636W        W28110   3.558  16.425  13.176 -0.2240 -0.3241  0.0050
11637W        W28111   3.207  19.508  10.757  0.2122 -0.2258  0.2050
11638W        W28112  13.138   1.973  11.113  0.1044 -0.1803  0.4600
11639W        W28113   3.735   4.620   4.787  0.0498 -0.1833 -0.1660
11640W        W28114  14.197   8.228  12.633 -0.2175  0.0449 -0.1276
11641W        W28115   9.733   8.254   3.263  0.4383  0.0576 -0.1438
11642W        W28116   6.555   9.650  12.925  0.1738 -0.1986 -0.1613
11643W        W28117   3.355  18.364  11.298 -0.0995 -0.1486 -0.4184
11644W        W28118   4.565  17.843  11.117  0.1135 -0.0333 -0.1602
11645W        W28119  16.349  12.405   1.975 -0.8331 -0.2990 -0.2237
11646W        W28120   3.832  10.351   5.445 -0.2743  0.0884  0.0121
11647W        W28121   2.606   0.234   5.096  0.1682  0.0521 -0.2569
11648W        W28122   4.523   7.115   1.468  0.0979 -0.0121 -0.4920
11649W        W28123  13.362  17.601   3.821  0.1753 -0.2760 -0.0352
11650W        W28124  12.436   5.906  14.224  0.0662 -0.1049 -0.0431
11651W        W28125  16.467   9.176  12.984  0.1206 -0.0620  0.2595
11652W        W28126  19.570   6.988   3.610  0.0493  0.0541 -0.1676
11653W        W28127   4.612  16.488  11.540 -0.0823  0.3014  0.0485
11654W        W28128  15.142   9.129   3.088  0.2025  0.0026 -0.1855
11655W        W28129   0.834   5.242   3.189 -0.0488 -0.0051 -0.2852
11656W        W28130  18.864   3.011   0.615 -0.1955 -0.3657 -0.0937
11657W        W28131  18.896  16.115  13.726 -0.1907 -0.1083  0.0182
11658W        W28132   7.191   6.983  11.064 -0.2446  0.0701 -0.0869
11659W        W28133  11.241   0.554   4.837  0.1119 -0.3122  0.1127
11660W        W28134   0.581  18.083   0.637  0.1420 -0.0321  0.0852
11661W        W28135   7.692   5.345   3.622 -0.2837 -0.0129 -0.1324
11662W        W28136  13.084  11.278   3.929 -0.1719 -0.0174  0.1247
11663W        W28137   5.397  18.465   3.270  0.0248  0.0341  0.1884
11664W        W28138  13.354   0.144   0.558 -0.1397 -0.1507  0.0960
11665W        W28139  15.877   8.364   1.117 -0.3036 -0.0042 -0.3495
11666W        W28140   9.905  16.526  13.800  0.2695  0.0329  0.2801
11667W        W28141  17.029  12.017  14.185 -0.0138  0.0807  0.2969
11668W        W28142  19.524   4.245  10.004  0.2403  0.1049  0.2915
11669W        W28143  12.162   6.338  12.178  0.0857  0.0011 -0.1623
11670W        W28144   1.842   0.722   0.430 -0.0965  0.2789 -0.0511
11671W        W28145  14.478  15.920  11.008 -0.1164  0.3020 -0.0550
11672W        W28146   0.948   2.201   1.021  0.0060  0.0905 -0.1748
11673W        W28147   4.881  19.427   1.727  0.1455 -0.1107  0.2025
11674W        W28148   4.187   7.385   4.536  0.2283  0.0270 -0.2729
11675W        W28149  10.205  11.680   3.221 -0.3325  0.0070 -0.3600
11676W        W28150  16.904   7.720  11.687 -0.2180  0.4035  0.0299
11677W        W28151  12.198  13.671   9.843  0.2365  0.0929  0.0949
11678W        W28152  13.020  15.300   1.831 -0.5085  0.3581 -0.1426
11679W        W28153  12.613   3.415  10.795  0.5505  0.2174  0.6241
11680W        W28154   8.637  14.272  12.611  0.1045  0.1345 -0.0317
11681W        W28155   0.773   2.772   0.658  0.0594 -0.2162 -0.1204
11682W        W28156   4.324  12.213   0.593  0.1706  0.1992  0.2326
11683W        W28157   3.172   4.744  14.509 -0.1731  0.0297  0.0156
11684W        W28158   3.780  13.410  12.431  0.2976  0.0727 -0.0981
11685W        W28159   9.817  18.810  12.840 -0.2155  0.1995 -0.0555
11686W        W28160  11.561  13.129   4.657 -0.0629 -0.1339 -0.0143
11687W        W28161  17.214  11.739  11.964  0.2152  0.3609 -0.0456
11688W        W28162  14.443   8.732   4.462  0.1005  0.0341  0.1287
11689W        W28163   3.083  12.493  12.836 -0.0590  0.1523 -0.1269
11690W        W28164  14.577  19.351  11.805  0.1225 -0.0525  0.0983
11691W        W28165   5.441  16.379   0.473  0.0397  0.3572 -0.0126
11692W        W28166  17.958  18.220   2.903  0.1696 -0.1524 -0.1123
11693W        W28167  11.844  10.292   4.687  0.2086  0.1295  0.0541
11694W        W28168   7.969  12.730  12.166 -0.2469  0.5046 -0.2126
11695W        W28169  15.692   7.824   4.688  0.3837 -0.2851 -0.1590
11696W        W28170  11.802  16.379   0.728  0.0506 -0.1935  0.0535
11697W        W28171   3.941   2.785   2.669 -0.0092  0.1167  0.0896
11698W        W28172   3.339  18.973  10.206  0.5528 -0.4763  0.0845
11699W        W28173  11.443   7.511  12.731 -0.3205 -0.1670  0.1181
11700W        W28174   7.952  15.029  10.438 -0.2229  0.2621 -0.1676
11701W        W28175   0.931  10.729   2.768 -0.0797 -0.0487 -0.0685
11702W        W28176   3.416  16.866  14.412  0.1925  0.1566  0.0873
11703W        W28177  10.662  17.458  11.136 -0.2348 -0.1758 -0.1723
11704W        W28178   7.277  12.955  12.705 -0.0369 -0.0815 -0.3026
11705W        W28179  14.764   5.471  11.310  0.3085 -0.1446  0.0435
11706W        W28180   7.987   5.917  12.215  0.1658  0.0885 -0.0903
11707W        W28181  18.554  13.817  12.316  0.1631  0.0921  0.1863
11708W        W28182   8.714  17.376  12.683 -0.0831 -0.2431  0.1451
11709W        W28183   6.357  16.592   3.133 -0.3258 -0.0340 -0.0514
11710W        W28184  16.898  15.191   4.196 -0.2886  0.1167 -0.2774
11711W        W28185  11.629  17.105   1.031  0.0538 -0.1494  0.0827
11712W        W28186   0.323  12.616   3.367  0.0437 -0.1236  0.1639
11713W        W28187  15.181   9.291   1.863  0.1493  0.1357 -0.2330
11714W        W28188  12.773   2.711   0.135 -0.3069  0.2376  0.1438
11715W        W28189  17.278   8.315   5.810  0.2121 -0.0701  0.1221
11716W        W28190  15.003  13.473   4.769 -0.3251  0.2566 -0.2762
11717W        W28191   7.858  11.993   2.142 -0.2063 -0.2494 -0.3869
11718W        W28192   1.128   9.641   1.998  0.1168 -0.0152 -0.0699
11719W        W28193   5.388   5.401  14.158  0.0463  0.0106 -0.1939
11720W        W28194   6.515  10.049   1.845 -0.4796 -0.3116 -0.4724
11721W        W28195   8.938   9.252  12.196 -0.1125  0.2337 -0.1137
11722W        W28196   1.139   6.766  10.730  0.0376  0.2497 -0.0293
11723W        W28197   7.975  11.259  10.206 -0.2180 -0.2167 -0.0418
11724W        W28198  13.996   1.134  12.516 -0.0913  0.2613 -0.2444
11725W        W28199   0.046   1.931   2.294  0.1893 -0.1665  0.3107
11726W        W28200  14.203  13.424   3.519 -0.0493 -0.1241  0.0043
11727W        W28201  14.686  10.561  13.876  0.0380  0.0946 -0.0144
11728W        W28202  11.842  18.839   0.525 -0.2119 -0.1106 -0.0435
11729W        W28203  12.561  14.836  14.304  0.0654 -0.0267 -0.2035
11730W        W28204  15.114  16.329   2.401 -0.0932  0.4316  0.0523
11731W        W28205   0.403  10.236   0.824  0.0676  0.1133  0.1572
11732W        W28206  18.127  18.497  12.184 -0.0834  0.1458 -0.1558
11733W        W28207   6.448  12.466  13.410  0.0589  0.2232  0.2018
11734W        W28208  10.113  13.707  10.598  0.3026 -0.1357  0.0373
11735W        W28209   5.649   2.653   5.774  0.0198 -0.1020  0.0421
11736W        W28210  14.410  13.998   0.629  0.1069 -0.0101  0.2600
11737W        W28211  11.311  17.061  12.748  0.1332 -0.1015  0.2689
11738W        W28212   0.767   1.869   4.506  0.3899 -0.2492 -0.0518
11739W        W28213  13.988  17.218  11.046 -0.0473 -0.2594  0.1736
11740W        W28214  10.166   8.455   3.054  0.1083 -0.1266  0.5431
11741W        W28215   4.739  15.509  11.568 -0.1387  0.0427  0.0598
11742W        W28216   2.805   4.705   0.711  0.1868 -0.2014  0.0436
11743W        W28217  17.335  17.324   4.880 -0.0015  0.2765  0.1671
11744W        W28218  12.691   9.573   2.790 -0.0621  0.0401  0.2175
11745W        W28219  13.040  11.550   2.976  0.0187 -0.2423  0.2022
11746W        W28220   2.072   9.951   4.853 -0.1295 -0.1663 -0.2416
11747W        W28221   1.540   8.850  10.735 -0.0287  0.0491  0.1031
11748W        W28222   7.857   2.351   0.087  0.0687 -0.1383  0.0376
11749W        W28223  16.451   7.211  13.142 -0.2820 -0.0193 -0.2384
11750W        W28224   5.496   7.431   1.238  0.1469 -0.5170 -0.5689
11751W        W28225  19.573  17.514   1.376 -0.1875 -0.2847  0.1437
11752W        W28226   5.585  11.901   5.006  0.2052 -0.1414 -0.0686
11753W        W28227   3.630  18.538   0.063  0.1189 -0.5739 -0.1396
11754W        W28228   5.957  14.126  11.231  0.1553 -0.0083 -0.1805
11755W        W28229   6.676   4.534   0.216  0.0075  0.0735 -0.0370
11756W        W28230  14.697  14.659   3.051  0.2473 -0.1285  0.0122
11757W        W28231  19.280   2.578   3.082 -0.0637  0.0382  0.0177
11758W        W28232   0.447   9.687  12.527  0.1328 -0.0259 -0.2481
11759W        W28233  18.595  10.193  12.248  0.3541 -0.1847 -0.0444
11760W        W28234  14.466  16.836   0.690 -0.2600  0.3508  0.0710
11761W        W28235   1.589   8.247   3.442  0.0547  0.1535 -0.0109
11762W        W28236  13.443   2.076   3.789  0.3788 -0.2095  0.3572
11763W        W28237   6.295   3.988  14.198 -0.0348 -0.2297  0.1969
11764W        W28238   7.264   6.936   3.640  0.0540  0.2347  0.0801
11765W        W28239   9.526  10.685  11.624  0.0267  0.1435  0.0490
11766W        W28240   3.732   0.292  11.364 -0.0492 -0.1233 -0.2370
11767W        W28241  15.012   6.638   1.399 -0.2768 -0.4655 -0.0171
11768W        W28242  10.752   7.947   0.218  0.0293 -0.2787  0.4136
11769W        W28243  10.007  16.700   9.259  0.3745 -0.2012  0.1151
11770W        W28244  13.971   3.286  10.754 -0.2256  0.0520 -0.1770
11771W        W28245   2.752   8.831   2.132 -0.0670  0.1057 -0.1846
11772W        W28246   7.724  13.044   1.768  0.2103  0.0725  0.1902
11773W        W28247  14.400  18.050   3.204 -0.1306  0.1021  0.2953
11774W        W28248  11.963   4.903   2.742 -0.0873  0.0872  0.1877
11775W        W28249   2.726  13.334  12.226 -0.0488  0.3445  0.0876
11776W        W28250   0.902   0.887   3.022 -0.0724  0.2836 -0.1203
11777W        W28251   5.276  10.619  14.365  0.2795  0.0909  0.2522
11778W        W28252   9.457  13.076   4.090 -0.0601  0.1846 -0.2350
11779W        W28253  11.338   2.224   1.588 -0.1626  0.3241 -0.0991
11780W        W28254   2.662  12.368   1.105 -0.1774 -0.1391 -0.4758
11781W        W28255  17.222   7.876  14.494  0.0603  0.3218  0.1984
11782W        W28256   0.692   4.738   4.591 -0.2998  0.1154  0.0609
11783W        W28257  14.831   9.421  12.322  0.1715 -0.1036 -0.0144
11784W        W28258   5.020   5.041  12.956  0.3103  0.1318 -0.2968
11785W        W28259   4.381  19.005  11.913  0.1476 -0.0072 -0.3164
11786W        W28260  15.033   6.974   5.301  0.1987  0.0872  0.1648
11787W        W28261   0.037   9.472  11.115  0.1108 -0.3856 -0.2499
11788W        W28262   0.414  16.923   3.849  0.0970  0.2906 -0.3404
11789W        W28263   9.003  10.848   1.735  0.2849 -0.1808 -0.3242
11790W        W28264   9.871   6.046  12.623  0.2020 -0.0586 -0.3103
11791W        W28265  12.345  19.581  13.930 -0.0137  0.0455 -0.2455
11792W        W28266  11.867  16.714  13.266 -0.0076  0.2748 -0.0750
11793W        W28267   6.770  18.730   3.788  0.1826  0.0323  0.1113
11794W        W28268  15.884  14.892   0.088  0.1174  0.0052  0.2174
11795W        W28269  17.964   3.438   2.495 -0.1444  0.2196 -0.1362
11796W        W28270  15.143  18.224   3.942 -0.1928 -0.1464 -0.0669
11797W        W28271   1.460   9.388  11.375  0.0087  0.2293  0.2028
11798W        W28272   3.542  14.124  12.747  0.1641  0.2394 -0.0521
11799W        W28273   7.373  17.280  14.146  0.3857 -0.4110  0.2504
11800W        W28274   0.571   5.860   0.292 -0.2110 -0.3027 -0.1571
11801W        W28275   5.461   9.258   1.574  0.2291  0.0589 -0.0685
11802W        W28276   9.269  10.425   2.495  0.1228  0.0595  0.1890
11803W        W28277  14.547   0.059  11.357 -0.0926  0.1992  0.2413
11804W        W28278   2.816  17.693   9.631  0.2776 -0.2490  0.0894
11805W        W28279  10.798  15.835   1.007  0.0942  0.4060  0.0664
11806W        W28280   4.245  16.909   2.976  0.3214 -0.3728  0.0734
11807W        W28281   2.764   3.120  13.881  0.3281  0.1575 -0.0237
11808W        W28282  13.860   8.035  11.985  0.0059 -0.0055 -0.2237
11809W        W28283   7.155   8.503  14.687  0.0975  0.2429  0.1022
11810W        W28284  15.675  16.239   3.620  0.0244  0.1476 -0.0619
11811W        W28285   3.291  18.656  11.798 -0.1700  0.0884  0.1598
11812W        W28286   3.158  18.936  10.674  0.0076 -0.1761  0.0291
11813W        W28287   6.009   4.082   3.299 -0.0119 -0.2269 -0.1651
11814W        W28288  17.387   7.500  14.127 -0.0741 -0.0563 -0.0869
11815W        W28289   4.014   6.939  11.545 -0.0153  0.0909  0.0088
11816W        W28290  19.127  10.059   4.880 -0.0075 -0.1985 -0.1121
11817W        W28291   0.495  11.575  13.823 -0.0736  0.3416  0.3853
11818W        W28292  19.192   5.286  10.986  0.0601  0.1261  0.0820
11819W        W28293  17.207   7.989   3.967 -0.2731  0.0374 -0.1417
11820W        W28294   8.607  16.600   0.560 -0.0673  0.0776 -0.0558
11821W        W28295   4.481   4.104   3.394 -0.1769  0.0759 -0.4697
11822W        W28296   8.567  11.610   1.243  0.0814  0.0687 -0.1912
11823W        W28297  12.640  16.988  12.314 -0.3499 -0.2066  0.1095
11824W        W28298  18.170   7.007   3.686 -0.0118 -0.0946 -0.2934
11825W        W28299  15.524   5.990  11.907 -0.1306  0.1916  0.3194
11826W        W28300  17.551  18.639  13.299  0.0806  0.0661  0.1737
11827W        W28301   0.024   4.045  12.480 -0.0068  0.1377  0.1082
11828W        W28302  12.290   3.182  12.332  0.2261  0.0790 -0.2812
11829W        W28303  11.402   4.145   2.813 -0.1357  0.0681  0.1949
11830W        W28304   2.839  19.527  14.451 -0.0785 -0.0497  0.0182
11831W        W28305   4.286  14.310  12.926  0.1102  0.3028  0.0954
11832W        W28306  19.169   6.643  13.129  0.1228  0.2259 -0.2212
11833W        W28307  10.390  17.053  10.548 -0.1089 -0.1872 -0.0973
11834W        W28308  13.154  16.930   4.514 -0.6222 -0.2080  0.0761
11835W        W28309   0.095  16.694  14.230  0.1544  0.2117  0.1925
11836W        W28310   4.289  15.202  10.256  0.1338 -0.1170  0.1999
11837W        W28311  14.190   7.663  12.401 -0.1887 -0.1626 -0.2346
11838W        W28312   6.867  11.100  13.688 -0.2399  0.1486 -0.2453
11839W        W28313  18.963  10.800   2.359  0.2401 -0.2041 -0.0530
11840W        W28314  15.849  15.590  11.191 -0.1181 -0.0587 -0.0967
11841W        W28315   3.276   2.937   2.085  0.1010  0.0675 -0.0253
11842W        W28316  19.232   9.007  10.971  0.0955  0.1495  0.1771
11843W        W28317  10.702   5.064  10.976  0.1875 -0.1705 -0.1450
11844W        W28318  18.012   5.068  11.657 -0.3816  0.1141 -0.3065
11845W        W28319   7.461  12.442   9.016  0.1220 -0.0418  0.0305
11846W        W28320  14.504  10.669  11.216  0.1267  0.0624  0.2867
11847W        W28321  12.151   8.495  11.033 -0.0984  0.3751  0.0157
11848W        W28322   8.439   8.010  14.176  0.3032 -0.0101 -0.3865
11849W        W28323   0.935  14.767   5.472  0.0234  0.0314  0.0950
11850W        W28324  10.613  15.165  14.665 -0.0025 -0.1949 -0.0226
11851W        W28325   0.950  10.022   1.097  0.0372 -0.0808  0.0423
11852W        W28326   3.095   2.988   1.501 -0.0594 -0.2808 -0.1167
11853W        W28327   0.727  11.341  11.917 -0.1418 -0.1925 -0.4375
11854W        W28328   9.330   3.191   2.400  0.0559  0.2472 -0.0859
11855W        W28329   9.645   8.887  11.049 -0.4386  0.2298 -0.1149
11856W        W28330   0.459   1.849   1.156  0.0028  0.3358  0.0189
11857W        W28331  18.091  13.821  12.664 -0.1774 -0.2182 -0.0756
11858W        W28332   4.238   7.875   3.350 -0.0563 -0.4726 -0.2089
11859W        W28333   8.706   7.926   2.325 -0.0054  0.1681 -0.1084
11860W        W28334  18.134   8.049   4.345 -0.0313 -0.0016  0.2900
11861W        W28335  13.407  16.586   1.730  0.2047  0.0571  0.1046
11862W        W28336   9.467  16.423   0.262  0.1935  0.2261 -0.0406
11863W        W28337  11.223   8.851   5.579  0.1134 -0.1389  0.0153
11864W        W28338  17.147  16.398  11.803  0.0387 -0.0466 -0.1540
11865W        W28339  18.310  15.008  11.833 -0.3763 -0.2057 -0.2128
11866W        W28340   0.129  15.268   3.745  0.0258 -0.3646 -0.0896
11867W        W28341   0.474  17.534   3.846  0.1397  0.2348  0.1950
11868W        W28342   7.344   2.369   3.915 -0.2345  0.2187  0.3239
11869W        W28343  16.840  12.279  13.785  0.0959 -0.0243 -0.2401
11870W        W28344   2.993  18.308  13.394  0.0202  0.1709  0.3485
11871W        W28345   8.852   6.564  12.600  0.2387  0.1838  0.2261
11872W        W28346   0.725   1.340  10.790  0.0363  0.0757  0.0853
11873W        W28347   6.471  15.085   2.746  0.3502 -0.0026 -0.2692
11874W        W28348   7.890   6.494  12.502 -0.1105 -0.1983  0.0338
11875W        W28349  10.780  11.398   1.834  0.1642 -0.1857  0.3683
11876W        W28350   1.939   4.092  11.491 -0.3040  0.3111  0.2946
11877W        W28351  16.027   3.533  11.409  0.0046 -0.1334 -0.1394
11878W        W28352   6.062  14.444   0.177  0.1412 -0.1550 -0.2582
11879W        W28353  17.940   1.646   4.223 -0.0418 -0.0078 -0.1711
11880W        W28354   9.850   2.167   2.118  0.0444 -0.3550 -0.0923
11881W        W28355  17.185  12.081   3.550  0.0485  0.0919  0.0969
11882W        W28356  19.342   7.991   2.691  0.0697 -0.0884 -0.0638
11883W        W28357   0.177  14.058  13.555  0.0943  0.1082  0.1526
11884W        W28358  13.125  10.390   3.291  0.1303  0.2416 -0.0587
11885W        W28359  11.000  16.225   3.651 -0.1358 -0.2339  0.0452
11886W        W28360   0.575   3.466  10.335 -0.1021 -0.2710 -0.1920
11887W        W28361   3.065  14.242   0.032 -0.0067 -0.1932  0.0477
11888W        W28362   6.549   3.642  14.544 -0.0056  0.1023 -0.0268
11889W        W28363  11.253  16.284  11.635  0.1322 -0.2041  0.1399
11890W        W28364   3.028   8.872   2.596 -0.1827  0.2649  0.0028
11891W        W28365   7.765   5.722   0.828 -0.0659 -0.0326  0.3345
11892W        W28366   9.485   9.540  13.538  0.2806  0.1210 -0.0670
11893W        W28367  14.560   1.371   0.858 -0.0779  0.0392 -0.3082
11894W        W28368  14.407   3.475   3.327  0.1164  0.1753 -0.1192
11895W        W28369   8.036   2.523  13.101  0.2390  0.1876 -0.1081
11896W        W28370   0.455   1.216   4.346 -0.0108  0.0298  0.2472
11897W        W28371  13.493  14.095   1.592 -0.3451 -0.1138 -0.0158
11898W        W28372  13.126  10.885   3.569  0.1437 -0.1358  0.0809
11899W        W28373   7.766  14.668   1.888 -0.0394 -0.4228 -0.0995
11900W        W28374   8.613   7.757   3.613 -0.1044  0.3388  0.2097
11901W        W28375  10.432   2.153  11.252 -0.1100 -0.2869  0.2696
11902W        W28376   8.453  16.236   0.172  0.2121 -0.0811  0.3166
11903W        W28377  15.353   9.333  12.151 -0.1113 -0.2036  0.2933
11904W        W28378  17.964  13.629   1.914  0.0001 -0.2338  0.0733
11905W        W28379  15.805  14.583   2.898  0.1757 -0.3995 -0.0571
11906W        W28380  12.423  12.470   3.752 -0.0229 -0.0212 -0.1408
11907W        W28381   9.421  18.249   3.126  0.3338  0.1358  0.4706
11908W        W28382   5.856  16.186   0.321  0.4171 -0.2379 -0.3312
11909W        W28383  16.391  19.575  12.221  0.1636 -0.0553  0.0233
11910W        W28384   9.828   4.494   3.996 -0.0128 -0.0221 -0.1585
11911W        W28385  11.573  17.858  12.325  0.0148 -0.0981  0.1558
11912W        W28386   9.173   2.324  13.622 -0.1023 -0.1273  0.1883
11913W        W28387   0.359  14.105  13.092  0.1318 -0.0209  0.3419
11914W        W28388  16.889   8.910   1.813 -0.2352  0.3194  0.0634
11915W        W28389   8.095   2.477   9.523 -0.1262  0.3719  0.0774
11916W        W28390  14.694   5.933   2.493 -0.0819 -0.0811  0.2416
11917W        W28391   3.991  13.797  13.220 -0.2006  0.0731  0.2361
11918W        W28392  15.027   9.820   3.531 -0.0771  0.2111  0.4340
11919W        W28393   7.538   7.685  14.309  0.2500  0.0709 -0.3261
11920W        W28394  13.647  17.175  13.143 -0.1792  0.1403  0.2203
11921W        W28395  18.821   8.167   1.065 -0.0225  0.2107  0.0884
11922W        W28396   7.133   3.807   4.559 -0.0747 -0.3790 -0.1703
11923W        W28397   6.164  10.830   0.860 -0.0499 -0.2658 -0.4573
11924W        W28398   1.387   0.149  11.477  0.2964 -0.2005 -0.0740
11925W        W28399   1.596   7.987   4.976 -0.1040  0.0439 -0.2331
11926W        W28400  16.139  15.589   2.581 -0.1616  0.1491 -0.2440
11927W        W28401   9.415  11.060  11.922  0.0483 -0.1071 -0.2162
11928W        W28402   2.399  10.845   4.626  0.2734 -0.0304 -0.2237
11929W        W28403  10.521   0.507  11.714  0.0410 -0.0511 -0.0693
11930W        W28404  16.935  18.268  12.552  0.1217  0.1911 -0.1125
11931W        W28405   1.887   8.920  13.133  0.0063  0.0989 -0.0584
11932W        W28406  17.510   0.320   1.280 -0.0519 -0.1309 -0.0729
11933W        W28407  13.553   8.366   4.984  0.1235 -0.3819  0.0273
11934W        W28408   0.033   7.023   4.977 -0.3595 -0.4353  0.3436
11935W        W28409  14.481  18.953  10.554  0.4765  0.0764  0.0243
11936W        W28410   1.603  10.239   1.944 -0.1527 -0.2697  0.0275
11937W        W28411  13.583   1.120  13.219 -0.0672 -0.1430 -0.1063
11938W        W28412  16.582  12.818   9.393 -0.0254 -0.1676 -0.1046
11939W        W28413  13.205   6.246   4.635 -0.0372 -0.1880 -0.2755
11940W        W28414   2.650  10.643   1.237  0.0951 -0.0575 -0.1976
11941W        W28415   4.046  19.571   3.118  0.1688  0.1035 -0.1392
11942W        W28416  18.179  12.535   3.039  0.3260 -0.1382 -0.1323
11943W        W28417   0.793   7.411   3.434 -0.0593  0.1181  0.0832
11944W        W28418  16.922   4.667   2.296 -0.3414 -0.0442 -0.1618
11945W        W28419   4.825  19.198   2.688  0.0281 -0.2993  0.2480
11946W        W28420   7.030   6.719  10.244  0.2488 -0.0483 -0.0993
11947W        W28421  12.615   2.639  12.377  0.2093 -0.3304  0.0459
11948W        W28422  17.382  12.296  10.915 -0.1178  0.0904 -0.4757
11949W        W28423  12.308  14.938  11.674 -0.2546 -0.3376  0.1932
11950W        W28424  11.480  10.895   0.201  0.1694  0.0861 -0.2145
11951W        W28425   7.900  12.434  13.277 -0.0897 -0.5828 -0.0734
11952W        W28426  14.696   3.521  12.725  0.1438 -0.2521  0.0878
11953W        W28427   6.003   7.389  14.346 -0.4776  0.2300 -0.4358
11954W        W28428   8.562  17.460   5.133  0.0960  0.0419 -0.0487
11955W        W28429   9.509   5.628   1.943 -0.0423  0.2444 -0.2317
11956W        W28430  10.512   9.083  10.489 -0.0149 -0.4633  0.1847
11957W        W28431  13.894   4.824  12.647 -0.2097  0.0069 -0.0930
11958W        W28432  17.942   3.060   1.888 -0.1842 -0.3812 -0.0448
11959W        W28433   5.499  11.592  14.558  0.3519 -0.1522 -0.0878
11960W        W28434  14.572   0.919   5.083  0.0294  0.2734 -0.3388
11961W        W28435  19.072  16.765   1.232 -0.1364 -0.1446 -0.4825
11962W        W28436  13.827   1.458  13.710  0.3312  0.4410 -0.0916
11963W        W28437   0.046  10.593   3.098 -0.1210  0.2297 -0.3330
11964W        W28438   5.115  15.636  10.825 -0.0857 -0.2912 -0.0329
11965W        W28439   7.566  12.848   3.756  0.0269  0.2451  0.0291
11966W        W28440  16.499  11.614   0.038  0.5062 -0.3828 -0.0674
11967W        W28441   3.266  13.117  10.818  0.2876  0.1270  0.2626
11968W        W28442   0.279  10.109   3.072 -0.0516 -0.1031  0.0535
11969W        W28443   1.917  15.644   9.871 -0.1288 -0.0297  0.1808
11970W        W28444   6.548   8.222  10.617 -0.0771 -0.0082 -0.1524
11971W        W28445   6.987  14.940  11.503 -0.0334 -0.0239 -0.2233
11972W        W28446   5.212   7.863   0.184 -0.0262  0.2329  0.0607
11973W        W28447   8.356   2.526  10.888  0.0912  0.2623 -0.1155
11974W        W28448   8.992   3.708   1.166  0.0738 -0.0670 -0.0741
11975W        W28449  15.430   7.854   4.219 -0.0701 -0.1984 -0.0919
11976W        W28450  18.915  13.786  14.389  0.0283  0.2048  0.0917
11977W        W28451   4.713   3.287  11.929  0.1254 -0.3252 -0.2143
11978W        W28452   9.899  11.302   2.116 -0.3681 -0.0423 -0.0363
11979W        W28453   3.110  14.769  11.623 -0.2422 -0.1039  0.2498
11980W        W28454  14.674  13.967   1.143  0.1169  0.0037 -0.4530
11981W        W28455   0.978  15.600   2.019  0.0325 -0.0997  0.0900
11982W        W28456   4.625   1.193   1.917  0.0681 -0.3102 -0.1057
11983W        W28457  12.029  16.471   1.431 -0.1214  0.4150  0.0134
11984W        W28458  10.251   5.674  11.294 -0.1342  0.2374 -0.1675
11985W        W28459  15.277   3.194   4.389  0.1599  0.0319 -0.3430
11986W        W28460   0.325  17.064  10.936  0.1503  0.2734 -0.4128
11987W        W28461   8.999   8.697  13.509  0.0231 -0.0995  0.0696
11988W        W28462   8.295  18.205  13.934  0.0279 -0.1675 -0.1247
11989W        W28463  15.540   1.145  14.207 -0.1572 -0.0473 -0.2240
11990W        W28464   7.875   9.554   2.183 -0.0895  0.0517 -0.1974
11991W        W28465  17.800  17.657  10.483  0.1842  0.1263  0.0252
11992W        W28466  19.031  11.788  13.781 -0.0078  0.2525 -0.4535
11993W        W28467  16.019   2.013  10.594 -0.0165  0.0913  0.1552
11994W        W28468   0.358   9.037  14.642  0.5149  0.2572 -0.0558
11995W        W28469   4.433  10.901  14.060  0.1919 -0.0663  0.1179
11996W        W28470  11.557  12.328   0.812 -0.0193  0.1045 -0.0275
11997W        W28471  11.929   7.288  14.267  0.3082 -0.4094  0.0890
11998W        W28472   8.005   6.231  13.512 -0.0374 -0.0530 -0.1289
11999W        W28473  10.815   4.084  13.161  0.3301 -0.2627 -0.0164
12000W        W28474   9.802   0.354  12.859  0.1666 -0.0175  0.0399
12001W        W28475   0.059  13.350  10.017  0.1372 -0.0315  0.2094
12002W        W28476   9.538   1.306  11.391  0.1853 -0.0109  0.2300
12003W        W28477  12.112  11.802  12.230  0.1529 -0.2789  0.1354
12004W        W28478  13.535  11.142   4.108  0.3829  0.0620  0.3156
12005W        W28479  18.892  18.544  10.173 -0.1283  0.2889  0.1074
12006W        W28480  15.362  10.718   1.454 -0.1728 -0.0948 -0.1688
12007W        W28481  16.872  18.347  12.073  0.2375  0.0709 -0.1782
12008W        W28482  10.817  10.029  13.842  0.3246  0.2222  0.2431
12009W        W28483  11.387   1.193   4.532  0.1467 -0.2165 -0.2001
12010W        W28484   8.901  13.793   1.056  0.1124 -0.2517  0.5485
12011W        W28485  16.737  12.775   4.590 -0.1034 -0.2855 -0.5226
12012W        W28486   4.779   3.874   2.994 -0.1922  0.0488 -0.2100
12013W        W28487   2.210  13.827   0.051  0.1921  0.1868  0.0459
12014W        W28488  11.465   4.389   4.588 -0.0395  0.1182 -0.1288
12015W        W28489  10.411   8.603  14.524  0.0447 -0.1139  0.3338
12016W        W28490  19.215  14.765  12.938 -0.4460  0.0620  0.0639
12017W        W28491   6.258  14.050   2.991  0.1609 -0.1771  0.0455
12018W        W28492   1.734  14.229   4.019  0.1553  0.0756 -0.1164
12019W        W28493   7.587   8.688   4.641  0.3587 -0.3621 -0.0933
12020W        W28494   1.124   2.903  13.570 -0.1767 -0.2719 -0.1135
12021W        W28495   4.635  13.667  13.495  0.1201 -0.1064 -0.3051
12022W        W28496   5.156   1.290   4.564 -0.3062 -0.1420  0.0015
12023W        W28497  12.850  17.929   0.148  0.0074  0.2991 -0.1865
12024W        W28498  10.513  10.084  12.813  0.2096  0.1504  0.1396
12025W        W28499   7.179   3.715  13.622 -0.0306  0.0048  0.1410
12026W        W28500  17.500  14.177  13.532 -0.0769  0.2042 -0.1715
12027W        W28501   7.216   6.997   1.687 -0.2551  0.2331  0.0825
12028W        W28502  15.752  15.468  12.864 -0.2460 -0.1743 -0.0457
12029W        W28503   0.133  18.810   9.981 -0.1544  0.2030 -0.2510
12030W        W28504  18.035  18.909  13.713  0.4009  0.1453  0.1668
12031W        W28505   9.635  15.474   2.697 -0.0618 -0.1041 -0.0345
12032W        W28506   5.039  14.626  11.857 -0.0130  0.2235  0.0800
12033W        W28507  18.344   4.396   2.786  0.4041  0.0763 -0.3386
12034W        W28508  16.841  11.274   1.915 -0.0055  0.0952 -0.0682
12035W        W28509  10.447  10.696  12.990 -0.0131  0.0256 -0.3300
12036W        W28510  15.008  11.142   5.010 -0.0112  0.3944 -0.3632
12037W        W28511   2.253   5.088  11.878  0.2200  0.0132 -0.1054
12038W        W28512  11.632   3.521  12.969  0.1265  0.4277  0.0854
12039W        W28513   3.601  17.277   0.862 -0.4178  0.4023 -0.0025
12040W        W28514  11.916   5.058   1.404  0.1599 -0.2918 -0.0144
12041W        W28515   9.793   3.972   2.365  0.1161  0.4178  0.0518
12042W        W28516   4.507   2.000  13.759 -0.0405 -0.2947  0.1619
12043W        W28517  14.260   1.760   4.104 -0.0918  0.4105 -0.3576
12044W        W28518  16.535  10.735  14.074 -0.0773 -0.2532  0.2194
12045W        W28519   2.470   9.527   0.308  0.3123 -0.0405  0.0320
12046W        W28520  18.425   7.661  11.983  0.1637 -0.0182  0.1920
12047W        W28521  17.740   0.543  13.568 -0.2199 -0.0224 -0.0325
12048W        W28522   3.764   7.648  13.402 -0.3172 -0.0458 -0.3213
12049W        W28523   7.413   1.960   4.236 -0.1541  0.1742  0.0055
12050W        W28524   8.370   6.058  11.230  0.1862  0.0459 -0.0292
12051W        W28525   9.690  18.212  11.940 -0.1872  0.2311 -0.1876
12052W        W28526   1.515   6.437  12.411  0.3126 -0.1189  0.0585
12053W        W28527   4.270   2.726  11.912 -0.1953 -0.4510  0.0012
12054W        W28528  10.707   6.514   3.768  0.2334  0.0095 -0.0647
12055W        W28529  18.087   2.616  14.687  0.0255  0.0436 -0.1846
12056W        W28530   0.541  14.370   4.631 -0.2061  0.2010  0.1355
12057W        W28531   9.732   0.470   1.287 -0.1466  0.2088 -0.3379
12058W        W28532  15.531   8.760   3.663 -0.0535  0.1659 -0.1962
12059W        W28533  17.011   0.610  11.517 -0.0675 -0.1968  0.3088
12060W        W28534  10.489  12.401  12.686 -0.2269  0.0494 -0.1420
12061W        W28535  14.925   2.453   5.378 -0.1748 -0.1498 -0.2612
12062W        W28536  14.143   1.851  12.067  0.3041  0.1556  0.0137
12063W        W28537  16.039   3.855  10.446  0.1954  0.0546  0.0479
12064W        W28538  18.627  15.934   2.073  0.0732  0.0182  0.0841
12065W        W28539  15.509  19.510  10.684  0.0612 -0.0852  0.3310
12066W        W28540  12.354   9.340  12.288  0.2542  0.1069 -0.1982
12067W        W28541  14.280  19.119   3.292  0.2228 -0.2424  0.1246
12068W        W28542   8.966   2.793   4.071 -0.1339 -0.2745 -0.0532
12069W        W28543   8.303  10.170   2.344 -0.0132 -0.2216  0.0321
12070W        W28544   2.703  14.488   3.827 -0.2325  0.0540  0.1795
12071W        W28545  10.174  19.133   5.049  0.0564 -0.1768  0.2432
12072W        W28546  15.289  16.081   5.408 -0.2547  0.0706 -0.2480
12073W        W28547   3.557  19.391  10.468 -0.2294  0.2903  0.0167
12074W        W28548  10.969   4.834  14.364 -0.1701  0.1408 -0.1814
12075W        W28549   5.952   6.986  13.088 -0.0743 -0.3424  0.1871
12076W        W28550  18.377  10.873  12.963  0.1681  0.1342  0.1998
12077W        W28551   9.174  10.176  12.383 -0.0853  0.0078  0.0821
12078W        W28552  15.753   4.860  11.872 -0.2134  0.0001  0.1455
12079W        W28553  15.786   6.420  11.731  0.0538  0.1671 -0.1152
12080W        W28554   8.881   1.046   1.395  0.2857  0.2127  0.1369
12081W        W28555   2.125  17.534  10.255 -0.0030  0.0473 -0.1438
12082W        W28556  11.783   1.530   2.115 -0.0374  0.0473  0.2763
12083W        W28557  11.093   3.276  13.658 -0.1229 -0.2013  0.0760
12084W        W28558  17.598  17.384   3.239  0.2328  0.1282 -0.0627
12085W        W28559  18.902   5.139   0.379  0.0519  0.1837  0.0340
12086W        W28560   1.788  11.226   3.512 -0.0465 -0.2221 -0.2512
12087W        W28561  16.435  17.299   4.480  0.0360  0.0688  0.1060
12088W        W28562  16.894  14.540  12.911 -0.1624 -0.1709  0.3358
12089W        W28563  12.457  13.818   5.474 -0.0998  0.0158  0.2046
12090W        W28564  16.645   8.387   3.347  0.2655 -0.1647 -0.0245
12091W        W28565  12.187  12.918   1.253  0.0451  0.2580 -0.4052
12092W        W28566  18.913  14.248  11.422 -0.2240  0.1211 -0.1747
12093W        W28567   3.646  18.335  14.173 -0.1055 -0.0432 -0.2893
12094W        W28568  13.730   9.012   2.492  0.3423  0.1645 -0.1842
12095W        W28569   3.530  19.100  11.826 -0.1269  0.1230 -0.0129
12096W        W28570   9.981   5.152  10.473 -0.3382 -0.0242 -0.1810
12097W        W28571  15.612   0.612   2.122 -0.3192  0.1212  0.1078
12098W        W28572   9.081  14.433  12.341  0.2861  0.1553 -0.2373
12099W        W28573  12.752  10.692   1.090  0.0171  0.2215  0.4436
12100W        W28574   2.543  11.632  13.034  0.3287 -0.3345 -0.3619
12101W        W28575   9.926   4.174   3.511  0.3076 -0.2463 -0.1433
12102W        W28576  17.491  17.729  12.562 -0.1775 -0.1136 -0.1419
12103W        W28577   5.139  13.694   1.360  0.1535 -0.3450 -0.0249
12104W        W28578  11.823  15.787   3.822  0.1602  0.2026  0.1476
12105W        W28579  14.353  13.235  11.425  0.1560  0.0986 -0.0165
12106W        W28580  16.255  11.200   4.889  0.1524  0.2961 -0.1051
12107W        W28581   7.499  19.093  14.591  0.1981 -0.4387  0.1323
12108W        W28582   1.962  12.527   9.406  0.4426 -0.3893 -0.0133
12109W        W28583   5.971   2.301  13.967 -0.1989  0.1792  0.4818
12110W        W28584  10.577  11.462  13.045 -0.0373  0.1453  0.1195
12111W        W28585  10.987   8.861  11.883 -0.0832  0.4318  0.0947
12112W        W28586   8.735   9.554  13.445  0.1255  0.1161  0.1005
12113W        W28587  10.468   5.047  12.962  0.0461 -0.1716  0.1094
12114W        W28588  13.582  19.141   2.716 -0.1474 -0.1239  0.0698
12115W        W28589  19.426  16.845  11.155  0.0503  0.0188 -0.3477
12116W        W28590   9.353  12.967  10.953  0.2269 -0.0144  0.1918
12117W        W28591  13.235  18.058  12.991  0.3706 -0.3571 -0.1520
12118W        W28592   1.898  13.458   1.445 -0.2341 -0.3535 -0.2221
12119W        W28593  15.183   5.059  14.567 -0.4344  0.0600 -0.1915
12120W        W28594   4.382   7.839   4.866 -0.1223  0.2805 -0.0192
12121W        W28595  18.880   3.878  14.633  0.0090 -0.3646 -0.2127
12122W        W28596   5.938   0.041   0.295  0.0505 -0.0154  0.2077
12123W        W28597   2.476  16.342   0.954  0.1995 -0.1661 -0.2528
12124W        W28598  10.473   9.551  12.355 -0.0711 -0.1389 -0.2810
12125W        W28599  14.870   0.466   2.762 -0.2062  0.3166  0.0772
12126W        W28600   8.304  11.040   4.471 -0.3460 -0.3320  0.1660
12127W        W28601  10.422  14.651   1.235 -0.3345 -0.3897 -0.0419
12128W        W28602   5.411   8.900  13.517 -0.0150 -0.0275 -0.1548
12129W        W28603   6.540  12.384  10.195  0.3010 -0.1640  0.2324
12130W        W28604  17.163   7.672   3.517 -0.2752 -0.1054  0.0119
12131W        W28605  18.163   8.879   0.791 -0.2768 -0.1550  0.0462
12132W        W28606  11.564   5.709   3.961  0.0077 -0.2790 -0.0165
12133W        W28607  14.312   8.203  14.033 -0.0166 -0.5321  0.2181
12134W        W28608   8.068   6.493  11.139  0.2352 -0.0777  0.1225
12135W        W28609  12.042  11.360  12.517 -0.1582 -0.0404 -0.0571
12136W        W28610  11.274   0.541   0.479 -0.1701  0.0758  0.1884
12137W        W28611  13.211  14.213   3.004 -0.0819 -0.2434  0.0436
12138W        W28612  17.812   5.066  14.179  0.1065  0.0944  0.0195
12139W        W28613  11.525  10.723   4.747 -0.2190 -0.3650  0.2027
12140W        W28614   6.462   8.704   2.289  0.1674 -0.0607 -0.1139
12141W        W28615   0.448  11.686  10.514 -0.0119  0.0315 -0.1795
12142W        W28616   1.330   2.048  10.181 -0.0045  0.0830  0.0110
12143W        W28617  14.802  12.814   0.444 -0.3358 -0.1660 -0.0170
12144W        W28618   8.180  10.417   4.004  0.0744 -0.2430 -0.2514
12145W        W28619  19.581  14.401  14.674  0.0869 -0.2146  0.1256
12146W        W28620  15.164  10.009   1.991 -0.1776  0.1193 -0.0855
12147W        W28621  15.407   1.904  11.388  0.0169 -0.0862 -0.2366
12148W        W28622  14.639   2.018   4.909  0.1293  0.1459 -0.1588
12149W        W28623  12.498   6.663   5.161 -0.0338  0.2583 -0.0427
12150W        W28624  14.082   1.628   9.294 -0.3305 -0.0001 -0.3916
12151W        W28625  16.927   3.751   0.596  0.1362  0.1448  0.0587
12152W        W28626  19.373   6.496  11.532  0.1427  0.0508  0.0486
12153W        W28627   6.817   3.726  11.245 -0.0286  0.2220  0.2200
12154W        W28628  12.364   9.186   4.431 -0.1589  0.2718  0.3299
12155W        W28629  17.473  10.518  12.867 -0.0520  0.2169  0.0641
12156W        W28630   9.125   2.472   0.527 -0.2115  0.2990  0.3469
12157W        W28631   6.521  15.314  12.275 -0.4531  0.1075 -0.2827
12158W        W28632   7.594  15.542   1.387 -0.0797 -0.1437 -0.3946
12159W        W28633  18.713  18.207  12.277  0.2701  0.4626  0.0560
12160W        W28634  15.039  10.662   0.164  0.2282 -0.2143  0.1675
12161W        W28635   8.412  10.527  11.351 -0.1044 -0.0253  0.0767
12162W        W28636   1.663  13.472  11.334  0.1858 -0.0100  0.3646
12163W        W28637   8.625  15.735  11.215  0.0190 -0.0813 -0.1804
12164W        W28638  13.129  12.972   3.708  0.2066 -0.1518 -0.2135
12165W        W28639   9.757   0.533   4.291 -0.0589  0.1020  0.0061
12166W        W28640  13.464   5.431  14.338  0.1659 -0.2384 -0.0233
12167W        W28641  11.166   2.065  12.947 -0.2134 -0.1953 -0.3366
12168W        W28642   3.015  14.871   3.851 -0.0665 -0.1207  0.0882
12169W        W28643   0.924   1.146  12.294 -0.0366 -0.5002 -0.0181
12170W        W28644   4.886  17.200   3.589  0.3364 -0.2477  0.0425
12171W        W28645   0.970   7.852  11.581  0.0718  0.3263 -0.1741
12172W        W28646   9.567   4.048  10.842 -0.1856  0.3095 -0.0261
12173W        W28647   5.329   2.783  12.147  0.3129  0.3956  0.0314
12174W        W28648  10.300  16.134  12.549  0.3090  0.2398  0.1439
12175W        W28649  19.489   8.541   1.403  0.0746 -0.0062  0.3731
12176W        W28650  17.027  10.704   3.078 -0.3347 -0.0997 -0.1324
12177W        W28651  11.693   6.106   4.426  0.0711 -0.3671  0.0432
12178W        W28652  18.350   0.181  11.851 -0.1498  0.1280 -0.1389
12179W        W28653  16.566   8.374  12.353  0.3581  0.2006 -0.0886
12180W        W28654  18.498   5.453  13.678 -0.2473  0.0503  0.0171
12181W        W28655   1.069   9.100   4.006 -0.0381 -0.0381 -0.0783
12182W        W28656   7.966  12.303   4.486  0.0606 -0.0467 -0.5202
12183W        W28657  15.684  16.713  10.431 -0.1466 -0.0585  0.3991
12184W        W28658  15.512   6.758   1.208 -0.1916  0.2949 -0.0514
12185W        W28659   1.458   9.833   2.901  0.0812 -0.3180  0.0177
12186W        W28660  11.651  18.771   0.103  0.0201 -0.1315  0.5072
12187W        W28661   5.391  15.194   8.798 -0.1371 -0.0023 -0.0565
12188W        W28662   8.078  19.120  11.393 -0.2412  0.0541  0.1680
12189W        W28663  10.126  10.469   4.627  0.0782  0.2601  0.0418
12190W        W28664   9.400  14.755   2.433 -0.1397 -0.0928 -0.3704
12191W        W28665   1.365   0.074   2.132 -0.0622  0.4493 -0.2810
12192W        W28666  18.373  14.685  12.777 -0.0083 -0.0088 -0.0517
12193W        W28667   6.901  19.063   0.450  0.1526  0.0825 -0.2227
12194W        W28668  17.519  15.820   4.178 -0.0153  0.0557  0.2065
12195W        W28669   6.047   1.353  10.247 -0.0089 -0.0067  0.3188
12196W        W28670  17.905  15.358   0.381  0.3530 -0.1716 -0.1039
12197W        W28671   4.307   0.778  13.100 -0.0064 -0.0578  0.0836
12198W        W28672   5.924   2.192   0.139 -0.0728  0.0263  0.0798
12199W        W28673   9.640  19.538  11.179  0.3783 -0.3052  0.1780
12200W        W28674  18.424   1.765  12.497 -0.0453  0.0820  0.0771
12201W        W28675  15.823   9.695  14.366  0.3426  0.0671 -0.0349
12202W        W28676   2.376  14.309   2.921 -0.3667  0.0808 -0.0055
12203W        W28677   4.495  11.841  12.793  0.2924  0.0734 -0.2929
12204W        W28678   2.005   4.598   0.490  0.1036 -0.1139 -0.0740
12205W        W28679  14.408  10.577   0.449 -0.1030  0.2421 -0.0910
12206W        W28680  15.223  19.167   3.343  0.2372 -0.0885 -0.3117
12207W        W28681   8.060   8.263   3.472 -0.2975 -0.1706 -0.2559
12208W        W28682  11.505  13.985  10.325 -0.0222 -0.3724  0.0242
12209W        W28683  14.592  13.032  10.708 -0.0126  0.0392  0.0069
12210W        W28684   4.492   6.649  14.608  0.2371  0.1582 -0.0405
12211W        W28685   3.168  11.142   9.819  0.0170 -0.2759  0.0595
12212W        W28686  14.196  19.015  11.941 -0.4171 -0.2106  0.0795
12213W        W28687   8.101   3.930  10.833 -0.2042  0.0104  0.0000
12214W        W28688  10.136   3.709  13.238 -0.1481  0.0406  0.0450
12215W        W28689   7.424   0.183  13.085  0.0513 -0.1634 -0.0033
12216W        W28690   9.854   8.156   1.580  0.2026 -0.1653  0.4716
12217W        W28691   9.910   8.568   1.302  0.0417 -0.4865 -0.2485
12218W        W28692  18.399   6.305  11.121 -0.0907 -0.3254 -0.0213
12219W        W28693  16.479  11.171  14.408 -0.2412 -0.2197  0.1805
12220W        W28694  18.459  17.728   1.652 -0.1759 -0.1168 -0.0201
12221W        W28695  17.662  15.116  12.446  0.0047  0.2503 -0.1847
12222W        W28696   3.977   5.856   9.748 -0.1388 -0.0723 -0.1610
12223W        W28697  17.868  15.634  10.931  0.0699 -0.1300  0.1922
12224W        W28698   2.924   3.921   2.452 -0.2612 -0.4239 -0.1111
12225W        W28699  15.205  18.289  11.344  0.2608  0.1712  0.1675
12226W        W28700   8.744  19.149  13.200  0.3212  0.0598  0.2490
12227W        W28701  14.209  19.115  12.391 -0.4403 -0.2268  0.1650
12228W        W28702  10.869  17.458   3.490  0.2786 -0.1749  0.1917
12229W        W28703   7.044   3.801  11.677  0.0478  0.0597 -0.2136
12230W        W28704   1.665   6.035   0.173 -0.4969 -0.2401  0.0325
12231W        W28705   9.838   9.190  11.431 -0.1734 -0.1240  0.1691
12232W        W28706   6.141  15.385   3.545 -0.2379 -0.2520 -0.3423
12233W        W28707  16.672   0.131   2.771  0.0961  0.2670 -0.1267
12234W        W28708  13.509   3.920  12.341  0.3663  0.3158 -0.1808
12235W        W28709   8.443  13.223  14.387 -0.0938  0.2341  0.0545
12236W        W28710   6.488  19.073   0.679  0.1358  0.0697 -0.0430
12237W        W28711   9.553  14.999   1.341 -0.1182  0.1442  0.0512
12238W        W28712   9.761  13.998   2.672 -0.0133  0.2443  0.0309
12239W        W28713  14.544  13.110  13.290 -0.1344  0.0673  0.1060
12240W        W28714   4.477   2.428   3.448 -0.0033 -0.1700 -0.1853
12241W        W28715   4.008   1.326   4.071 -0.0147  0.1522 -0.1084
12242W        W28716   1.199   0.879   0.856 -0.0796  0.0392 -0.0012
12243W        W28717  15.399  14.368   2.690  0.0715  0.1660  0.0313
12244W        W28718   7.394   0.970  10.434 -0.0071 -0.1214 -0.0123
12245W        W28719   6.304   0.977  11.986 -0.0148 -0.0622 -0.1880
12246W        W28720   3.540   9.317   2.100  0.0697 -0.1409 -0.0715
12247W        W28721   2.081   6.483   2.687 -0.3784 -0.3315  0.3393
12248W        W28722  13.585   8.910   0.286  0.5059 -0.1511 -0.2622
12249W        W28723   6.197  18.532  14.626 -0.0464  0.0584  0.1796
12250W        W28724  14.463  11.933  11.633 -0.1110  0.2360  0.2653
12251W        W28725   0.825  13.255   1.665  0.0373 -0.1574  0.3108
12252W        W28726   0.936   5.322   5.376 -0.1390 -0.1216  0.2449
12253W        W28727   6.690  16.188  12.679  0.1200  0.4120 -0.1219
12254W        W28728  15.771   1.256  12.152  0.0656  0.1799 -0.1025
12255W        W28729  11.351   4.109  12.431 -0.0489 -0.1381  0.1856
12256W        W28730  17.691  12.038   4.864 -0.1275 -0.3632 -0.1416
12257W        W28731  11.686  15.552  12.954 -0.1290 -0.1357 -0.4293
12258W        W28732  12.611  17.233  12.966 -0.1406  0.1471 -0.3332
12259W        W28733  18.023  14.181  10.297  0.2441 -0.2730 -0.0266
12260W        W28734  11.896  11.450  13.027 -0.0467 -0.0162  0.2714
12261W        W28735  12.699   5.528   3.447 -0.0823  0.2571  0.0034
12262W        W28736   3.634   5.902   3.259 -0.0726  0.1333  0.4640
12263W        W28737   3.747   7.532  13.995 -0.0314 -0.0365  0.0531
12264W        W28738   1.921   4.321  14.707  0.0569  0.1222 -0.1086
12265W        W28739   6.827  16.305   3.155  0.2139  0.1931  0.0764
12266W        W28740  13.580   7.885   1.789  0.0124 -0.1537  0.0827
12267W        W28741   0.571  13.581   9.994 -0.0409  0.0278 -0.1864
12268W        W28742   9.500  18.706  11.407  0.0534 -0.1412  0.3824
12269W        W28743   2.196  10.891  11.503 -0.0487  0.4114 -0.0014
12270W        W28744  10.092   5.721   0.120  0.1848  0.0914  0.0826
12271W        W28745  16.791  10.550  12.501  0.0176 -0.0924 -0.0281
12272W        W28746  17.558   0.871  10.878 -0.4119  0.0823  0.4931
12273W        W28747   4.046   4.018  10.478 -0.0374  0.2648 -0.1188
12274W        W28748   7.858  19.496  12.498 -0.2063 -0.0369 -0.0837
12275W        W28749   1.434  18.354  10.293  0.0355  0.3841  0.2507
12276W        W28750   4.748  11.724   3.451 -0.1875  0.0558  0.3158
12277W        W28751   3.072   8.714   0.303 -0.0273  0.1136  0.2738
12278W        W28752  16.021  17.943  11.470  0.2554 -0.0707 -0.1326
12279W        W28753  11.253   1.017   5.016  0.1652  0.1011  0.0890
12280W        W28754   4.841  13.919   0.433  0.0025  0.0376 -0.0827
12281W        W28755  18.139  16.452   3.374 -0.3716 -0.0691 -0.1444
12282W        W28756  12.102   2.692  13.630 -0.0469 -0.0326 -0.0792
12283W        W28757  15.898  14.829   1.633 -0.2432  0.2273 -0.0816
12284W        W28758   7.452   5.267   1.648 -0.6895 -0.1816 -0.2530
12285W        W28759  10.546  16.489  11.276 -0.3125 -0.1230  0.2880
12286W        W28760  19.135   9.555   2.803  0.2308  0.2596  0.2991
12287W        W28761   4.593  15.052   3.013  0.0329 -0.0047  0.3777
12288W        W28762  19.522   5.188  10.416 -0.0174 -0.1020 -0.1439
12289W        W28763   4.075  16.680   1.970 -0.1449 -0.0665 -0.1029
12290W        W28764   6.556  10.149  13.456 -0.0005  0.0029  0.1495
12291W        W28765   3.181  17.997   3.666 -0.0095 -0.2659 -0.3000
12292W        W28766  17.847   5.528  11.697  0.2437  0.0726 -0.1948
12293W        W28767   9.749  11.819   2.354 -0.1039 -0.1131 -0.1403
12294W        W28768   3.451  11.886  13.365 -0.2029 -0.0154 -0.1016
12295W        W28769   0.684   3.207  14.133 -0.0162 -0.2537 -0.1552
12296W        W28770   9.566  15.153   0.849  0.1463  0.1091 -0.3897
12297W        W28771   6.214   4.554   2.922  0.0483  0.2028 -0.1481
12298W        W28772   0.886   2.471   1.893 -0.2989  0.1444  0.0655
12299W        W28773   3.524   7.974  11.217  0.0944  0.2048  0.3664
12300W        W28774  19.368   4.891  12.136  0.0218 -0.0114 -0.1584
12301W        W28775   1.743   1.163   5.130 -0.0680 -0.0309  0.2733
12302W        W28776  10.961  16.347  13.953 -0.0489  0.2966  0.3293
12303W        W28777  12.588   3.635   2.019  0.2381  0.1095  0.1505
12304W        W28778  18.428  14.328   3.148  0.1037 -0.0516 -0.1465
12305W        W28779  17.574   9.565   1.020  0.1690  0.1404  0.1468
12306W        W28780   5.292   0.639  10.518  0.5739 -0.2321 -0.0196
12307W        W28781   5.105   9.534   2.566  0.1731 -0.2078  0.2211
12308W        W28782   1.163  17.368   4.175 -0.0591 -0.1931  0.1103
12309W        W28783   4.557  15.111  12.329  0.0099  0.1618  0.1852
12310W        W28784  13.152  15.258  12.233  0.0675 -0.0353 -0.3736
12311W        W28785  16.415  16.585  14.050 -0.0904 -0.0396 -0.3875
12312W        W28786   3.241   9.851   1.530  0.0448 -0.1300  0.0341
12313W        W28787   2.321  10.280  14.441 -0.1991  0.1544 -0.1305
12314W        W28788  12.163   5.524  10.545  0.0463 -0.0528  0.4630
12315W        W28789  14.350   7.418  10.910  0.0987 -0.2749  0.0500
12316W        W28790  12.801  15.362   1.058  0.0115  0.0503  0.2226
12317W        W28791   6.949  15.463  14.215  0.0247 -0.0397 -0.3350
12318W        W28792  14.754   5.098   4.511  0.2288  0.0665  0.0638
12319W        W28793   4.760   6.421   1.937  0.1310  0.1667  0.0626
12320W        W28794   6.993   1.634   4.220  0.0653  0.0936  0.2635
12321W        W28795   7.275   2.178  14.226 -0.0135  0.1142  0.0338
12322W        W28796  16.440  18.114   9.425 -0.2440 -0.1852 -0.0877
12323W        W28797   9.706   9.602   4.773 -0.0504 -0.0875  0.1886
12324W        W28798  10.119   0.490   3.346  0.1552  0.3404 -0.0958
12325W        W28799   1.037   3.653  14.148 -0.3461  0.0148  0.2288
12326W        W28800  15.578  19.434   2.857  0.2029  0.2641 -0.1204
12327W        W28801  12.547   3.632   3.897 -0.0093  0.0545  0.1479
12328W        W28802   4.321   3.321  11.574 -0.1071 -0.3294 -0.2055
12329W        W28803   5.946  19.469   4.351 -0.0284 -0.2078  0.1747
12330W        W28804  17.810   5.417   2.341  0.2051  0.1508 -0.1120
12331W        W28805  19.336  15.471  12.620 -0.2029  0.0119  0.0643
12332W        W28806   2.765  15.433  12.260  0.4415  0.0821  0.1200
12333W        W28807  14.440   1.720   2.452  0.1776  0.2916  0.3166
12334W        W28808   3.118  13.330   3.837  0.0764 -0.0544 -0.2027
12335W        W28809  14.557   9.685   2.541 -0.2013  0.0123 -0.2424
12336W        W28810  13.270  18.711   1.973 -0.0935  0.3997 -0.3589
12337W        W28811   7.551   5.282   3.133 -0.0711 -0.1134  0.2121
12338W        W28812  13.687  10.906   0.359  0.1162  0.3194 -0.0178
12339W        W28813  11.809  12.696   1.603 -0.1679  0.4112  0.0933
12340W        W28814  18.448   1.563   4.260  0.0834  0.2455  0.0268
12341W        W28815   3.567   0.255  10.013  0.1867  0.2582 -0.0558
12342W        W28816  14.621   9.073   1.184  0.1328 -0.0267  0.0148
12343W        W28817  11.509   7.977   3.743 -0.0746  0.1832  0.1064
12344W        W28818   3.060  19.065  11.650 -0.2937 -0.0185 -0.1113
12345W        W28819  18.092   0.298   0.634  0.2838 -0.0165  0.1432
12346W        W28820  16.256  19.082  12.095  0.1121  0.1786  0.1487
12347W        W28821   4.189   0.608  11.592  0.0056  0.2971 -0.0882
12348W        W28822  12.205  13.187  11.382 -0.2215 -0.1143 -0.0095
12349W        W28823  15.593  15.065  10.411  0.1820  0.1358  0.1313
12350W        W28824  18.069  11.088  10.369 -0.1667  0.1811  0.1552
12351W        W28825  17.495  14.829  10.965  0.2596  0.0648  0.0947
12352W        W28826  18.062  14.874   0.044 -0.0578 -0.2444  0.1088
12353W        W28827   2.292   9.207  11.080 -0.0345 -0.2982 -0.1232
12354W        W28828   1.692   1.062  11.926  0.0595 -0.0681  0.0554
12355W        W28829  10.149   2.860  14.617  0.1318 -0.1535  0.1186
12356W        W28830  11.784  10.258   1.380  0.2545 -0.0116 -0.0217
12357W        W28831  15.732   5.840  13.476  0.1228  0.0777 -0.0827
12358W        W28832  16.187  18.277  10.803 -0.2304  0.0846 -0.2159
12359W        W28833  11.829   9.082   0.742  0.1944 -0.1171  0.3426
12360W        W28834  14.097  14.753  13.462 -0.2946 -0.0998 -0.3103
12361W        W28835   1.168  15.710  14.391 -0.0478  0.0108  0.1067
12362W        W28836   2.243   6.496  11.753  0.0491 -0.1767  0.0653
12363W        W28837   3.278  15.670  12.088 -0.0812 -0.2565  0.1517
12364W        W28838  18.606   6.802   4.417  0.2635 -0.2552  0.0404
12365W        W28839   4.943  12.306   2.014 -0.0209  0.0414  0.2039
12366W        W28840   8.127  10.629   2.325 -0.1257  0.0128 -0.2304
12367W        W28841  17.298   5.460  12.380  0.1800  0.1638  0.2747
12368W        W28842  13.253   8.525  13.127  0.1511  0.1409  0.0849
12369W        W28843   3.942  12.256   0.923 -0.1741 -0.2407 -0.0622
12370W        W28844   5.909  17.240   0.284 -0.1628 -0.0922  0.0468
12371W        W28845  13.275  15.766   3.926 -0.2850 -0.0610 -0.1103
12372W        W28846   4.797  18.978   3.939  0.0210  0.1343 -0.0771
12373W        W28847   8.676   2.310   4.347  0.1072  0.1516 -0.1270
12374W        W28848   6.783  15.433  13.226 -0.1577  0.1124  0.3161
12375W        W28849  12.870  12.690   4.022  0.0254 -0.0549  0.0891
12376W        W28850  12.117   5.065  14.571  0.1690  0.1847 -0.0564
12377W        W28851   7.234  12.499   9.457 -0.0932  0.1131  0.1396
12378W        W28852  12.602  10.933  11.046 -0.2427  0.0397 -0.2772
12379W        W28853   2.187  16.642  10.613 -0.1503 -0.0402 -0.2645
12380W        W28854   7.430  11.063   4.347  0.1142  0.0666  0.2069
12381W        W28855  14.660  18.203  12.463  0.0090 -0.0289  0.0814
12382W        W28856  17.085  15.623   4.500  0.0871  0.0284  0.1463
12383W        W28857  18.531  14.106  11.870 -0.0191  0.1730 -0.4854
12384W        W28858   9.531   3.633   3.541 -0.0502 -0.3324 -0.1879
12385W        W28859   0.134   3.669   0.409  0.3254  0.2321 -0.3330
12386W        W28860  19.176   3.737  11.505 -0.0581  0.0879  0.2305
12387W        W28861   9.474   5.908  10.612  0.0668  0.3256 -0.0585
12388W        W28862  18.519   1.227   2.794  0.1985 -0.3112 -0.1337
12389W        W28863   7.792  15.043   3.316 -0.2910 -0.2002 -0.4144
12390W        W28864   3.640  13.543  11.397 -0.0836 -0.2225  0.1403
12391W        W28865  11.404  12.797  13.522  0.0862 -0.0175  0.1626
12392W        W28866  13.326  18.613  13.406 -0.1065  0.1953  0.1665
12393W        W28867  16.328  15.361  11.238  0.0059 -0.1161  0.1953
12394W        W28868  14.187  18.716  14.039 -0.2159  0.1548 -0.1314
12395W        W28869   1.034   6.094   2.834 -0.1690 -0.0759 -0.1197
12396W        W28870   4.050   2.129   3.558 -0.5156  0.3460 -0.1892
12397W        W28871   3.954   9.515   1.355  0.0899 -0.2401 -0.1371
12398W        W28872  15.709   9.760  13.453  0.4108  0.4319 -0.0265
12399W        W28873  11.114   5.795   1.506 -0.1888  0.2173 -0.2466
12400W        W28874   9.615  13.096  13.603 -0.3371  0.0098 -0.2735
12401W        W28875   5.365  14.503   0.204 -0.1369 -0.2955  0.2469
12402W        W28876  11.180  17.931   3.158  0.0848  0.3105  0.0813
12403W        W28877  12.188  18.579  11.099 -0.3789 -0.1987  0.1742
12404W        W28878  19.082  12.685  13.728 -0.1576  0.0337 -0.3897
12405W        W28879  13.833   1.414  12.102 -0.0557  0.2251  0.0761
12406W        W28880  10.136  12.442   3.658  0.0577 -0.5012  0.0894
12407W        W28881   9.498   9.768  10.763  0.0053 -0.1970  0.0790
12408W        W28882   2.993  13.814  11.859 -0.0105  0.0225  0.2320
12409W        W28883  10.155  16.116   1.680 -0.0475  0.0916  0.1640
12410W        W28884   2.892   4.470   0.247 -0.0342 -0.0197  0.1348
12411W        W28885   6.435  17.442  10.866 -0.2238  0.0904 -0.2265
12412W        W28886   6.960  11.022  12.301  0.2953  0.0811 -0.2338
12413W        W28887  13.321  11.147  13.667  0.2910  0.1279  0.0180
12414W        W28888  17.962   9.741  13.473 -0.0709 -0.2291 -0.1423
12415W        W28889   1.386   3.720  14.618  0.2843 -0.0963 -0.2819
12416W        W28890   0.860  18.849   0.366 -0.1210  0.1141  0.5518
12417W        W28891   0.269  12.432  12.108 -0.0898  0.2586 -0.1464
12418W        W28892   7.737  17.894  10.003  0.2843  0.0331 -0.0775
12419W        W28893  12.263   7.964   2.655  0.1456 -0.1700  0.1281
12420W        W28894   6.165   5.324  13.142 -0.0078  0.0909 -0.1231
12421W        W28895   5.841   6.519   2.408  0.1423  0.0085 -0.0601
12422W        W28896   6.021   6.914  13.549 -0.2607 -0.0114 -0.1973
12423W        W28897   0.568  11.438   2.740  0.0695 -0.2679  0.0181
12424W        W28898   2.605   7.510   3.379  0.0245 -0.2732  0.0436
12425W        W28899  15.693  15.010  13.586 -0.0833  0.0328  0.0943
12426W        W28900   4.041  17.148   2.335 -0.0805  0.2830  0.0222
12427W        W28901   4.189   5.363   9.803 -0.1546  0.0781  0.3976
12428W        W28902  12.849   0.714   3.475 -0.3752 -0.0404  0.1885
12429W        W28903   6.427  17.786   2.038  0.3419  0.4701  0.1208
12430W        W28904  13.167   7.507  12.100  0.4372  0.3516 -0.0117
12431W        W28905  16.671  13.552   5.185 -0.0282 -0.1755 -0.3912
12432W        W28906  10.291  15.161  13.952 -0.1957  0.0372  0.2235
12433W        W28907  16.827   5.555  14.598  0.1919 -0.0790 -0.0557
12434W        W28908   6.452  13.798  11.923  0.0594  0.1110 -0.3213
12435W        W28909   2.829   3.574  10.600  0.0094 -0.2545  0.2110
12436W        W28910   9.501  18.189  11.357  0.2251 -0.0339 -0.3665
12437W        W28911   6.256   0.273  14.134 -0.0233 -0.2253 -0.3114
12438W        W28912  10.588  12.128  11.132 -0.2097  0.0200 -0.0609
12439W        W28913   2.215  15.384  12.999  0.1202  0.1040  0.2547
12440W        W28914  10.814   1.097   1.841  0.2091 -0.1670 -0.0971
12441W        W28915  17.385  11.975  13.851  0.4245 -0.2132 -0.2701
12442W        W28916  11.805  14.035   0.017 -0.1370  0.0308 -0.3604
12443W        W28917  18.391  10.443   0.320 -0.0411 -0.0893 -0.0351
12444W        W28918   9.034  17.896  13.673  0.3635  0.0404 -0.6329
12445W        W28919  18.159   3.901  11.449 -0.0267  0.0401  0.1328
12446W        W28920   0.648  10.849   0.187 -0.1237  0.0849 -0.1459
12447W        W28921   1.972   8.773   1.481  0.0917 -0.0919 -0.0395
12448W        W28922   1.748   3.094  12.294  0.1356  0.1847  0.0525
12449W        W28923  10.663   6.057   3.534  0.2911 -0.1311  0.0334
12450W        W28924   7.697   5.471   4.119 -0.0045  0.2859  0.1955
12451W        W28925   8.532   9.976  11.211  0.0357 -0.1439  0.1265
12452W        W28926  19.241   7.987   2.231  0.4445 -0.0704 -0.1405
12453W        W28927   0.264  11.881   0.211  0.3976 -0.0786  0.0553
12454W        W28928   0.682   6.441   2.979  0.0705 -0.0098  0.1014
12455W        W28929   3.748  15.356  10.277 -0.2191  0.4731 -0.4131
12456W        W28930   7.314   9.166   1.031 -0.0871 -0.2713  0.1338
12457W        W28931  14.775  10.125   3.233 -0.0225  0.0351 -0.3114
12458W        W28932  14.276   1.028   1.676 -0.0365 -0.0134  0.2259
12459W        W28933  18.504   9.165   0.427 -0.1971 -0.0953  0.0071
12460W        W28934   4.478  19.573  10.747  0.0501 -0.2376 -0.0223
12461W        W28935   2.613  18.232  10.535  0.1632 -0.1897 -0.1382
12462W        W28936   5.998   1.991   3.063  0.0471 -0.0171  0.1627
12463W        W28937  16.592  16.269   3.857  0.0124 -0.2662 -0.2352
12464W        W28938   5.510   4.062  10.612  0.1333  0.0663 -0.2627
12465W        W28939  17.943   1.540   0.082  0.1334  0.1713  0.2522
12466W        W28940   3.356  11.493  12.534 -0.0460 -0.0627  0.0091
12467W        W28941   7.514  13.809  10.959 -0.0795 -0.0459  0.1038
12468W        W28942  12.294  15.037   1.342  0.2131  0.0145  0.1479
12469W        W28943  19.322  19.197   2.378  0.2347  0.3379 -0.0670
12470W        W28944  14.945   8.169   1.456  0.3442  0.0753  0.0538
12471W        W28945   0.593  14.223  12.647  0.1026  0.0958  0.2818
12472W        W28946   6.601  15.607  11.043 -0.3591  0.4600  0.1631
12473W        W28947   7.860  19.352   2.925 -0.0713  0.0349 -0.6669
12474W        W28948   6.252   4.994  11.866 -0.2751  0.1188  0.1343
12475W        W28949   7.714  18.070  11.256  0.4071 -0.0224 -0.1942
12476W        W28950   5.702   5.879  11.690 -0.4743  0.2485  0.1971
12477W        W28951  11.325  11.749  10.823  0.1027 -0.1408 -0.1920
12478W        W28952   9.721   1.469   2.679 -0.0394 -0.2266 -0.4354
12479W        W28953   4.149   0.020   4.155  0.1780 -0.1005  0.1678
12480W        W28954  17.172  15.679  13.426 -0.0807 -0.1440  0.2583
12481W        W28955  16.426  15.537   0.590 -0.0510  0.1500 -0.1224
12482W        W28956  10.233  10.908   2.211  0.0999 -0.0416 -0.0061
12483W        W28957   2.623   7.862   1.231 -0.1234 -0.1500 -0.0610
12484W        W28958  13.645   1.775   0.355  0.1767 -0.0325 -0.1293
12485W        W28959  17.504   4.826   3.778 -0.3326  0.2208 -0.0428
12486W        W28960   6.298   6.406   1.726 -0.5451  0.0643 -0.4062
12487W        W28961   6.517   3.519  11.751 -0.0114 -0.1579  0.2365
12488W        W28962   5.068  15.169   2.575  0.0460  0.2125  0.0562
12489W        W28963   1.896  19.007   0.940  0.1182  0.1152 -0.1733
12490W        W28964  15.037  17.836  13.337  0.4091 -0.1312 -0.0904
12491W        W28965   7.263   3.301  12.332 -0.3449  0.1522  0.3138
12492W        W28966   1.398   1.456  11.573 -0.0551  0.0908  0.1244
12493W        W28967   4.386   5.451  12.162 -0.2159 -0.2550  0.0767
12494W        W28968  11.644   3.246   1.095 -0.1380 -0.2664 -0.2705
12495W        W28969   7.978   0.106  11.560 -0.2168  0.1922  0.0407
12496W        W28970  17.387   0.972   3.578  0.0466  0.1500  0.2723
12497W        W28971   9.070   2.672  10.249 -0.1121 -0.1988  0.6351
12498W        W28972   1.748  16.141   2.260 -0.0342  0.1661  0.1832
12499W        W28973  12.347  16.592   1.820 -0.1511 -0.0789  0.1230
12500W        W28974   1.621  13.251   2.872 -0.2750 -0.3197 -0.1122
12501W        W28975  14.412  15.706   3.656 -0.0588  0.0069  0.1251
12502W        W28976   1.250  19.244   5.080  0.1104 -0.1923  0.1110
12503W        W28977  12.635  10.416   2.423  0.1411  0.2027  0.3473
12504W        W28978  17.606   7.167   5.594  0.3036 -0.0729  0.2089
12505W        W28979   6.688  16.514  13.938  0.0980  0.3023 -0.2981
12506W        W28980   5.143   8.740  10.925 -0.1090 -0.1895 -0.0065
12507W        W28981  14.716   9.120   4.104 -0.1391  0.0001 -0.1287
12508W        W28982   7.990  15.471  12.542 -0.0869 -0.0331  0.0935
12509W        W28983  19.563   9.156  10.651 -0.1276  0.1426  0.0311
12510W        W28984   6.970  12.903  13.121  0.0887 -0.1233 -0.2546
12511W        W28985   6.882  15.779   9.124 -0.1520  0.0020  0.2285
12512W        W28986  17.114  10.586   1.483 -0.0316 -0.4331 -0.3963
12513W        W28987  15.080  10.198  14.133  0.1827 -0.2311  0.1289
12514W        W28988  12.439  16.316  14.071  0.4484  0.3048 -0.0050
12515W        W28989  12.668  18.180   2.656 -0.2960 -0.0149 -0.1301
12516W        W28990   7.815  11.688   5.168  0.0038 -0.2569  0.1877
12517W        W28991  16.510   7.258  14.224 -0.1203  0.1607 -0.1406
12518W        W28992   2.204  15.626  12.035 -0.4894  0.2113  0.0264
12519W        W28993   7.142  14.565   3.998  0.2154 -0.1321 -0.2424
12520W        W28994  11.760   3.730   2.916  0.1817 -0.0564 -0.2304
12521W        W28995   0.756   8.688  11.276 -0.1058  0.4084 -0.1176
12522W        W28996   9.387   2.979   0.434 -0.2577  0.0839  0.1396
12523W        W28997   4.641  13.955   9.664 -0.1997 -0.2066  0.0722
12524W        W28998   7.830   7.500  12.044 -0.2802  0.3764  0.1066
12525W        W28999   1.289  19.522   2.611  0.1043 -0.0710 -0.4428
12526W        W29000   9.883  14.084  11.209  0.0390  0.0767 -0.0806
12527W        W29001  15.067  17.281   1.695 -0.0308  0.1977  0.2205
12528W        W29002  19.504  13.980   0.920  0.3041  0.1769  0.0522
12529W        W29003   8.414  19.560   0.680  0.0856 -0.1053  0.2194
12530W        W29004   7.568  11.950   3.848  0.4330  0.4257  0.0861
12531W        W29005   5.589   0.955   8.981 -0.0651 -0.3595  0.0418
12532W        W29006   7.782  18.715   1.656  0.1784  0.2493 -0.0420
12533W        W29007  16.251   9.210   0.483 -0.2107  0.0288  0.0095
12534W        W29008  10.909  15.267  11.453  0.1990  0.1549  0.2548
12535W        W29009  14.236   5.671  12.395 -0.0104  0.2159 -0.0915
12536W        W29010  11.668   0.801  11.714 -0.2833  0.2186  0.1765
12537W        W29011   4.689  18.907  11.279 -0.1166  0.1465  0.2270
12538W        W29012   0.290   1.727   3.553 -0.0858  0.2981 -0.1551
12539W        W29013   1.906  14.142  11.531 -0.2225  0.3188 -0.0175
12540W        W29014  11.490  18.066   9.457 -0.1095  0.0259 -0.0546
12541W        W29015   8.416  13.700   2.820  0.2298 -0.0189  0.7183
12542W        W29016   6.262   7.184  12.459  0.2093  0.1648  0.1725
12543W        W29017   8.539   2.168  11.468  0.1724  0.3144  0.0903
12544W        W29018  15.121   5.340  12.472 -0.2274 -0.1117 -0.3335
12545W        W29019  10.587  16.326   1.387  0.1338  0.0721  0.2519
12546W        W29020  19.217  13.176  11.943 -0.0700  0.0819 -0.0134
12547W        W29021   9.790  10.389   1.216  0.0386  0.1792 -0.2702
12548W        W29022   4.143   7.954  13.194 -0.0732 -0.0641  0.0998
12549W        W29023  11.964   1.036  13.861 -0.1626  0.1083 -0.1953
12550W        W29024   3.638  12.319   4.590 -0.0674 -0.0828  0.1770
12551W        W29025  16.061  10.648   0.203  0.0409 -0.2756  0.1168
12552W        W29026   6.413   1.330   1.440  0.1389 -0.0765  0.3370
12553W        W29027  10.999  14.035  10.603 -0.0655  0.1520  0.1230
12554W        W29028   2.016  10.952   1.343  0.1171  0.1546 -0.2763
12555W        W29029  15.725   6.788  12.972 -0.2298  0.3746 -0.0496
12556W        W29030   2.267  11.621  12.638 -0.1460  0.0064  0.2150
12557W        W29031  16.620  16.502  10.538 -0.3010 -0.1614 -0.0832
12558W        W29032  16.397  16.547  10.995  0.1057  0.0364 -0.3210
12559W        W29033   2.798  15.506  11.759  0.1635  0.2453 -0.2039
12560W        W29034   0.191   9.916  12.142  0.1677  0.1900 -0.1278
12561W        W29035  10.520  18.392  11.518 -0.2713  0.0247 -0.0915
12562W        W29036  11.127  14.220  11.482 -0.1462  0.0035 -0.1207
12563W        W29037   0.246  16.237  14.159  0.0692  0.0429 -0.2408
12564W        W29038  13.785  14.520   1.444 -0.2357  0.1598  0.0374
12565W        W29039  10.797   3.311   3.204  0.2735  0.0782  0.4220
12566W        W29040  14.135   4.481   1.624  0.2825 -0.1618 -0.2475
12567W        W29041   6.822   3.681  13.267 -0.0794  0.1821  0.1524
12568W        W29042  18.399   2.107  11.070  0.0986  0.0002 -0.0071
12569W        W29043  11.551   3.728  12.043 -0.1536  0.1063 -0.1374
12570W        W29044  16.257   7.546  11.048  0.0020  0.1204  0.1378
12571W        W29045   2.541   5.245  12.410  0.0116  0.0338  0.1769
12572W        W29046   0.452  11.531   4.162 -0.0874  0.0624  0.3965
12573W        W29047  11.799   1.346  10.761 -0.0142  0.0159  0.1792
12574W        W29048  16.559   6.577   4.483 -0.2180 -0.1680 -0.0571
12575W        W29049  14.948  11.415   1.002  0.1531  0.0524  0.1818
12576W        W29050  14.979  14.054  14.569 -0.4686  0.2257 -0.1250
12577W        W29051   9.600  18.133  13.270 -0.1489 -0.0075 -0.0807
12578W        W29052  16.559  16.453   3.270  0.3551  0.0310  0.0875
12579W        W29053   9.821   8.682  13.844 -0.0099  0.1566  0.3640
12580W        W29054   1.579   6.810   2.653  0.1235  0.3329  0.0182
12581W        W29055   1.983   6.971   2.928 -0.0140  0.1239 -0.0087
12582W        W29056  15.878  12.931   3.796  0.2628  0.3997 -0.0466
12583W        W29057  14.321  18.882   1.214 -0.3372  0.1083 -0.0449
12584W        W29058   5.998   2.402   2.270 -0.0490  0.1927 -0.0731
12585W        W29059  16.323   8.281  14.187 -0.0314 -0.0941  0.3325
12586W        W29060   8.106  14.573  11.765 -0.0015 -0.0730  0.0453
12587W        W29061   8.148   5.723   4.059  0.2921  0.2495  0.0924
12588W        W29062  16.774   6.059   3.443  0.2559  0.1689  0.2600
12589W        W29063  19.536  15.338   5.354 -0.2481  0.2296  0.1468
12590W        W29064  18.280  10.878   2.089  0.1331 -0.1359 -0.4180
12591W        W29065  14.003   4.750   3.994  0.2082 -0.1246 -0.0331
12592W        W29066   1.786   1.926   2.702 -0.0311  0.0068  0.3629
12593W        W29067  15.488  16.614  14.119 -0.2067 -0.1636  0.4501
12594W        W29068  17.308   3.327  13.192  0.2622  0.0877  0.0655
12595W        W29069   2.886   0.301  13.316  0.0166 -0.0245 -0.2704
12596W        W29070  12.365   5.266   1.484 -0.1237 -0.2226  0.1994
12597W        W29071  16.839   4.923  10.959 -0.1674  0.0866  0.0822
12598W        W29072  10.232   8.822  14.159 -0.1395  0.2116  0.0048
12599W        W29073  15.083   9.842  11.998  0.2612  0.0061 -0.4427
12600W        W29074   4.306   1.318  14.247  0.0198 -0.1842 -0.2406
12601W        W29075   9.459  14.345   2.746 -0.1907 -0.3170  0.0054
12602W        W29076   9.876   1.159   4.656  0.1219  0.1533 -0.0621
12603W        W29077  16.135   1.664  10.071 -0.1403 -0.0363 -0.0428
12604W        W29078  19.092  18.672   0.556 -0.1769  0.2107  0.0737
12605W        W29079   3.888   8.355   4.492  0.1911 -0.0754 -0.2329
12606W        W29080  16.484  19.185   3.697  0.2295  0.0157 -0.0861
12607W        W29081   3.476   3.178   1.226  0.2899  0.0860 -0.0134
12608W        W29082  18.782   1.178  11.876  0.0983  0.0859 -0.2783
12609W        W29083  18.741   3.288  13.739  0.0044 -0.2008 -0.0584
12610W        W29084  18.218   7.531   0.909  0.0774 -0.2070 -0.0160
12611W        W29085  10.462   5.696  12.669  0.2026 -0.0719 -0.1771
12612W        W29086  13.351   8.255  13.594 -0.0369 -0.1917  0.1124
12613W        W29087   8.930  11.085  13.331 -0.2797  0.2315  0.1638
12614W        W29088   9.450   6.232   3.758 -0.0076  0.2400  0.1626
12615W        W29089  17.533  19.447   2.047 -0.0997  0.1100  0.0409
12616W        W29090   4.750  16.607   1.793  0.1037 -0.1882  0.0684
12617W        W29091  11.312  12.404   4.715  0.0044  0.2722  0.1761
12618W        W29092  19.431   5.875  12.332 -0.1717  0.1339 -0.0663
12619W        W29093   3.099   3.141  13.482  0.1189 -0.2223 -0.1632
12620W        W29094   1.624   7.346   2.877 -0.2331 -0.0899  0.1211
12621W        W29095  17.060  13.228   9.258  0.1220 -0.0487 -0.3790
12622W        W29096  18.302  15.496  10.769  0.0827  0.5250 -0.0957
12623W        W29097  13.549   5.502  12.249 -0.2079  0.3375 -0.0642
12624W        W29098  16.378   0.367   9.831  0.0994  0.3852  0.2940
12625W        W29099  10.309   5.414  10.909 -0.0140  0.0770 -0.0162
12626W        W29100  19.158  10.845   0.892 -0.1259  0.0200 -0.0216
12627W        W29101   1.420  10.024   2.368  0.1232 -0.1579  0.0711
12628W        W29102   0.140  15.410  11.139 -0.2313  0.1319 -0.1960
12629W        W29103  11.157  17.788   9.823  0.2976  0.0375  0.4297
12630W        W29104  14.979  15.015  12.701 -0.1835  0.2569 -0.2868
12631W        W29105  14.261   9.421  11.071 -0.0694 -0.3942 -0.2284
12632W        W29106   7.909   5.520  12.521  0.1747  0.2185  0.1857
12633W        W29107  15.168   2.880   4.980  0.1538 -0.1597 -0.1133
12634W        W29108   0.360   0.336   4.173  0.3464 -0.0674  0.1104
12635W        W29109  10.129  18.103  13.345 -0.0718 -0.1135 -0.0597
12636W        W29110  11.516  15.978  11.187 -0.2803 -0.0311 -0.1624
12637W        W29111  15.800  18.590   0.247 -0.0569  0.4101 -0.1720
12638W        W29112   1.860  13.801   0.684  0.2588  0.0440  0.0485
12639W        W29113  17.448  15.734  11.151  0.0172  0.0117 -0.1562
12640W        W29114  14.343   1.054   0.451 -0.1111  0.0366  0.0288
12641W        W29115   5.189   9.269  11.411  0.0831  0.0016  0.1546
12642W        W29116  19.503  16.679  12.030  0.0702  0.0046 -0.0001
12643W        W29117   8.813   3.270   4.012 -0.0961 -0.1836 -0.1529
12644W        W29118   2.863  17.953   2.133  0.1578  0.0895 -0.0826
12645W        W29119   7.749  18.115  11.999 -0.0432 -0.2846  0.0316
12646W        W29120  12.162  12.591  11.922 -0.4110  0.0402 -0.1225
12647W        W29121   5.931   6.726  12.602 -0.3534  0.0663 -0.1236
12648W        W29122  11.296   0.055   1.802 -0.2178  0.3910  0.0762
12649W        W29123  11.421  15.734  10.485 -0.2618  0.2477 -0.1192
12650W        W29124   8.054   6.687   1.884  0.1111  0.3835 -0.1580
12651W        W29125  16.844  13.937   0.522 -0.0227 -0.4240  0.2464
12652W        W29126   7.888   4.268   4.240 -0.2819 -0.0819 -0.0720
12653W        W29127   5.137  13.209  12.078  0.0205 -0.2615  0.2570
12654W        W29128   7.626  11.091   3.337 -0.0043 -0.1144 -0.1954
12655W        W29129  12.324  18.720   0.258 -0.2350 -0.4113 -0.0895
12656W        W29130   3.973   3.751   4.393 -0.0477 -0.0365 -0.1218
12657W        W29131  16.155   0.407   4.125 -0.1942  0.1454 -0.0868
12658W        W29132  17.012  13.266   0.072 -0.1465 -0.1697 -0.2489
12659W        W29133   5.554  17.458   2.426  0.0266 -0.3467 -0.2586
12660W        W29134   4.699  17.794   1.502  0.0701 -0.0150 -0.0450
12661W        W29135   8.333   6.185   4.321 -0.2145 -0.1139  0.0078
12662W        W29136  19.521  12.903  11.591  0.2212 -0.1593  0.1316
12663W        W29137  14.255   7.997   3.190  0.3072 -0.1411 -0.3453
12664W        W29138   9.350  14.035   5.324  0.1909 -0.1407  0.2455
12665W        W29139   6.514  14.840   0.020  0.0943  0.0161  0.1209
12666W        W29140   5.293  17.490   0.138 -0.1443 -0.1287  0.0274
12667W        W29141   6.438   6.219   3.393  0.5282 -0.3949  0.2046
12668W        W29142   9.125  17.097   9.697 -0.2028  0.3387  0.0395
12669W        W29143  10.393   8.827   2.493 -0.1516 -0.0712  0.0443
12670W        W29144  11.829   7.629   2.895 -0.0865 -0.1562  0.3837
12671W        W29145  15.428   7.996  13.862 -0.0696  0.0617 -0.1523
12672W        W29146  18.638  15.478   5.233  0.1835 -0.0570 -0.2276
12673W        W29147  13.607   5.722   3.548 -0.2375 -0.1115 -0.2649
12674W        W29148  16.252  19.094  13.706  0.0541 -0.0917  0.2670
12675W        W29149  15.836   5.998  13.987 -0.2989 -0.1573 -0.0520
12676W        W29150  13.781  15.587  13.617 -0.1503  0.3682  0.1109
12677W        W29151  16.053  13.065  13.652 -0.1712 -0.0101 -0.3531
12678W        W29152  14.499   7.979   3.847  0.0945 -0.1925 -0.0819
12679W        W29153   2.920  11.298  13.844  0.0516  0.0935 -0.0882
12680W        W29154  10.411   1.976   9.655  0.1173  0.0265 -0.2003
12681W        W29155  10.659  11.341   0.371  0.0711  0.0445  0.0863
12682W        W29156  10.272   4.444  12.536 -0.1422  0.1279  0.2320
12683W        W29157   1.175  14.424   3.422  0.3316 -0.1547 -0.3823
12684W        W29158   4.858  19.379   9.796  0.2297 -0.0296  0.2715
12685W        W29159   1.100  12.171  11.966  0.0139 -0.1507  0.2734
12686W        W29160  10.363   1.160   1.359 -0.1553  0.0249 -0.0795
12687W        W29161  13.316   5.125  12.528 -0.1737  0.1541 -0.3406
12688W        W29162  13.356   1.379   3.528  0.1536  0.1886 -0.1530
12689W        W29163   0.335   6.977  11.056 -0.4615  0.3273 -0.1377
12690W        W29164   6.507  12.901  11.557  0.0746 -0.0776  0.0437
12691W        W29165   8.569  16.895   2.090  0.1622  0.1155 -0.0402
12692W        W29166   4.466   0.987  14.603 -0.0977 -0.0970  0.1572
12693W        W29167  14.976   3.765  12.263  0.1456 -0.3787  0.2071
12694W        W29168   3.853  19.389   4.534 -0.0692  0.0178  0.0069
12695W        W29169  14.853  11.958   4.264 -0.0193  0.3167 -0.1988
12696W        W29170   4.940  11.189   3.709  0.1804 -0.3452  0.0067
12697W        W29171   0.599   7.208  12.881 -0.0135  0.2095  0.2950
12698W        W29172  12.584   8.348  12.988 -0.2308 -0.1091 -0.2404
12699W        W29173  12.853   1.856   0.617  0.1845  0.3417  0.1488
12700W        W29174  11.013  19.102  13.476 -0.1656 -0.0085  0.0529
12701W        W29175   6.235   7.482  13.883 -0.3360 -0.1645  0.0187
12702W        W29176  12.200   7.585  13.085 -0.0108  0.0640 -0.0177
12703W        W29177   0.524   9.571   4.796 -0.0610 -0.1565  0.0951
12704W        W29178  18.743  14.199   3.605 -0.1803 -0.2803  0.0818
12705W        W29179   8.191  12.418  11.278  0.2294 -0.0340  0.0488
12706W        W29180   3.055   7.264  12.474  0.3372 -0.0470  0.1931
12707W        W29181   4.354  14.481   4.204 -0.0429  0.3314  0.2695
12708W        W29182  17.453   1.856  13.006 -0.0718  0.1026 -0.1007
12709W        W29183  17.761  13.301  13.775  0.4597  0.0520 -0.3264
12710W        W29184   1.014  18.363  11.540  0.0043 -0.1580 -0.0578
12711W        W29185   1.280  14.959   2.959 -0.0817 -0.2581  0.0491
12712W        W29186  17.445   4.695  13.710 -0.2333  0.0200 -0.2484
12713W        W29187   6.829   7.817   3.885 -0.1445  0.0813  0.1104
12714W        W29188  14.015  16.008  11.710  0.2754  0.0377 -0.0840
12715W        W29189   0.593   3.555   1.207 -0.0327 -0.2081  0.0679
12716W        W29190   1.273  11.121   2.589  0.0861 -0.1416 -0.0558
12717W        W29191   8.459   0.961   2.349  0.2275  0.1008 -0.0421
12718W        W29192   0.461  10.868   3.398 -0.3675  0.0763  0.0685
12719W        W29193  18.903   5.178   1.798 -0.0922 -0.0531  0.2271
12720W        W29194  18.026   4.479   2.411 -0.2139  0.0762  0.0487
12721W        W29195  16.982  16.629   1.341 -0.0112 -0.0972  0.3145
12722W        W29196  11.946   3.045  11.490 -0.0312  0.2040  0.0046
12723W        W29197  18.662  15.702  11.156  0.1446  0.0407  0.0831
12724W        W29198  11.588  13.292  10.739 -0.2431 -0.0149  0.1292
12725W        W29199  15.434   5.768  12.570 -0.2920  0.0833  0.0634
12726W        W29200  15.821  16.034   4.437  0.0555  0.2370 -0.1832
12727W        W29201  15.569  15.628  11.572 -0.2756 -0.2204 -0.2857
12728W        W29202   6.650  11.285  10.663 -0.1945 -0.0641  0.5228
12729W        W29203   1.287   6.322   4.592  0.0134 -0.2126  0.0374
12730W        W29204   5.338   5.416   2.789 -0.3331  0.3180  0.4681
12731W        W29205  18.575  12.340   9.798  0.0840 -0.1764 -0.1588
12732W        W29206   7.261   9.010   4.196 -0.2646  0.1283  0.0715
12733W        W29207  14.108   6.347   4.939  0.1363 -0.1081  0.3813
12734W        W29208   6.728   4.031  12.033 -0.0430  0.0992  0.0760
12735W        W29209  14.851   0.502   5.030 -0.0842  0.0427 -0.4048
12736W        W29210   8.821   7.761   0.616  0.0992  0.2546  0.0102
12737W        W29211   3.701   4.589   9.992  0.0131 -0.1802  0.0434
12738W        W29212  10.989   5.644   3.172  0.1262 -0.0993  0.0783
12739W        W29213   4.303   8.723  14.319 -0.1651 -0.4601 -0.1050
12740W        W29214   7.674   5.627  10.933 -0.2172 -0.3208  0.1277
12741W        W29215  15.362  16.463   1.697 -0.1193 -0.0677  0.0603
12742W        W29216   4.087   5.603   0.143  0.2621  0.2751  0.1496
12743W        W29217   9.377  15.859  12.354 -0.0091  0.0355 -0.0446
12744W        W29218   3.131  18.758  13.661 -0.1253  0.1548 -0.1642
12745W        W29219   5.815  16.896  11.750 -0.0101  0.3418  0.0843
12746W        W29220  16.053   3.333  14.443 -0.1636  0.2763 -0.0738
12747W        W29221  12.017  16.226   1.921 -0.1932  0.1575  0.1278
12748W        W29222   9.376  13.682  12.789 -0.2098  0.1225 -0.2910
12749W        W29223  12.984  15.580  13.352 -0.2209 -0.1840  0.1284
12750W        W29224  16.651  10.981   3.181  0.2610  0.2465  0.1394
12751W        W29225   5.420  14.509   1.570 -0.1595 -0.0275  0.0033
12752W        W29226  12.383  17.471  10.281 -0.3025 -0.3528 -0.0845
12753W        W29227  19.029   7.129  12.933 -0.1593  0.1176 -0.2119
12754W        W29228   5.601   6.081   2.221 -0.0838  0.0032  0.1399
12755W        W29229   7.366   2.428   2.934  0.2851 -0.2423  0.3358
12756W        W29230   1.945   1.187  13.345 -0.1653  0.2433  0.1884
12757W        W29231   4.111   0.140   3.623 -0.1515  0.0011 -0.1570
12758W        W29232   9.409  11.322   3.598 -0.0815  0.1111  0.0715
12759W        W29233   5.275   4.384  13.540  0.0450 -0.1803 -0.4474
12760W        W29234  12.932  10.880   4.811 -0.2112  0.1272 -0.4932
12761W        W29235  10.273   9.017   2.108  0.0646 -0.1134 -0.2912
12762W        W29236  11.563   7.651   9.335 -0.1678 -0.1982 -0.4782
12763W        W29237  17.098   2.238   2.875  0.0334 -0.1981 -0.0261
12764W        W29238  18.861   1.695   2.919  0.0562  0.0232 -0.0631
12765W        W29239   8.517  14.719   2.552  0.0674 -0.1071  0.1575
12766W        W29240   6.631  10.891   1.349 -0.0401 -0.0274  0.2271
12767W        W29241   3.310  11.817   2.496 -0.0414  0.0490 -0.1320
12768W        W29242  13.245   9.083  12.682 -0.1398  0.0611  0.0406
12769W        W29243  14.570   5.565   4.221  0.3709 -0.0110  0.0006
12770W        W29244  14.813  15.787  12.291  0.2842  0.3205  0.0112
12771W        W29245   7.814   3.862   2.391  0.0957  0.0412  0.0439
12772W        W29246  11.320   2.292  11.762  0.0262  0.1636 -0.2921
12773W        W29247   0.801   4.462   9.454  0.3684 -0.2778 -0.1219
12774W        W29248  15.715  12.640  11.458 -0.0325  0.1618  0.4506
12775W        W29249   1.741  12.694   2.002  0.0810  0.2077  0.0847
12776W        W29250  18.410   3.824  14.390  0.0320 -0.2039 -0.1127
12777W        W29251   7.979   6.246  11.570 -0.2745 -0.1110 -0.1584
12778W        W29252  17.571  12.881  12.830 -0.1096 -0.2427  0.0082
12779W        W29253   7.940  11.275   4.126 -0.4850  0.0694 -0.3566
12780W        W29254  12.324   9.259   1.895  0.0215 -0.3015 -0.0831
12781W        W29255  13.324  15.153   3.106  0.0112 -0.0059 -0.1394
12782W        W29256  15.391  16.881  13.166 -0.2584  0.6181  0.2081
12783W        W29257   9.228  19.083   3.699  0.0592 -0.1548  0.2426
12784W        W29258  15.369  14.456  11.418 -0.6062 -0.1930 -0.2426
12785W        W29259  15.060  17.056  11.172  0.0997 -0.1704 -0.0198
12786W        W29260  15.185  17.243   3.069 -0.1502 -0.1118 -0.3836
12787W        W29261   8.371   4.041  12.229 -0.1826  0.1929 -0.1839
12788W        W29262   1.218  16.075   0.507  0.1094  0.0924  0.0941
12789W        W29263  19.291   5.018   4.046  0.0362  0.1700  0.4289
12790W        W29264   5.924   4.096   2.782  0.0872  0.0534  0.3203
12791W        W29265   1.962  17.982   4.754 -0.1298 -0.0704 -0.0109
12792W        W29266  16.942   6.412   2.104 -0.1711  0.2042 -0.2001
12793W        W29267  12.701  15.673   2.236 -0.1475  0.1727  0.0514
12794W        W29268   9.245  16.889  11.716 -0.3820 -0.0072 -0.1107
12795W        W29269  14.648   8.211   4.778  0.0295 -0.2880 -0.0146
12796W        W29270  14.323  13.711   1.454 -0.1411  0.0104  0.2158
12797W        W29271  10.047  15.755   4.732 -0.2443 -0.4056  0.0422
12798W        W29272   1.067   5.283   3.729 -0.0370 -0.2211 -0.0760
12799W        W29273   9.668   7.739   3.947  0.2184 -0.0587 -0.1408
12800W        W29274  10.285  10.798   5.477  0.0606  0.3836  0.2439
12801W        W29275  12.438  17.885  10.610 -0.0855  0.0657  0.1347
12802W        W29276   5.663   9.910   1.085  0.2152 -0.0814 -0.1851
12803W        W29277  14.788  12.560   1.375  0.2507 -0.0009 -0.2449
12804W        W29278  12.360   9.785  11.803  0.1309  0.2803  0.2243
12805W        W29279   7.480   0.371   4.770  0.3063 -0.0022 -0.0362
12806W        W29280  14.294   9.758   2.130 -0.0001 -0.1654 -0.0594
12807W        W29281   0.968  13.293   0.839  0.0838  0.2069  0.1318
12808W        W29282   1.989  11.908  11.892  0.2331  0.0872  0.0388
12809W        W29283  19.526   0.233   0.616  0.1769 -0.0568  0.1541
12810W        W29284   0.564  17.562   2.233 -0.4004  0.1048 -0.1767
12811W        W29285   8.033   1.361   5.183  0.0916  0.0598 -0.0927
12812W        W29286  14.227  19.149  13.771  0.1564  0.2422 -0.1674
12813W        W29287  16.148   4.128  10.818 -0.1856  0.0264  0.0416
12814W        W29288   1.593   4.506  12.126 -0.1256 -0.0469  0.1809
12815W        W29289  12.150  15.737  13.620  0.2308 -0.2716 -0.0908
12816W        W29290  15.685  18.452  13.334  0.1135  0.0115 -0.2177
12817W        W29291   5.803   6.938   3.399  0.1049  0.3477 -0.0288
12818W        W29292  11.530  13.544   3.387  0.2263 -0.0286 -0.0597
12819W        W29293  18.963  12.864  13.153 -0.0327  0.1117 -0.3200
12820W        W29294   8.667   6.048   2.306  0.0728 -0.1309  0.0827
12821W        W29295   5.432   7.932   5.214 -0.0439 -0.2968 -0.1257
12822W        W29296  14.302   7.187   4.357  0.1052 -0.2765  0.2668
12823W        W29297  11.515  13.881  11.359 -0.1131 -0.3759 -0.6375
12824W        W29298  18.541  12.673  12.399  0.1021  0.0298  0.1191
12825W        W29299   7.487   8.743   1.903  0.0441 -0.0461  0.2819
12826W        W29300   4.134  17.646  13.759 -0.1395  0.2496 -0.0006
12827W        W29301  15.475  14.669   1.425  0.1762 -0.0349  0.0741
12828W        W29302   2.981  13.943   1.422 -0.0875  0.0205 -0.3081
12829W        W29303  11.772  17.759  14.131 -0.0927  0.1650  0.3315
12830W        W29304   7.690   3.355  14.025  0.2071 -0.1189  0.1350
12831W        W29305  16.566  14.593  10.620 -0.1987 -0.2096 -0.1679
12832W        W29306  17.791   3.084  13.910  0.0168 -0.0588 -0.0498
12833W        W29307   1.013  11.036   1.827  0.4299  0.1055  0.1071
12834W        W29308   8.097   7.602   3.950 -0.0895  0.0492 -0.1311
12835W        W29309   6.188   7.999  11.952  0.3168 -0.0165  0.1126
12836W        W29310   7.549   9.404   3.664  0.1901 -0.1740  0.0808
12837W        W29311  18.308   0.720   2.774 -0.0659 -0.1142  0.0206
12838W        W29312  15.314  15.696   0.944 -0.1950 -0.0675 -0.2166
12839W        W29313  14.986   7.226  12.690  0.1165  0.0934  0.4046
12840W        W29314   4.945  16.268  13.310 -0.0210  0.0944 -0.1312
12841W        W29315  11.602   5.174  14.668  0.1322 -0.0020  0.1335
12842W        W29316  11.589   8.673  14.264  0.2009  0.0785  0.1185
12843W        W29317   0.752  11.020  14.460  0.0479  0.1917 -0.1326
12844W        W29318   1.986  16.445   9.504 -0.1255  0.0923  0.1005
12845W        W29319  16.404   8.725  12.041 -0.0615 -0.0447  0.1980
12846W        W29320   0.633  12.754   0.049 -0.4163 -0.0194 -0.2897
12847W        W29321  13.912   3.769   2.097  0.1626 -0.2685 -0.0405
12848W        W29322   8.654   4.534  13.777 -0.0154 -0.1586  0.2893
12849W        W29323  18.026   2.480   0.391 -0.0882  0.1939  0.0160
12850W        W29324   4.184   4.088   2.063  0.3387  0.2424  0.1985
12851W        W29325  12.254  18.509   3.562 -0.0319 -0.1803  0.0454
12852W        W29326  13.145  12.764   5.354  0.1236 -0.1614  0.1770
12853W        W29327  19.067  12.010  11.524 -0.1075 -0.0422  0.2783
12854W        W29328   0.140   0.284  11.133 -0.0317  0.1224 -0.0483
12855W        W29329   0.879   4.460   0.595  0.0409  0.1682  0.0092
12856W        W29330   0.466  17.551   0.628 -0.1227  0.1017  0.2839
12857W        W29331   4.187  18.079  10.361 -0.1205 -0.0752 -0.0295
12858W        W29332   6.325   3.507  10.796 -0.3959  0.0610  0.1718
12859W        W29333  14.699   1.143   0.005  0.2075  0.0642 -0.1647
12860W        W29334   7.108  19.265   2.133  0.1106 -0.0694 -0.0298
12861W        W29335   5.790  11.413  14.210  0.0231 -0.1384 -0.0022
12862W        W29336  11.737  13.153  13.881 -0.1186 -0.0963 -0.0593
12863W        W29337   0.077   2.439   4.752 -0.0789 -0.1591  0.4450
12864W        W29338  17.345  16.110  13.303  0.3294  0.0450 -0.2563
12865W        W29339  10.025  13.429  14.337  0.0054 -0.1237  0.1680
12866W        W29340  10.917  19.428  14.137 -0.1484 -0.1523  0.1490
12867W        W29341   3.286  17.764   4.180  0.1893  0.0519  0.2399
12868W        W29342  18.089   4.131  14.087 -0.3226 -0.1147  0.1260
12869W        W29343   2.831   7.740  10.854  0.1199 -0.0141  0.1316
12870W        W29344  13.789   7.528   4.409  0.0617 -0.2173 -0.1633
12871W        W29345  15.165   7.949  14.419  0.0988  0.0774  0.0727
12872W        W29346   3.070   1.929   4.763  0.0400 -0.0335  0.2603
12873W        W29347   0.962   1.063   3.556 -0.1944  0.0788 -0.1358
12874W        W29348   0.022   1.321   2.467  0.1630  0.0452 -0.0232
12875W        W29349  16.888   0.978   3.764  0.0036 -0.3092 -0.4043
12876W        W29350  16.835   5.413  10.676  0.0738  0.2578 -0.2306
12877W        W29351   0.844  12.983   2.094 -0.1320  0.1579  0.1917
12878W        W29352  12.738   5.628   1.428  0.0689  0.1296 -0.1481
12879W        W29353   1.900   0.205  14.408 -0.3021 -0.0100 -0.0066
12880W        W29354  17.297   1.713   3.000 -0.0651  0.1766  0.1806
12881W        W29355   2.688   7.124   0.584 -0.0756  0.1239  0.0052
12882W        W29356  17.611   0.989  12.532  0.1285  0.4249 -0.2506
12883W        W29357  16.998   3.150  12.723  0.3288 -0.0889 -0.1821
12884W        W29358  10.344  19.146   5.894  0.1627  0.2719 -0.0625
12885W        W29359  11.201  11.365   3.915  0.2351  0.1548 -0.3276
12886W        W29360   8.973   3.374   0.743  0.1246 -0.2407  0.1526
12887W        W29361  17.841   5.431  14.519  0.0089 -0.2726  0.3044
12888W        W29362   6.408   1.258   0.855 -0.0325  0.0470 -0.0188
12889W        W29363  12.469   9.738   0.838  0.0865  0.2253 -0.2471
12890W        W29364  10.756   4.369  13.539 -0.5951 -0.2602 -0.0297
12891W        W29365  16.145  17.711  13.656 -0.0378  0.4603 -0.4003
12892W        W29366   3.932  15.375   3.448 -0.0733  0.3545 -0.0855
12893W        W29367   6.659  11.495   2.976  0.0730 -0.0611 -0.0218
12894W        W29368   2.425  19.574  12.888 -0.2221  0.0450 -0.2335
12895W        W29369   3.114   2.653   1.103  0.1036  0.2845  0.0812
12896W        W29370   2.009   6.121  12.947 -0.2456  0.0452  0.1692
12897W        W29371  16.099  11.609  10.877 -0.0336 -0.1486 -0.1515
12898W        W29372   9.529   1.346   4.306  0.0876 -0.0461 -0.0445
12899W        W29373   6.867   3.848   5.306  0.0870 -0.2191 -0.2316
12900W        W29374   1.902   6.263   0.698 -0.1802 -0.0919  0.0254
12901W        W29375  19.489   4.066  11.258  0.1352 -0.0275 -0.0594
12902W        W29376   4.978   8.042   5.413  0.0382  0.2606 -0.0481
12903W        W29377  14.841   4.707   3.309  0.4332 -0.0956  0.2726
12904W        W29378  17.355  10.810   1.903 -0.2831  0.0229 -0.1407
12905W        W29379   5.790   7.512   4.550  0.1233 -0.0061  0.1060
12906W        W29380   0.584   3.103  14.601  0.1820 -0.2435  0.1075
12907W        W29381  12.988  16.801   3.485  0.0790  0.0498 -0.0543
12908W        W29382  15.625  12.589  13.563 -0.1238 -0.1191 -0.0113
12909W        W29383  13.245  16.410  11.706 -0.1616 -0.1687 -0.0102
12910W        W29384  13.651  16.991   4.341  0.3712 -0.2284  0.1508
12911W        W29385  12.363   4.104  13.355  0.1038  0.1348 -0.0055
12912W        W29386   7.854   4.999   0.377  0.0329  0.3601 -0.0745
12913W        W29387  12.474  12.253  10.955 -0.1667 -0.2064  0.0145
12914W        W29388   3.412   2.166   4.957 -0.1656  0.0106  0.0467
12915W        W29389   4.083   6.255   2.232 -0.3001  0.0660  0.3217
12916W        W29390   1.133   6.587   3.090 -0.2678  0.1714 -0.1221
12917W        W29391   3.339   7.888   0.208 -0.2566  0.4159 -0.1634
12918W        W29392  18.615   2.121   0.798  0.3070 -0.5051 -0.5560
12919W        W29393  12.753   5.875   4.004  0.1074 -0.2529 -0.0810
12920W        W29394   1.594   3.751  11.725 -0.1960 -0.1700 -0.1006
12921W        W29395   7.968  10.261   2.762 -0.0999  0.1504 -0.0684
12922W        W29396   9.679   4.609  10.683  0.0450  0.0644  0.4908
12923W        W29397  13.554   7.535   3.943 -0.0082 -0.1493 -0.0686
12924W        W29398  12.045  18.134  10.885  0.3420  0.1551  0.4299
12925W        W29399   0.272   4.210  13.797  0.0248  0.3148  0.0565
12926W        W29400   3.975  16.262  12.982  0.0596  0.0244 -0.2036
12927W        W29401  19.223   7.492  11.511  0.1301  0.0799 -0.0143
12928W        W29402   3.475  13.384  11.871  0.2046 -0.2433  0.1024
12929W        W29403  17.398  12.232   1.094  0.3442  0.0138  0.2482
12930W        W29404   3.577   9.502  11.219 -0.0830 -0.1220 -0.2154
12931W        W29405  17.209   1.010  13.922 -0.0115  0.0271  0.2716
12932W        W29406   6.608  17.884   9.244  0.3205  0.1232  0.2422
12933W        W29407  13.753   5.679   0.963 -0.1031 -0.0991  0.0157
12934W        W29408   0.043   6.197   5.522 -0.0521 -0.0983  0.1959
12935W        W29409  11.163   1.905   5.580  0.4692 -0.0435 -0.1332
12936W        W29410   9.823   9.195  12.005  0.0590 -0.1187  0.1536
12937W        W29411  11.753  16.927  12.361 -0.0186 -0.2503  0.0409
12938W        W29412   8.004   8.108   1.728  0.1550 -0.2543  0.3562
12939W        W29413   3.483  18.816   1.093  0.1364 -0.0229  0.1426
12940W        W29414  18.660   7.209   4.793 -0.0796  0.3840  0.0114
12941W        W29415   1.032  14.458   4.518 -0.1453 -0.0470  0.1965
12942W        W29416   0.365  16.611  14.642  0.1869  0.0520  0.0797
12943W        W29417   8.849   1.481   5.135  0.4870 -0.4029  0.1317
12944W        W29418   5.367  17.423   1.810 -0.1022 -0.0723 -0.2759
12945W        W29419   7.179   9.294  14.272 -0.2761 -0.2876 -0.3782
12946W        W29420   3.910   9.467  10.832  0.0329  0.4157  0.1374
12947W        W29421   7.767   0.037   1.297  0.0871  0.2412 -0.0292
12948W        W29422   4.247  19.318   9.665  0.0882  0.1215 -0.2406
12949W        W29423   0.622  10.445   3.607 -0.1780  0.3177  0.2511
12950W        W29424   5.387   9.036   0.639  0.0649 -0.0637  0.1033
12951W        W29425   9.914   5.817   2.199  0.0947 -0.2322 -0.0472
12952W        W29426   4.425   7.772  12.608 -0.0376 -0.0788  0.0414
12953W        W29427   6.757   0.743  12.115 -0.0044 -0.0430  0.0787
12954W        W29428   8.979  14.599  10.104  0.2202 -0.0004 -0.0079
12955W        W29429  10.392  13.986  11.045  0.1366 -0.1354 -0.1153
12956W        W29430   7.841  15.083  13.617 -0.2862 -0.1000  0.1211
12957W        W29431  11.305  13.236  12.068  0.1764  0.0936 -0.2172
12958W        W29432  14.442  13.798   3.833  0.1679  0.0068 -0.2470
12959W        W29433  18.691  12.559  10.562 -0.0644  0.2660 -0.1358
12960W        W29434   8.390   4.984   1.958 -0.3052 -0.1376 -0.0033
12961W        W29435   5.452   3.054  12.517  0.1789  0.0514 -0.0040
12962W        W29436  10.134  14.384  11.965 -0.2023 -0.1549  0.2790
12963W        W29437  14.300  14.940   4.177 -0.2196 -0.3438  0.1816
12964W        W29438  10.738   8.456  11.567  0.1154 -0.0710  0.1814
12965W        W29439   0.846   4.659  10.369 -0.0074 -0.1131 -0.0835
12966W        W29440   0.749  15.875  13.272 -0.1109  0.0559 -0.0181
12967W        W29441  10.304  12.717   4.899 -0.1183 -0.0045  0.0129
12968W        W29442   1.185  17.178   1.121  0.1719  0.1424  0.1531
12969W        W29443   0.706  13.330   0.162  0.4095 -0.3181 -0.1615
12970W        W29444  18.320  11.649   5.318 -0.1592 -0.3447 -0.1558
12971W        W29445   4.470   7.606  13.247 -0.3596  0.0230 -0.1399
12972W        W29446   6.039   2.439   4.986  0.0221  0.1148  0.4799
12973W        W29447   9.830   0.177   9.687 -0.0393  0.3229  0.2148
12974W        W29448  13.657   1.794   0.854 -0.0423  0.1372 -0.6727
12975W        W29449   0.200   6.160   0.812 -0.2933  0.2424 -0.0686
12976W        W29450   3.212   9.185   4.228 -0.1740 -0.0116 -0.0187
12977W        W29451   7.863   1.685  10.705  0.1822 -0.2354 -0.2330
12978W        W29452  16.303   1.728   0.597 -0.3513 -0.1650  0.4083
12979W        W29453   6.477  13.906  10.047 -0.0735 -0.2696  0.0571
12980W        W29454  16.074  16.040   3.998 -0.2728  0.2995 -0.1974
12981W        W29455  16.106  13.945   3.886  0.2132  0.0522  0.3845
12982W        W29456   4.217  11.322   4.668  0.2105 -0.1411 -0.1148
12983W        W29457   2.242   6.603  13.145  0.1291 -0.1402 -0.1914
12984W        W29458   6.275   1.855   1.490  0.0000  0.3387 -0.0606
12985W        W29459  18.159   2.035  13.630 -0.1381 -0.0798  0.0999
12986W        W29460  13.915  11.974  11.488 -0.0393 -0.1519 -0.1648
12987W        W29461  16.223  17.832   3.857  0.1974  0.0475  0.1843
12988W        W29462   1.694   4.155  12.546 -0.0300  0.0825  0.0794
12989W        W29463   9.778  15.940   4.084  0.2307  0.1095 -0.2630
12990W        W29464  14.699   0.518   4.099  0.1415 -0.0474  0.1279
12991W        W29465  14.216  14.320   3.828 -0.3155 -0.2171 -0.2903
12992W        W29466   0.788   8.208   3.021 -0.0105  0.3294  0.0405
12993W        W29467   3.334  12.049  12.838 -0.1301 -0.1159  0.0309
12994W        W29468  13.008  13.417   1.131 -0.1640  0.0070 -0.2871
12995W        W29469  10.819  17.383  12.668 -0.2227  0.1537 -0.0778
12996W        W29470   2.965   6.535   1.861 -0.2009  0.0663  0.2349
12997W        W29471  16.921  14.909   3.644 -0.0966  0.1821 -0.0924
12998W        W29472  16.435   2.780   1.775  0.0112 -0.0602  0.1384
12999W        W29473   2.463  16.665  14.511  0.0123 -0.2321 -0.0407
13000W        W29474  13.214   7.196   1.471  0.4199  0.0636 -0.1601
13001W        W29475  10.503   5.252  14.572 -0.1309 -0.0306 -0.1198
13002W        W29476  15.654   5.659  13.008  0.4856  0.0935 -0.1238
13003W        W29477   7.705  14.784  10.796  0.0725 -0.3160 -0.2357
13004W        W29478   8.008   2.919  12.783  0.0677 -0.2175  0.3233
13005W        W29479  11.971   4.082   0.921 -0.1123  0.0473 -0.0668
13006W        W29480  10.442   3.498  10.230  0.0513 -0.0705 -0.0239
13007W        W29481   6.832  17.757   2.404 -0.1401 -0.1497  0.0345
13008W        W29482   1.694  11.205  13.679 -0.0933 -0.0161 -0.1188
13009W        W29483   6.958   6.727  11.409 -0.0926 -0.0562 -0.0035
13010W        W29484  12.450  13.814   0.797 -0.3513  0.0324 -0.3552
13011W        W29485  10.315  12.761   2.316 -0.2286  0.0594 -0.1044
13012W        W29486  12.660   4.625  14.617  0.1110  0.2320 -0.0011
13013W        W29487  10.114   6.769  13.741 -0.0199  0.0192 -0.2488
13014W        W29488   8.768   4.201   2.759  0.2104  0.3572  0.2641
13015W        W29489  16.831   2.404  10.989  0.1890 -0.4607 -0.0042
13016W        W29490   8.580  19.236   2.299 -0.0759 -0.1749 -0.1418
13017W        W29491   2.449  12.125  12.610 -0.0722  0.2523 -0.2424
13018W        W29492   7.635  19.127  13.835 -0.0094 -0.0196  0.0926
13019W        W29493   5.506   8.350   1.116 -0.0273 -0.0503  0.0392
13020W        W29494  12.571  14.530   3.454  0.1526  0.2130 -0.4578
13021W        W29495  16.445   7.572   1.863 -0.1377  0.1259 -0.1648
13022W        W29496  13.503  12.229   2.181 -0.1859 -0.0278  0.1406
13023W        W29497   8.638  16.951   3.636  0.0295  0.1764 -0.0378
13024W        W29498   0.696   2.227  14.154 -0.1877  0.0211 -0.1117
13025W        W29499  10.652   4.769  12.411  0.1609 -0.1741  0.0464
13026W        W29500   6.818  17.631  12.025  0.1443  0.4798  0.0254
13027W        W29501  16.516   6.196  10.442 -0.0905  0.1951 -0.1477
13028W        W29502   6.987   4.377   5.441  0.3488  0.1700 -0.0194
13029W        W29503   8.395  12.264  14.282  0.1815 -0.0907 -0.0075
13030W        W29504   4.243  13.016  11.660 -0.0141 -0.0815 -0.0503
13031W        W29505   1.213  16.165  14.424  0.0975 -0.2286 -0.0180
13032W        W29506   8.367   5.683   2.655  0.2393 -0.1606  0.1732
13033W        W29507  14.078  10.916   3.481 -0.0520 -0.1345 -0.1795
13034W        W29508  14.023  11.824   3.768  0.0838  0.3203  0.1568
13035W        W29509  12.211  15.333  14.473 -0.0359 -0.0507  0.2372
13036W        W29510   5.573  18.967  12.867  0.1920  0.0364  0.2756
13037W        W29511  15.468  17.123  12.085  0.2004 -0.7074  0.0676
13038W        W29512  13.047  10.207   1.124 -0.0356 -0.0722  0.2138
13039W        W29513   0.800   6.460   0.100  0.1469  0.1902 -0.2408
13040W        W29514   0.502   7.672  13.282  0.0262 -0.0012  0.3544
13041W        W29515   9.905  17.775   3.421  0.5063 -0.0692  0.0599
13042W        W29516   0.282   4.004   3.258  0.2423  0.1514 -0.3077
13043W        W29517  17.236   7.205  14.646 -0.1517 -0.1450 -0.0236
13044W        W29518  16.691  10.658   9.294  0.0687  0.2304 -0.1115
13045W        W29519  18.744   0.269   1.159  0.0889  0.4301 -0.0271
13046W        W29520   9.593   2.615   0.677  0.0941 -0.2055 -0.1021
13047W        W29521  19.269  11.631  11.065  0.1759  0.0533  0.1027
13048W        W29522  14.913   7.206   3.615 -0.0760 -0.0311 -0.2315
13049W        W29523  13.554  12.043  13.306  0.0715 -0.3256 -0.2566
13050W        W29524  17.353   4.399   5.152  0.1555  0.1789  0.1756
13051W        W29525  14.748   4.987   0.359 -0.0931  0.0464  0.1305
13052W        W29526   4.875  14.025  14.269 -0.3188  0.1067  0.0014
13053W        W29527   5.746   1.492   3.178  0.0090 -0.3085  0.0240
13054W        W29528   5.203  19.460   1.037 -0.1219  0.0011 -0.0883
13055W        W29529  16.832  17.440   2.192 -0.0786  0.2514 -0.1051
13056W        W29530  13.692  18.674   2.272  0.0140  0.2425 -0.3715
13057W        W29531   3.931   7.107  10.648 -0.1539 -0.0138  0.2172
13058W        W29532   2.178  16.712   2.146 -0.0723 -0.0042 -0.1871
13059W        W29533   8.617   6.675  13.505  0.0320  0.1962 -0.0295
13060W        W29534  18.083   1.839   3.421  0.0135  0.2180  0.1327
13061W        W29535   1.292  17.392  13.656 -0.1639 -0.2102  0.2121
13062W        W29536   5.999  17.233  13.986 -0.1019 -0.1232  0.2641
13063W        W29537   7.341  18.379   0.837  0.0595  0.1272  0.1231
13064W        W29538   1.289  14.538   1.147  0.1182  0.0055  0.0132
13065W        W29539  17.735   8.388   1.833 -0.0786 -0.0750 -0.0578
13066W        W29540   9.634   4.962  14.179  0.1973 -0.0464  0.0915
13067W        W29541  12.093   9.687   3.512 -0.2696 -0.2508 -0.0177
13068W        W29542  13.859   7.491   2.662  0.1784 -0.0874  0.1175
13069W        W29543  12.189  15.075   4.920 -0.0773  0.1028 -0.3981
13070W        W29544  14.107  10.753   4.037 -0.0584 -0.1676 -0.3847
13071W        W29545  18.687  16.332   3.716  0.0078  0.0727 -0.1255
13072W        W29546  17.745   1.432   5.338  0.0493  0.0284  0.0131
13073W        W29547  16.829  17.166   2.833 -0.5674  0.1313  0.1750
13074W        W29548  12.150   3.580  12.066 -0.0737 -0.0861 -0.0871
13075W        W29549   1.501   4.563  13.749  0.0171  0.0049  0.0241
13076W        W29550   2.407   2.688   0.008  0.1646 -0.2278 -0.1304
13077W        W29551   6.138  14.827   3.518 -0.1487 -0.1137  0.2745
13078W        W29552   2.022  12.042   3.751 -0.1942 -0.2882 -0.2417
13079W        W29553  17.626  13.707  13.312  0.1228 -0.0918 -0.0335
13080W        W29554  12.571   9.080   2.700 -0.2281 -0.2412  0.2576
13081W        W29555   1.865   8.588  11.168  0.0872  0.1067 -0.1644
13082W        W29556  10.337  12.442   2.729  0.1605  0.1796 -0.1580
13083W        W29557  12.950   3.346  11.798  0.0475 -0.0722 -0.0939
13084W        W29558  13.834   5.009   5.245  0.0509 -0.1111  0.0677
13085W        W29559   4.847   4.393   2.133 -0.1282  0.1411  0.0206
13086W        W29560  15.572   4.729   5.546 -0.1442 -0.1154 -0.0281
13087W        W29561   1.357  15.763   3.316 -0.0526 -0.2298  0.1133
13088W        W29562   9.327  10.981   2.780 -0.2916  0.0516 -0.0340
13089W        W29563  18.467  17.895   0.852  0.1087  0.0758 -0.1587
13090W        W29564  12.525  13.660  12.698  0.2260  0.0638 -0.3824
13091W        W29565   8.442   2.524   1.838  0.1384  0.4669 -0.0915
13092W        W29566  14.944   0.605  10.929 -0.1980  0.1191 -0.0057
13093W        W29567  12.129   3.647   4.200  0.1100 -0.1487 -0.1870
13094W        W29568   0.868   8.580  12.324 -0.0045  0.0507  0.0021
13095W        W29569   1.534  17.842   2.330 -0.2046  0.1303 -0.2056
13096W        W29570  17.764  12.751   2.797 -0.0222 -0.2511  0.0727
13097W        W29571   6.140   3.571   0.163 -0.4919  0.3103 -0.1472
13098W        W29572   3.711   1.799   0.015 -0.1275 -0.0752  0.0725
13099W        W29573  11.165  15.227  12.313 -0.3709 -0.2076  0.0911
13100W        W29574   7.692   2.419  11.979  0.1393 -0.0153 -0.1749
13101W        W29575  13.729  17.939   2.923  0.0886  0.1278 -0.2369
13102W        W29576   5.244  15.499  10.199  0.2566 -0.0860 -0.1005
13103W        W29577  12.479   8.118   3.618 -0.2535 -0.1543 -0.0724
13104W        W29578   1.974   8.087  12.750 -0.0665  0.0245 -0.0599
13105W        W29579  14.183  15.547   4.161  0.2583 -0.1257 -0.3336
13106W        W29580  16.224   6.439  13.976 -0.2618  0.0743  0.1204
13107W        W29581  19.359  18.826  10.296  0.1708  0.1359  0.0462
13108W        W29582  15.124  12.598  13.818 -0.2446  0.0314  0.0013
13109W        W29583   5.523   7.082  11.304 -0.3471 -0.1214  0.1202
13110W        W29584   2.790  12.793  11.484 -0.2519 -0.1931 -0.2557
13111W        W29585  19.248  18.231  13.900  0.0738 -0.0690 -0.0385
13112W        W29586   4.242  13.565  12.389  0.0201  0.2037 -0.4190
13113W        W29587  15.326  15.923   4.924  0.0762  0.1553 -0.1807
13114W        W29588  12.730  18.099   4.694 -0.0099  0.1587  0.1142
13115W        W29589   4.390   0.817  11.183 -0.2403  0.0327  0.2190
13116W        W29590  11.834   0.970   9.881 -0.1649  0.0055 -0.3711
13117W        W29591  13.115   2.133  10.094  0.2435 -0.4374  0.0570
13118W        W29592   8.157   0.250  14.229 -0.1195  0.1819 -0.0230
13119W        W29593   5.161  16.425   4.958  0.2623  0.0485 -0.0282
13120W        W29594   7.611  16.703  13.078  0.1409 -0.1604  0.1464
13121W        W29595   6.352   3.508  13.312  0.1015  0.0390 -0.2290
13122W        W29596  12.515   5.434  14.363  0.1227 -0.1402 -0.2290
13123W        W29597   3.659   1.454   3.678  0.1412 -0.0183 -0.0870
13124W        W29598  14.524   4.954   0.878 -0.1790  0.1110 -0.1112
13125W        W29599  10.368   4.910  10.653  0.1723 -0.2600 -0.2480
13126W        W29600  11.191   0.128   4.015  0.2925  0.1842  0.0991
13127W        W29601   2.060   5.408  13.969  0.2946 -0.0961  0.1456
13128W        W29602  17.520   0.503  11.635  0.2721  0.0476 -0.3080
13129W        W29603   0.289   8.426   4.478  0.2633 -0.1949  0.0541
13130W        W29604   7.000  18.581  11.807  0.4101 -0.3060 -0.3538
13131W        W29605   5.797   3.873  14.128 -0.0745  0.1133 -0.1435
13132W        W29606   2.296   5.140   2.861 -0.1509  0.2177  0.1703
13133W        W29607   7.660  14.665  10.240 -0.0611  0.2535  0.3222
13134W        W29608  13.703   8.555  13.326  0.0301 -0.0058  0.0592
13135W        W29609   6.231   0.618   1.534 -0.1878 -0.2439  0.1127
13136W        W29610   4.789  14.465   9.554 -0.3600  0.1352  0.1463
13137W        W29611  11.322  16.479  11.078 -0.0777  0.1404 -0.1544
13138W        W29612   0.791  18.946   0.948 -0.5175  0.1576  0.0852
13139W        W29613   0.906   2.403  14.526  0.1231 -0.3505 -0.1074
13140W        W29614  11.179  12.998  11.564 -0.4152  0.1181  0.0573
13141W        W29615   1.946  13.116   2.370 -0.2915 -0.1004 -0.3359
13142W        W29616  14.806   6.312  11.470 -0.2348 -0.3119  0.0903
13143W        W29617  18.367   4.875   0.222 -0.0905  0.1743 -0.1062
13144W        W29618  16.066  16.543   3.689  0.0124  0.1397 -0.2989
13145W        W29619  13.882   0.091   1.400  0.5188  0.3722 -0.0671
13146W        W29620   0.646   9.941  13.104  0.1582  0.1357 -0.1414
13147W        W29621  13.700   3.370   0.117  0.2901 -0.1440 -0.0303
13148W        W29622  10.666  15.269   1.851 -0.2019  0.1567  0.0560
13149W        W29623   1.569   9.896   0.615 -0.1248  0.0828  0.0149
13150W        W29624  14.918   3.976   1.476 -0.1853 -0.3608 -0.1153
13151W        W29625   4.009  14.721  10.099 -0.1955 -0.0864 -0.0212
13152W        W29626   1.405  17.915  13.560  0.2954  0.1682 -0.0197
13153W        W29627  18.187   6.739  11.499  0.3506  0.0247  0.0009
13154W        W29628  12.870   4.594   5.020 -0.2290  0.1464 -0.1184
13155W        W29629  12.857   3.782  11.049 -0.1903 -0.0632 -0.0621
13156W        W29630  12.794  15.130  11.816  0.0267 -0.0639 -0.3208
13157W        W29631   6.723  10.408  11.789  0.0245  0.0958 -0.0252
13158W        W29632  14.491  14.696  11.228 -0.2516 -0.1937  0.2620
13159W        W29633  19.526  10.674   1.310  0.0218  0.0354 -0.1646
13160W        W29634  18.270  10.449   2.862  0.2799  0.1020  0.1755
13161W        W29635  14.217  13.292   2.258  0.1107 -0.0480 -0.2843
13162W        W29636   0.775  18.500  14.630 -0.0203 -0.1086 -0.0010
13163W        W29637  12.041  14.664   4.559 -0.4089 -0.0801 -0.0016
13164W        W29638  14.916   9.615   3.105  0.1859  0.2022  0.3179
13165W        W29639   2.654   0.690   0.665  0.1014  0.3882 -0.0368
13166W        W29640   8.793   4.154  14.237  0.1345  0.0238 -0.2013
13167W        W29641   9.268   5.147   2.024  0.0023 -0.1355  0.1647
13168W        W29642   8.122   1.151   3.143  0.1447  0.2922 -0.0902
13169W        W29643  17.867  13.793   2.350  0.3080  0.0345  0.0840
13170W        W29644  18.660  10.978   1.113 -0.1472 -0.1682 -0.2140
13171W        W29645   4.982   2.314  11.383 -0.1162  0.0634 -0.0310
13172W        W29646   4.192  18.189   2.302 -0.1399  0.1234 -0.0663
13173W        W29647   2.494   8.444  12.628  0.2846  0.4160  0.0156
13174W        W29648  17.865  16.041   3.770  0.1039 -0.2082 -0.0437
13175W        W29649   2.610   2.974  13.418  0.0065 -0.2000  0.1560
13176W        W29650  10.258  11.842   2.368 -0.4235 -0.1572  0.0729
13177W        W29651  13.362   0.031   1.949  0.2462  0.0323 -0.4103
13178W        W29652  11.244   5.356  11.291 -0.0807  0.4052  0.0392
13179W        W29653   5.035  13.897  12.575  0.2663 -0.1318  0.1737
13180W        W29654   3.824  15.265   1.883 -0.2603 -0.2784 -0.0685
13181W        W29655   1.647   8.629   2.653  0.1914  0.0357  0.2411
13182W        W29656   7.035   9.867   0.198 -0.0817 -0.0092 -0.1505
13183W        W29657   6.669  10.183   9.728 -0.3032  0.1214  0.1765
13184W        W29658   8.640  11.140   1.971  0.1023 -0.1249 -0.2976
13185W        W29659  10.075  15.367  13.163 -0.1296 -0.0725 -0.1164
13186W        W29660  17.008   3.707  12.302 -0.0253 -0.1422  0.3269
13187W        W29661  12.846   5.001  12.907 -0.1199  0.0473  0.1348
13188W        W29662  12.903   2.624  11.998 -0.2967  0.1100 -0.0539
13189W        W29663   4.702  10.505   4.341 -0.1602  0.1209 -0.0462
13190W        W29664  11.511   3.791   0.904  0.0926 -0.1417  0.1391
13191W        W29665  18.119   9.294   4.767 -0.2359 -0.6335 -0.0816
13192W        W29666  16.489   4.814   2.797  0.0348 -0.3019 -0.0669
13193W        W29667   6.562   1.630  10.282 -0.4174 -0.1469  0.1623
13194W        W29668   1.705  14.550   0.913 -0.0191 -0.2096  0.0807
13195W        W29669   3.372   2.974   0.768  0.2103  0.1922 -0.0434
13196W        W29670   8.530  14.877  10.305 -0.2336 -0.1037 -0.2201
13197W        W29671   5.516  18.030  11.192 -0.2716 -0.0337  0.3630
13198W        W29672   2.730  16.653  12.896  0.1490 -0.1146  0.0525
13199W        W29673  10.664   4.679   3.206 -0.0136 -0.0294  0.0191
13200W        W29674   7.386   8.464  13.723 -0.3077  0.1219 -0.2359
13201W        W29675   3.777  14.443   9.750 -0.3017  0.1335  0.1272
13202W        W29676  10.935  10.482   4.871 -0.0968  0.0879  0.1575
13203W        W29677   9.310  10.558   4.707  0.0752 -0.4724  0.0595
13204W        W29678   0.226  11.273  12.690 -0.0431  0.3316  0.0121
13205W        W29679  17.960   6.986   2.854 -0.0570  0.3579  0.0313
13206W        W29680   8.846   2.309  10.007  0.2107  0.0613 -0.0058
13207W        W29681   9.508   6.442  13.194 -0.1022  0.1388 -0.0926
13208W        W29682  12.955   0.697  11.005 -0.0537  0.1652  0.1897
13209W        W29683  17.497   6.272  10.671  0.0224 -0.1712  0.0051
13210W        W29684   7.735   4.815  13.788  0.1529  0.0070 -0.1077
13211W        W29685   5.935  16.711   1.075  0.3747  0.0026  0.0732
13212W        W29686  12.966   0.079   5.435  0.1795 -0.2492  0.0800
13213W        W29687   7.372  17.541  13.047  0.0244  0.0385  0.1267
13214W        W29688  17.511  13.491   1.753  0.3263 -0.0882  0.2074
13215W        W29689   6.322  16.386  12.161  0.0643  0.2126 -0.1681
13216W        W29690   6.928  17.409   1.860  0.1614 -0.1175 -0.0439
13217W        W29691  12.322   2.876  12.707  0.0698  0.1422  0.1434
13218W        W29692  16.581  10.719   2.523  0.2388  0.1795 -0.2971
13219W        W29693   8.291  15.359   3.182  0.0432 -0.0519  0.2257
13220W        W29694  19.498   9.788   2.997  0.2127 -0.0234 -0.3153
13221W        W29695   5.731   7.512  10.865 -0.2498 -0.0234  0.3014
13222W        W29696  16.941  18.417   3.056  0.1983  0.1746  0.3419
13223W        W29697   1.427  12.376  10.109  0.0020 -0.0384  0.2831
13224W        W29698   4.786   8.744  12.190 -0.0269 -0.2810  0.2536
13225W        W29699  18.973  17.502   1.390 -0.2011  0.7164  0.2510
13226W        W29700   1.428   6.122  12.005 -0.2806 -0.0140 -0.2164
13227W        W29701   0.079  14.508  13.176  0.0428 -0.1213  0.0468
13228W        W29702   2.260   8.019   1.967 -0.1339 -0.1643  0.2198
13229W        W29703   9.175   1.134   3.501  0.3106 -0.1303  0.2512
13230W        W29704   8.477   0.416   1.895 -0.2779  0.0471  0.0019
13231W        W29705  10.450   0.867  10.352 -0.0205 -0.3199  0.0046
13232W        W29706  16.857   8.411   0.589  0.2184  0.0047  0.0170
13233W        W29707   0.641   7.595   4.079 -0.1099  0.1557  0.0704
13234W        W29708   4.394   8.357   3.751 -0.0314 -0.0416  0.1578
13235W        W29709  14.165  11.349   2.886  0.3065  0.3075  0.1084
13236W        W29710   3.811   9.977   1.299  0.0679  0.0750 -0.0580
13237W        W29711   0.826  14.175   2.249 -0.0330  0.1694 -0.1789
13238W        W29712   2.623   0.227   0.169 -0.0660  0.2123 -0.0280
13239W        W29713  11.562  14.424  11.349 -0.3073 -0.2317  0.2648
13240W        W29714   1.269   0.271   5.198 -0.2870  0.2444  0.1664
13241W        W29715   0.857  17.483   1.583  0.1155 -0.2077  0.1474
13242W        W29716  13.524  16.060   2.438 -0.3129 -0.0128 -0.2346
13243W        W29717  15.814   5.882   4.851 -0.0591 -0.1788  0.0802
13244W        W29718  13.566   3.755   1.255  0.1020  0.0163  0.1230
13245W        W29719   2.218  14.989   1.006 -0.0420 -0.1693 -0.3565
13246W        W29720  16.644   2.304   2.993  0.3229 -0.1366  0.2340
13247W        W29721  14.766   3.647  10.175 -0.1297 -0.0224  0.0994
13248W        W29722   4.269   5.289   3.589 -0.3248  0.4081  0.0558
13249W        W29723  14.509  15.447   3.274 -0.0140 -0.1968 -0.0230
13250W        W29724   6.527   0.218   5.227  0.3326  0.2506 -0.0278
13251W        W29725  10.919  15.715  13.219 -0.0949 -0.2189 -0.3063
13252W        W29726   3.796  16.175   4.160  0.0379  0.1527  0.1933
13253W        W29727   2.975   5.528   3.992  0.3584  0.1051  0.2739
13254W        W29728  12.660  10.985   3.938 -0.0571 -0.3136  0.1712
13255W        W29729   3.918   8.988  14.377 -0.0773 -0.0364 -0.1571
13256W        W29730   2.996  18.873   9.833  0.0206  0.0499  0.3849
13257W        W29731  14.411   7.478  11.929  0.1557 -0.0513 -0.3519
13258W        W29732  12.237  15.197   4.115  0.0765  0.2956  0.0784
13259W        W29733  13.322   2.999   0.325  0.3343 -0.1699  0.2122
13260W        W29734  13.533   3.912   3.436 -0.1159 -0.2636 -0.0450
13261W        W29735  17.797   0.392   2.925 -0.0871 -0.0865  0.1471
13262W        W29736  13.665   0.109  12.447  0.1498 -0.1422  0.2438
13263W        W29737   9.759   0.444   2.432  0.1664 -0.3358 -0.2173
13264W        W29738  16.379  19.493  11.576  0.1803 -0.0045  0.5417
13265W        W29739  16.480  14.720  13.600  0.3060 -0.3039  0.2504
13266W        W29740   1.996   2.447  10.510 -0.2552  0.0206  0.0674
13267W        W29741  18.318   0.564   2.148 -0.1100  0.1051 -0.3701
13268W        W29742  16.884   0.857   2.682  0.2845 -0.0829 -0.2951
13269W        W29743  18.996  13.688  13.139  0.0214 -0.0247 -0.0570
13270W        W29744   4.873  19.391  14.581  0.0279 -0.2957  0.2175
13271W        W29745  10.395   4.555   2.709  0.4356  0.3811 -0.0149
13272W        W29746   5.325  11.422   2.032 -0.0336  0.2163  0.0089
13273W        W29747  11.954   8.958   6.229 -0.0896 -0.2955 -0.2346
13274W        W29748   2.693  11.402  14.311  0.4758  0.2733  0.3236
13275W        W29749  12.905   9.090   5.554  0.1312 -0.1072  0.0309
13276W        W29750  14.842   1.034  10.604  0.1609  0.0744 -0.1922
13277W        W29751   6.911   5.002   4.112  0.0842  0.0952  0.0878
13278W        W29752   4.068   0.318   0.194  0.0846 -0.0656 -0.0605
13279W        W29753  14.449  14.968   2.272  0.2548  0.0174 -0.1211
13280W        W29754   8.113  11.779   2.660 -0.3314  0.3714  0.0947
13281W        W29755  11.748   1.237   1.456  0.1786 -0.1124  0.1083
13282W        W29756   9.026  12.387  13.425  0.0859  0.1628  0.0102
13283W        W29757  15.305   6.609  11.492 -0.1450 -0.2375 -0.1927
13284W        W29758  10.681   1.304   0.909 -0.2208  0.2906 -0.2287
13285W        W29759  12.373  19.543   2.856 -0.0041 -0.2666 -0.0562
13286W        W29760  15.445   3.122  12.385 -0.1684  0.2822  0.1302
13287W        W29761  10.889  14.421  11.920  0.2843 -0.0894 -0.3151
13288W        W29762   3.366   4.056   4.718  0.1317 -0.0879  0.2089
13289W        W29763   7.426   8.870   0.005 -0.0877 -0.2240 -0.0037
13290W        W29764   4.190  11.522  12.974  0.0387  0.4972 -0.2125
13291W        W29765   6.872  15.121  14.676 -0.1445  0.0024  0.1883
13292W        W29766   1.911   4.902   2.574 -0.2155  0.0434 -0.0618
13293W        W29767   4.263  10.662   2.304 -0.0018 -0.1445 -0.2620
13294W        W29768   0.405   2.238  13.019  0.4278 -0.0934 -0.2217
13295W        W29769   8.713  13.227   2.596  0.1460 -0.2730 -0.0500
13296W        W29770  16.218  14.727   2.089  0.1487  0.1703 -0.0525
13297W        W29771  11.770  10.077  14.289  0.1795  0.0518 -0.4425
13298W        W29772  18.472   8.629  12.189 -0.2840  0.0986  0.1260
13299W        W29773  15.918   1.387   0.862  0.2276 -0.0469  0.0500
13300W        W29774   4.206   1.998   4.289 -0.3278 -0.2170  0.1982
13301W        W29775  16.878  13.582   1.830 -0.2860 -0.1894  0.2000
13302W        W29776   9.506   1.253  10.652  0.0228  0.2060 -0.4978
13303W        W29777   3.360  19.383  14.327  0.1837 -0.0503  0.1355
13304W        W29778  10.585  12.213   2.241 -0.4859 -0.2147 -0.0445
13305W        W29779   3.768  10.068   4.237 -0.0799 -0.0269  0.0241
13306W        W29780  10.956   2.636   3.921  0.0910  0.2308 -0.0451
13307W        W29781   1.474   0.746   4.291  0.1478 -0.1058 -0.0837
13308W        W29782   1.486  11.963  13.627  0.2822  0.1543 -0.1683
13309W        W29783  14.281   8.884   5.457 -0.1731  0.2047  0.1403
13310W        W29784  10.983   3.660   2.345  0.3662 -0.0338 -0.1306
13311W        W29785   2.461  14.609  10.838  0.4077  0.2315  0.1187
13312W        W29786  11.476  19.266   2.887 -0.0907 -0.3389 -0.0668
13313W        W29787   5.248  15.369   3.034 -0.3191  0.0009 -0.0274
13314W        W29788  14.031  16.857  11.433 -0.1210 -0.1235  0.0692
13315W        W29789  10.389   0.601  11.221  0.2898  0.1335  0.3488
13316W        W29790   1.864   4.042  12.007 -0.3213  0.1587 -0.1918
13317W        W29791  14.670   0.530  11.284  0.1454 -0.2776  0.2913
13318W        W29792  11.759   4.031  13.743 -0.1005  0.3284 -0.0561
13319W        W29793   3.694   8.952   1.473  0.1542  0.0796 -0.0905
13320W        W29794  15.854  14.827  12.068  0.2920  0.1833  0.0519
13321W        W29795   6.083  18.470  13.459  0.2400 -0.0392 -0.1098
13322W        W29796   4.279  18.356  11.988 -0.0291  0.0419  0.1460
13323W        W29797   1.614   0.660  10.228 -0.2456  0.0782 -0.0117
13324W        W29798   6.852   2.623  12.232  0.2988  0.2305  0.0757
13325W        W29799   6.837  18.770  11.156 -0.4152  0.2997  0.0110
13326W        W29800   8.736  15.453   2.983 -0.1054  0.2318  0.0366
13327W        W29801   3.254   7.343   9.910  0.2415  0.2164 -0.4538
13328W        W29802  14.767  17.633   0.678 -0.3600 -0.3252  0.2583
13329W        W29803   2.588  12.987  13.040 -0.1351 -0.0652 -0.0647
13330W        W29804  17.471   1.603  14.521  0.2115  0.0143  0.0010
13331W        W29805  14.295   5.701  11.421  0.2853  0.2641 -0.0922
13332W        W29806   2.537   5.711   3.713  0.1998  0.1088  0.2654
13333W        W29807  10.823  12.533  14.288 -0.1129  0.0136 -0.2608
13334W        W29808  16.801   7.590   2.219 -0.0177  0.1217  0.2216
13335W        W29809  14.489   1.894   3.613  0.1653  0.1043  0.0074
13336W        W29810   9.360   4.922  13.263 -0.5433  0.0893 -0.4078
13337W        W29811  17.658   4.831   2.497  0.1202 -0.1360 -0.1485
13338W        W29812  17.099  10.665  13.737  0.0835 -0.0921  0.2810
13339W        W29813  10.901  12.330   4.476  0.0023 -0.0451  0.1633
13340W        W29814  18.315  18.364  14.684 -0.2431 -0.0168 -0.0542
13341W        W29815  12.991   8.280   3.631 -0.1354  0.0106 -0.3001
13342W        W29816   4.882   8.339   0.096  0.2653  0.1186  0.0120
13343W        W29817  10.432  13.981  12.773 -0.1753 -0.2317 -0.0268
13344W        W29818   6.855   9.533  13.266 -0.1511 -0.0912  0.0502
13345W        W29819   0.135   1.411   0.900 -0.0132  0.2121  0.1400
13346W        W29820   1.411  13.792   2.902 -0.0071 -0.0428 -0.0518
13347W        W29821  15.928  16.213  14.155 -0.2706  0.2968 -0.3453
13348W        W29822  15.200  11.002  14.598  0.0996 -0.0243 -0.0101
13349W        W29823   2.545  13.295  11.372  0.4774  0.1231 -0.1744
13350W        W29824  13.338   5.975   2.302  0.0821  0.2657  0.5113
13351W        W29825   0.731   1.801  11.018  0.1314  0.0502 -0.0470
13352W        W29826   6.561   5.043   2.905  0.0367 -0.5024 -0.1071
13353W        W29827  13.111   3.501   1.278 -0.2656  0.0477 -0.1321
13354W        W29828   1.908  16.765  12.287  0.0101  0.0860 -0.2209
13355W        W29829  14.538   7.642  10.527 -0.1686 -0.3438  0.2538
13356W        W29830   9.294   7.968   9.515  0.0542  0.3712 -0.0151
13357W        W29831  12.330   0.945  14.257  0.0219 -0.2252 -0.2055
13358W        W29832   5.095   5.514  14.580 -0.0950  0.1250 -0.3201
13359W        W29833   1.693  14.979   1.955  0.0823 -0.0859  0.0502
13360W        W29834  15.196  18.659   1.483  0.0109 -0.0731 -0.1503
13361W        W29835  13.369   9.131  14.588 -0.0835  0.3829  0.4854
13362W        W29836  13.007   0.497   2.773  0.0514 -0.0784 -0.4355
13363W        W29837  16.993  10.994   4.164  0.1301 -0.1477  0.0924
13364W        W29838  17.562   8.308  12.938  0.3528 -0.0137  0.0129
13365W        W29839  15.852   4.500   1.158  0.1017 -0.0067 -0.2069
13366W        W29840   4.995  16.830   0.385  0.0770  0.1990 -0.0207
13367W        W29841   1.797   5.660   9.620  0.3462 -0.2118  0.1937
13368W        W29842   4.461  14.810   3.563  0.1465 -0.3116  0.0250
13369W        W29843   8.988   8.352  12.051 -0.0533 -0.1433  0.0739
13370W        W29844  12.549   8.954  14.349  0.5433  0.0018 -0.1669
13371W        W29845   6.560  14.005  13.062  0.1320  0.2760  0.1922
13372W        W29846  12.402   2.440   3.066 -0.0867 -0.1902  0.1251
13373W        W29847   9.646   2.100   0.964  0.0006  0.0158 -0.2018
13374W        W29848  10.671   4.437   5.006  0.1910 -0.3991 -0.0257
13375W        W29849   7.524  12.709  10.864 -0.1114 -0.2369 -0.1860
13376W        W29850   0.216   9.644  10.686 -0.0629 -0.0827  0.1145
13377W        W29851   4.686   5.341  13.598 -0.1584 -0.0477 -0.0332
13378W        W29852   6.396   2.921  13.513 -0.0935 -0.0353 -0.1650
13379W        W29853   5.297   9.726  13.259 -0.1808  0.3065  0.1308
13380W        W29854   3.977  11.018   0.548  0.1404  0.1158 -0.1668
13381W        W29855   1.859  16.954  13.963  0.0522  0.3644 -0.0887
13382W        W29856   7.426  12.852  11.393  0.2146  0.0963 -0.1082
13383W        W29857   8.198   7.679  11.700  0.1206  0.1336  0.0495
13384W        W29858   5.050   1.580  10.325 -0.2933 -0.3737  0.0402
13385W        W29859  17.556   8.897  11.559 -0.1335  0.1976 -0.2404
13386W        W29860  16.013  10.102   1.893  0.0107 -0.1699  0.0177
13387W        W29861   2.673   7.956  13.867  0.0755 -0.0471 -0.2059
13388W        W29862  15.412  18.756  12.896 -0.2128  0.1547  0.1614
13389W        W29863   0.550   5.812  14.115  0.0509  0.3420  0.0501
13390W        W29864  10.304  13.017  14.406 -0.0202 -0.1662 -0.0561
13391W        W29865  16.365  19.099  13.153 -0.1337 -0.0589  0.1521
13392W        W29866  11.893   2.828   0.928 -0.1600  0.1222  0.1191
13393W        W29867  10.128  11.341   2.674  0.1023  0.3060 -0.1527
13394W        W29868  18.683   2.118   3.164  0.1499  0.0117  0.1895
13395W        W29869   1.607   4.511   4.925 -0.3633 -0.1672 -0.2361
13396W        W29870  10.542   2.802   4.793  0.0986  0.0359  0.0421
13397W        W29871   9.758  11.060   0.111 -0.1327  0.4758 -0.0360
13398W        W29872   3.266   0.278  14.363  0.1066 -0.2955  0.2327
13399W        W29873  11.457  17.252  11.443  0.0104 -0.1286  0.1089
13400W        W29874   1.290   4.940  13.463  0.0699 -0.0040 -0.5009
13401W        W29875   2.640   6.340  10.700 -0.0220 -0.0325  0.1802
13402W        W29876   6.947  11.385  10.247 -0.1323  0.1718 -0.0015
13403W        W29877  12.446   1.790   2.820  0.1881 -0.2205  0.0626
13404W        W29878  16.613   9.624  12.960  0.2165 -0.2317 -0.1508
13405W        W29879   9.052   9.160  12.682  0.1948  0.2484  0.0893
13406W        W29880   2.878  10.842  11.044 -0.1242  0.1799  0.1807
13407W        W29881   6.272   9.138   2.587  0.1192 -0.0161  0.2592
13408W        W29882   4.509  12.597   1.659 -0.0737  0.2800  0.2990
13409W        W29883  13.350  15.688  12.350 -0.0526 -0.2167  0.0407
13410W        W29884  13.892   1.073   2.331  0.0388  0.3797 -0.0609
13411W        W29885  18.312   9.012  11.857 -0.2157 -0.1613  0.0796
13412W        W29886   9.467   9.433  14.118 -0.0207  0.1395  0.1701
13413W        W29887  12.504  18.182  10.984 -0.1659  0.0151 -0.0021
13414W        W29888  12.549   5.572  11.783  0.1646 -0.3645 -0.0417
13415W        W29889   8.353   6.430  12.536  0.2563  0.0594  0.0629
13416W        W29890   7.137   3.916  10.910  0.0485  0.2825  0.0669
13417W        W29891   2.869   6.087  14.064  0.1535  0.0857 -0.0766
13418W        W29892   7.499   6.325  14.320 -0.1693  0.2089  0.0839
13419W        W29893   5.306   0.638   9.966  0.2897  0.3575  0.1112
13420W        W29894   6.148  14.925  13.593  0.1763 -0.0804 -0.5836
13421W        W29895   4.268   3.416   4.634 -0.0182  0.2193  0.3270
13422W        W29896   5.671   8.438   4.696  0.1978 -0.3922 -0.0743
13423W        W29897   3.392   2.117  12.557  0.2252  0.0093 -0.2245
13424W        W29898   3.222  16.557   4.738 -0.0219 -0.1562 -0.2579
13425W        W29899   6.594  15.883   1.891  0.0168  0.1843 -0.1291
13426W        W29900   7.507   6.189   0.900 -0.3236 -0.1449  0.0951
13427W        W29901  16.300   6.386   2.336  0.1563  0.1969  0.2436
13428W        W29902   1.560  13.800  13.867  0.1497 -0.2581  0.1613
13429W        W29903   5.393   3.815   4.501  0.3298  0.1779  0.2533
13430W        W29904  10.850  17.815   1.317 -0.1494  0.0014 -0.3190
13431W        W29905   3.428   6.764   0.612 -0.2080 -0.0522 -0.0087
13432W        W29906  19.346   8.015   1.303 -0.0167  0.0672  0.2146
13433W        W29907   3.865   3.207  10.413  0.2804 -0.1844  0.0506
13434W        W29908   5.831  18.130  12.313  0.2371 -0.1369 -0.1006
13435W        W29909   6.133   9.766  12.001 -0.1861  0.1039  0.0186
13436W        W29910  18.138  17.726   2.049  0.0187 -0.0759 -0.0709
13437W        W29911   0.377  11.885   1.357  0.1393 -0.1164 -0.0294
13438W        W29912   7.650   4.219   2.854 -0.2796 -0.0068 -0.0110
13439W        W29913  15.081   9.308   5.371 -0.0345 -0.2518  0.2978
13440W        W29914   9.407  18.242   3.613  0.3241 -0.3882  0.2417
13441W        W29915   7.614  18.685  13.656  0.0485  0.1123 -0.0107
13442W        W29916   1.340   1.656   3.444 -0.0885  0.0129  0.0766
13443W        W29917  18.261   3.649  10.914 -0.0164  0.1236 -0.2117
13444W        W29918   1.072  17.114  14.282 -0.0544  0.1908  0.0501
13445W        W29919   4.639   2.324   2.917  0.0477 -0.0593  0.2846
13446W        W29920   5.134  17.168  11.162  0.1057  0.4540  0.0140
13447W        W29921   9.352   0.443  10.831 -0.0690 -0.1412 -0.1316
13448W        W29922   5.490   2.659   3.943  0.1369 -0.1201 -0.3523
13449W        W29923  12.503   9.635  13.190 -0.1535 -0.1204  0.2727
13450W        W29924  11.976  11.516   3.594 -0.2234 -0.0485 -0.1231
13451W        W29925   1.163   8.678   4.227 -0.1423 -0.0799 -0.0056
13452W        W29926   1.588  18.216  14.057  0.0138 -0.2970 -0.2267
13453W        W29927  16.053  16.697   3.199 -0.0135 -0.2300  0.0839
13454W        W29928  15.290  17.442   4.075 -0.0483 -0.0627  0.2492
13455W        W29929   0.657   3.395   2.055 -0.1408  0.1834 -0.0495
13456W        W29930  11.524   8.138  13.011  0.0156  0.2784 -0.0188
13457W        W29931   5.458  14.709  13.641 -0.1539 -0.1106  0.0171
13458W        W29932  18.825  18.122   0.322 -0.2117  0.0080 -0.1403
13459W        W29933  16.912  11.865  14.685 -0.1893 -0.1188  0.0392
13460W        W29934   6.843   8.875  10.236 -0.0196 -0.0349 -0.0672
13461W        W29935   9.626  17.279  13.254  0.6256  0.2194 -0.2248
13462W        W29936  16.371  19.455  12.849 -0.0548  0.2616  0.1962
13463W        W29937   8.467  18.911  14.639 -0.0679  0.0925  0.0290
13464W        W29938   5.360   2.938   1.323  0.1896 -0.0899 -0.1407
13465W        W29939  16.842   5.449   5.410 -0.0555 -0.1638 -0.1119
13466W        W29940  18.712   4.700   1.748 -0.1946 -0.2304  0.1508
13467W        W29941   5.005  10.788  13.925 -0.0368 -0.1589  0.0390
13468W        W29942   6.232  15.185   2.245  0.0035  0.0341 -0.3542
13469W        W29943   9.184   7.236  13.369 -0.0161  0.3335  0.0497
13470W        W29944  11.260  15.884   1.282 -0.2377  0.0428  0.3216
13471W        W29945  15.551  19.426   3.818 -0.2473  0.0265  0.1374
13472W        W29946   5.551   1.051  12.712 -0.0766 -0.1863  0.1832
13473W        W29947   2.619   7.001  12.365 -0.4109  0.2041  0.1599
13474W        W29948  15.000  15.701   1.324  0.1644  0.2122 -0.2703
13475W        W29949   1.803   2.513  13.937 -0.1614 -0.1543  0.0172
13476W        W29950  19.564  15.829   1.038 -0.0740 -0.3462 -0.1117
13477W        W29951   7.057   0.932  12.995  0.0073  0.0749 -0.1393
13478W        W29952   0.425  10.589  14.533  0.1943  0.1081  0.0940
13479W        W29953  15.155  19.052  12.018 -0.4696 -0.0121  0.0702
13480W        W29954   3.758  17.588   3.662  0.2316 -0.0134 -0.3126
13481W        W29955   6.375   8.104   0.686  0.2669 -0.1665  0.0503
13482W        W29956  18.648   8.033  10.386  0.2110  0.0396  0.3167
13483W        W29957  17.012   7.937  13.101  0.0771 -0.3012 -0.1787
13484W        W29958  17.391  16.046  12.598 -0.1770 -0.2040 -0.0768
13485W        W29959  15.236   5.126   3.145 -0.1587 -0.0418  0.1145
13486W        W29960   9.970   6.661   1.127  0.1589 -0.1763 -0.1764
13487W        W29961  11.395   4.480  10.946 -0.0589 -0.0944  0.0932
13488W        W29962   2.618   7.797  11.295 -0.1065 -0.2397  0.1071
13489W        W29963  16.054  12.290   3.794 -0.0810 -0.1535 -0.1935
13490W        W29964   0.681  13.565   2.859  0.0686  0.2015 -0.1584
13491W        W29965   6.583  16.044   0.165  0.1319  0.0324 -0.0781
13492W        W29966  12.898  17.407  11.490 -0.0034 -0.1358  0.1599
13493W        W29967   9.575  18.255   1.013 -0.3099  0.3701  0.0038
13494W        W29968   8.937   2.904   3.579 -0.3202  0.0248 -0.1635
13495W        W29969   4.010  16.912  10.835  0.2029 -0.0827 -0.0746
13496W        W29970  13.905   1.936   1.559  0.1009  0.0592 -0.1196
13497W        W29971   4.749  17.487  14.505 -0.0409 -0.1112  0.1918
13498W        W29972   9.208  18.983   4.245  0.0776 -0.0889  0.1802
13499W        W29973  18.017   4.576  12.859 -0.1327  0.1547 -0.3936
13500W        W29974  13.992  10.427   5.123  0.0072  0.2011 -0.2581
13501W        W29975  10.072   6.566  14.236 -0.5491 -0.1451 -0.0116
13502W        W29976   4.179   1.062   2.281 -0.2683  0.1606 -0.3496
13503W        W29977   9.066  13.416   2.230  0.0176 -0.1001  0.0921
13504W        W29978  16.701   0.473   4.131 -0.1700  0.0162  0.1272
13505W        W29979  13.351   5.775  11.883 -0.1737 -0.0310  0.2459
13506W        W29980  12.340  13.752   2.079  0.1061  0.3782 -0.0817
13507W        W29981   6.839   9.038   2.362 -0.1002  0.0324 -0.1826
13508W        W29982  17.295  10.960   3.743  0.0181 -0.1438 -0.0605
13509W        W29983   0.116   5.195  11.067 -0.0820 -0.1216 -0.0434
13510W        W29984   4.866  11.590   1.565 -0.0848 -0.1072  0.2236
13511W        W29985   7.128  18.529  10.663 -0.3724 -0.0212  0.1531
13512W        W29986  10.844  11.833  14.365 -0.0833 -0.1704  0.1710
13513W        W29987  15.431   0.840   3.956 -0.0581 -0.2543  0.0945
13514W        W29988  15.744   3.251  11.962 -0.0835  0.0310 -0.1766
13515W        W29989   1.231   8.904   1.064 -0.1422 -0.1966 -0.0615
13516W        W29990  10.032   5.260  12.758  0.0247  0.0318  0.1119
13517W        W29991   8.291   0.550   4.183 -0.1154  0.2333 -0.0920
13518W        W29992   7.375   3.909  14.691  0.0438  0.0704 -0.2595
13519W        W29993   2.862  16.483  12.306 -0.2124  0.0732  0.0650
13520W        W29994  12.954   4.110   5.040 -0.0811 -0.0994  0.0178
13521W        W29995   9.266  19.389   0.950  0.2664  0.0734  0.1989
13522W        W29996   0.929  14.658  10.506  0.0185  0.0604  0.2246
13523W        W29997  10.682  17.748   0.261 -0.0900 -0.0310 -0.2409
13524W        W29998   3.797   7.913   3.072  0.0388 -0.3663 -0.0751
13525W        W29999   2.430   4.372  10.359 -0.3332 -0.4607 -0.4329
13526W        W30000   7.887  15.206   2.682  0.1342 -0.2260 -0.0866
13527W        W30001   5.679  13.644   0.203  0.3274  0.0307 -0.0936
13528W        W30002  15.392  14.645  12.764 -0.0151  0.2582 -0.1494
13529W        W30003  16.015   4.922   2.592 -0.2182 -0.4867 -0.0207
13530W        W30004  18.972  19.188   1.281 -0.0289 -0.3163 -0.1717
13531W        W30005   5.167   5.979  11.383  0.0658  0.0656  0.0138
13532W        W30006  17.441   0.686   2.163  0.1949  0.0520 -0.1861
13533W        W30007   0.542  14.316   2.694 -0.1774  0.0354  0.0536
13534W        W30008  14.190   5.058   0.471  0.3191  0.0044  0.2175
13535W        W30009  18.702  14.216   0.121  0.2421 -0.1169 -0.0522
13536W        W30010   5.544  19.412  11.435 -0.3133 -0.0311 -0.1249
13537W        W30011  10.245   9.647  14.424  0.0165 -0.3190  0.0143
13538W        W30012  12.408  13.263  10.772 -0.4400  0.1543 -0.1733
13539W        W30013   4.377  12.876  13.078  0.0229 -0.5333  0.1319
13540W        W30014   3.650   5.620   0.714 -0.1455 -0.1131  0.1894
13541W        W30015  18.384   0.693  10.135  0.0656 -0.0057 -0.4944
13542W        W30016  17.250  19.319  13.333  0.3019  0.0520 -0.0937
13543W        W30017  14.008  10.748  14.626  0.0627  0.1643  0.1166
13544W        W30018  12.231   8.067  14.567 -0.0335  0.3008 -0.0506
13545W        W30019  16.596  15.767  11.392  0.0816 -0.3498  0.2664
13546W        W30020   4.312  10.261   4.003 -0.0991  0.3342  0.0854
13547W        W30021   3.382  16.648  11.641  0.6249 -0.1353  0.3159
13548W        W30022   2.160  16.462  12.693 -0.1472  0.1328  0.3338
13549W        W30023  10.081  17.053  14.644 -0.1491 -0.3469  0.0953
13550W        W30024   8.525  12.112   3.630  0.0438  0.0136  0.0874
13551W        W30025   8.402  19.009   9.580  0.2954 -0.2777  0.3101
13552W        W30026   9.533  18.575  10.544 -0.2643 -0.0443  0.3279
13553W        W30027  16.324   9.416  12.010  0.1949  0.1313  0.0132
13554W        W30028  12.643   0.240  12.469 -0.2015  0.3304 -0.1968
13555W        W30029  18.495  13.410   0.252 -0.2863 -0.0667  0.1396
13556W        W30030   4.024  18.561   0.856  0.3445 -0.3813 -0.0104
13557W        W30031   1.612   4.734  12.604 -0.0773  0.0732 -0.1113
13558W        W30032  15.060  14.868   4.840 -0.0566  0.0231 -0.0635
13559W        W30033   9.616  17.718  12.076  0.2427 -0.1191 -0.1048
13560W        W30034   9.156   1.540   1.724 -0.3573  0.2638  0.0876
13561W        W30035  19.493  18.495   3.402 -0.0243  0.1103 -0.0759
13562W        W30036  14.700   6.227  12.613 -0.0981  0.1685 -0.2432
13563W        W30037  13.885  18.235  11.798  0.3195 -0.3918 -0.3634
13564W        W30038  12.214  13.199   2.218 -0.0648  0.1055  0.1308
13565W        W30039  10.894   3.706   0.862  0.1803 -0.0396  0.0812
13566W        W30040  15.048  14.409   2.364  0.1255 -0.3537  0.2127
13567W        W30041  12.755   9.099  13.931 -0.2064 -0.0527 -0.0101
13568W        W30042  18.735  12.596   2.175  0.0339 -0.0470 -0.3312
13569W        W30043   9.667   9.473  10.417  0.1693 -0.0205 -0.0293
13570W        W30044   1.841   6.090  10.687  0.0208  0.0977  0.3144
13571W        W30045  16.492  11.985   2.801  0.2692 -0.1329  0.2105
13572W        W30046   7.878   9.308   4.010  0.2305  0.0218 -0.2574
13573W        W30047  13.235   6.298  11.876 -0.0186  0.3787  0.0613
13574W        W30048  15.442  16.121   2.762  0.1246 -0.1985  0.2936
13575W        W30049  16.818  12.306  12.442 -0.1061 -0.1867  0.3966
13576W        W30050   1.221   2.377  12.690  0.1532 -0.0139  0.2110
13577W        W30051   5.358   1.054  11.559  0.0421 -0.1824  0.1003
13578W        W30052  17.150   4.823   4.411  0.1303 -0.1348  0.1687
13579W        W30053  13.670  16.250   2.862  0.1147 -0.1827  0.2049
13580W        W30054  12.298  16.972  10.073  0.2390 -0.3039 -0.3000
13581W        W30055   0.044  13.374  13.590 -0.0787  0.3195 -0.1004
13582W        W30056  15.383   8.307   1.902  0.3540 -0.1410  0.0978
13583W        W30057   1.930   4.721  11.565  0.0389  0.2615 -0.2461
13584W        W30058   6.274   6.275   2.218 -0.0370  0.1715  0.0756
13585W        W30059  18.020  12.966   1.005  0.1427 -0.0452 -0.0849
13586W        W30060   4.636   8.832   3.211  0.0791  0.2073 -0.1263
13587W        W30061   1.455  15.499   4.259  0.2061 -0.1891 -0.0357
13588W        W30062   7.224   1.339  12.675 -0.2444  0.1149  0.1633
13589W        W30063   8.980   4.967   4.774  0.4568 -0.2834 -0.1612
13590W        W30064   2.591   4.940  11.191 -0.1189 -0.4274  0.0646
13591W        W30065   0.803  14.275  13.902 -0.3184  0.0675 -0.2404
13592W        W30066   4.816  18.540   3.298 -0.1662  0.1373 -0.4336
13593W        W30067   2.925   0.602  10.094 -0.0439 -0.0327 -0.1517
13594W        W30068   1.756   5.148   2.062  0.0168 -0.2845  0.3262
13595W        W30069  12.458   1.379  10.903  0.0082 -0.0017  0.3348
13596W        W30070   0.888   3.986   1.438  0.2750 -0.0905 -0.0164
13597W        W30071   1.425   9.903  11.045  0.0625 -0.4948 -0.1682
13598W        W30072   8.518   7.062  13.184  0.0310 -0.3278 -0.0536
13599W        W30073  15.431  10.160  11.698  0.5115  0.2735  0.0690
13600W        W30074   0.452   6.158   2.100  0.2101  0.1051  0.0138
13601W        W30075   6.601   8.509   0.067  0.0395 -0.2057 -0.0448
13602W        W30076  13.728  14.672  11.035  0.0095 -0.0989  0.3266
13603W        W30077  13.726   1.865   4.188 -0.1935  0.1584 -0.0409
13604W        W30078  12.415  19.344   0.745 -0.0693  0.0007 -0.0731
13605W        W30079   2.684   3.944   2.946 -0.2182 -0.1045  0.2063
13606W        W30080   9.249   5.328  14.314  0.1825  0.0500  0.1908
13607W        W30081  12.743   8.114   2.268  0.1750  0.2539  0.2134
13608W        W30082   2.231   9.057  12.400 -0.2009 -0.0042 -0.5214
13609W        W30083  12.137  17.349  13.063 -0.0196 -0.2466 -0.0945
13610W        W30084  19.545  11.644   3.463  0.1607  0.0723  0.0133
13611W        W30085   1.918  12.497   1.455  0.0109 -0.1395 -0.2089
13612W        W30086  15.612   9.914   1.393  0.0677 -0.0927  0.2753
13613W        W30087   2.400   5.715   3.160  0.1326  0.1303  0.4405
13614W        W30088   9.495  11.854  13.469 -0.2565  0.4058 -0.0277
13615W        W30089   8.250   3.898   1.024  0.2460 -0.5933  0.1251
13616W        W30090   2.929  15.627   3.273  0.0933 -0.0213  0.2734
13617W        W30091  10.864  11.328   2.569  0.2098  0.0553  0.0587
13618W        W30092  13.477  13.929   3.819 -0.0331 -0.2296 -0.0117
13619W        W30093   1.929  15.382  11.347 -0.3779 -0.2455  0.0442
13620W        W30094   9.340   6.415   3.282 -0.3261 -0.0862  0.1195
13621W        W30095   5.499   7.525   0.714 -0.0251 -0.2927 -0.1984
13622W        W30096  15.415   2.222  13.664 -0.1126  0.0470 -0.1068
13623W        W30097   3.049  16.152  13.811  0.1219  0.1553  0.1562
13624W        W30098   1.875   0.507  12.091 -0.1360  0.2023  0.2552
13625W        W30099  13.924  10.510   4.594 -0.1324  0.0887 -0.2328
13626W        W30100  18.113  11.226   4.866  0.2552 -0.2201  0.1668
13627W        W30101   0.281   8.345  10.541 -0.1808  0.1503 -0.1842
13628W        W30102   7.353  15.255  14.506 -0.0823 -0.0649  0.3223
13629W        W30103  13.054   0.722   4.312  0.2144  0.0548  0.1270
13630W        W30104   8.957   0.775   4.276 -0.0655 -0.1744  0.1075
13631W        W30105   6.519  11.120   0.406 -0.2524 -0.0710 -0.0686
13632W        W30106  11.864   8.808   0.159 -0.2802  0.1470 -0.2058
13633W        W30107   0.558   9.049   3.966  0.2427  0.0326  0.3539
13634W        W30108   9.684  14.299  11.666 -0.1159 -0.1147  0.2181
13635W        W30109   3.991   9.517   3.026  0.0030 -0.0179  0.2405
13636W        W30110  12.610  10.078   1.966 -0.0506 -0.2193 -0.1169
13637W        W30111   8.814  12.516  12.292 -0.2734 -0.4259  0.2057
13638W        W30112  19.327  10.059   0.089 -0.0460  0.1945 -0.0989
13639W        W30113   2.035  13.176  11.567 -0.0036  0.3204 -0.0591
13640W        W30114   3.116  13.303  14.384 -0.5785  0.1274 -0.0648
13641W        W30115  10.595  18.496   3.669 -0.0079  0.2384 -0.2427
13642W        W30116   0.660  11.338   2.203  0.0506 -0.4916 -0.1130
13643W        W30117   7.939  12.993   3.422 -0.2999  0.0919  0.4347
13644W        W30118  13.082   0.411  14.324 -0.2928 -0.0294 -0.1045
13645W        W30119  14.253   5.053  14.167 -0.0734 -0.2502 -0.0562
13646W        W30120   0.790  10.869  12.113 -0.1225  0.1920  0.1641
13647W        W30121  15.130  15.074   1.134  0.1148  0.4602 -0.1022
13648W        W30122   0.957  14.748  14.032  0.0149 -0.0245  0.3737
13649W        W30123  16.558  19.578  10.201  0.1573  0.1780  0.0683
13650W        W30124   2.853  11.940   2.307 -0.1978 -0.1162  0.0524
13651W        W30125   9.388   8.512   4.517 -0.0948 -0.0744  0.1961
13652W        W30126  17.531  17.779   4.055 -0.2328 -0.0602  0.0625
13653W        W30127  18.721  10.070  14.109 -0.3556  0.1211  0.1184
13654W        W30128  13.706  13.426   2.361 -0.1559 -0.1203  0.0446
13655W        W30129  16.447  15.934  12.912  0.0540 -0.5135  0.2595
13656W        W30130  17.715   3.999  11.245 -0.3690 -0.1484  0.1479
13657W        W30131  11.913  19.323  14.025 -0.1564 -0.0996 -0.4391
13658W        W30132  18.297   6.052   3.720 -0.2303  0.3553  0.4527
13659W        W30133  18.550  18.820   5.405  0.1056 -0.4555  0.0375
13660W        W30134   7.675  19.091   2.520 -0.1589  0.2473 -0.0789
13661W        W30135  15.352   6.462  11.998  0.0258  0.0006  0.2115
13662W        W30136  19.076  10.557   3.685  0.0165 -0.0814 -0.2779
13663W        W30137   0.067   2.147  12.117  0.1054  0.0562  0.2085
13664W        W30138   9.176  15.562  11.880  0.4935  0.2618 -0.0848
13665W        W30139  11.966   1.008  10.436 -0.0471 -0.2125 -0.2643
13666W        W30140  16.420  13.573   3.496 -0.1682  0.1571 -0.0279
13667W        W30141  14.920   2.333   2.808  0.1046  0.2672 -0.0526
13668W        W30142  13.220  18.852  13.895  0.1261 -0.1057 -0.0431
13669W        W30143   8.777  16.409   4.341  0.1877 -0.0534 -0.1448
13670W        W30144   1.160  12.950   2.978  0.0891 -0.0304 -0.0850
13671W        W30145  14.344  10.276   0.866 -0.0157 -0.3230 -0.1445
13672W        W30146   5.703   1.721  10.464 -0.0742  0.1116 -0.2423
13673W        W30147   8.806  15.814  10.537  0.0534 -0.0306  0.2517
13674W        W30148  19.015  14.375  10.424  0.1197 -0.1525 -0.5161
13675W        W30149  14.025  19.502  12.108 -0.0457 -0.1047  0.0513
13676W        W30150  18.241   4.948  13.840  0.2565 -0.2118 -0.0048
13677W        W30151  12.614   0.933   0.454  0.0450 -0.0809  0.1583
13678W        W30152  10.376   5.848  10.651  0.1781 -0.1933  0.4510
13679W        W30153   7.599   7.469   0.286  0.3632 -0.0617  0.1615
13680W        W30154   4.268   2.693  10.810  0.1891 -0.0062 -0.0663
13681W        W30155   5.802   0.714  10.168  0.0832  0.2185  0.1160
13682W        W30156  18.860   7.283   4.282  0.1277  0.0146  0.1285
13683W        W30157   3.390  14.529   3.839  0.0194  0.1586  0.1741
13684W        W30158  15.457  14.911   0.357 -0.0433 -0.1862 -0.2307
13685W        W30159   8.567   1.567  13.313  0.0732  0.0491  0.2115
13686W        W30160  12.765   6.253   0.215  0.1304  0.0121 -0.1651
13687W        W30161   6.627  18.570   4.731 -0.1822 -0.0740 -0.3203
13688W        W30162   5.433   6.431   3.713 -0.0174  0.2147  0.2017
13689W        W30163   4.477  10.195   0.389  0.1640  0.0341 -0.1361
13690W        W30164   4.700   0.558  12.489  0.0252 -0.0009 -0.0115
13691W        W30165   4.959   4.428  14.003 -0.1122  0.2581 -0.1732
13692W        W30166   2.138  17.137  14.561 -0.2584 -0.1273 -0.1989
13693W        W30167   3.404  12.525  11.558  0.1887  0.4130 -0.1703
13694W        W30168   2.566  12.777  10.666 -0.4052 -0.0865 -0.0816
13695W        W30169  18.565  14.254   2.319 -0.3674 -0.1424 -0.0888
13696W        W30170  14.055   3.172   4.089  0.1297  0.2843 -0.1745
13697W        W30171  14.237   4.141   5.426  0.0742  0.1007 -0.0758
13698W        W30172   9.895   9.210  14.276 -0.1369 -0.0884 -0.0124
13699W        W30173   9.056   4.052  10.869  0.1611  0.1700  0.1847
13700W        W30174  10.211   7.106  14.148  0.0801 -0.3235 -0.0276
13701W        W30175   5.021  17.741  11.075 -0.1417  0.0589  0.1002
13702W        W30176   0.385  14.852  11.348  0.1628 -0.2213  0.0790
13703W        W30177  10.048  15.363   3.321  0.2702  0.2160  0.2360
13704W        W30178   2.464  14.515  12.755  0.4239 -0.3287 -0.0166
13705W        W30179   0.087   8.848   4.092  0.2251  0.2187 -0.2265
13706W        W30180   7.530   1.321  10.799  0.2326  0.2066  0.1937
13707W        W30181   3.433  15.053   4.138 -0.0515 -0.3844 -0.1364
13708W        W30182  19.057   5.733   1.973  0.1228 -0.1261 -0.0363
13709W        W30183  18.024  10.270   9.897 -0.0098  0.2414 -0.0099
13710W        W30184  11.814   5.983   1.804  0.2612 -0.1892 -0.2465
13711W        W30185  16.244  16.991   0.439 -0.0789  0.1790  0.0079
13712W        W30186   0.466  18.886   4.501 -0.2088 -0.0687  0.1959
13713W        W30187  12.133   1.933   2.033  0.0098 -0.3711  0.0057
13714W        W30188  12.065  11.670   2.401  0.2640  0.2701  0.0455
13715W        W30189  18.599  14.227  14.350  0.0493  0.2214  0.0808
13716W        W30190  16.516  14.283   0.756 -0.2401  0.5233  0.0932
13717W        W30191  16.321   6.216   1.297  0.0067 -0.0741  0.1538
13718W        W30192   5.023  19.157   5.373  0.2482  0.1440  0.0769
13719W        W30193  12.106   2.722  12.011 -0.0321 -0.1900  0.2377
13720W        W30194  18.093   1.233  13.338  0.0927 -0.1422  0.1436
13721W        W30195   8.543  12.398  10.880 -0.0170  0.0703 -0.1384
13722W        W30196  16.130  12.584   1.441  0.2962  0.0852  0.0555
13723W        W30197  11.271   4.547   3.743  0.0919 -0.0808  0.1572
13724W        W30198  18.505   3.076   1.642 -0.0025  0.2783  0.0008
13725W        W30199   8.612   8.632  13.209 -0.1669  0.2145  0.2539
13726W        W30200  16.644   6.712   1.267  0.0735 -0.0048  0.0571
13727W        W30201  14.075  15.853  13.237  0.2417 -0.0484 -0.2008
13728W        W30202   5.052   5.123  13.834  0.0314  0.2655 -0.1460
13729W        W30203   4.680   9.304   2.978 -0.0279 -0.0117  0.1782
13730W        W30204   2.573   6.601  13.521  0.0852 -0.0548 -0.0881
13731W        W30205  17.197   2.762  11.079 -0.5098 -0.0805  0.1904
13732W        W30206  18.763  15.110  12.712  0.1053  0.2706 -0.0383
13733W        W30207   8.615  13.665   2.344 -0.2576  0.1022 -0.0922
13734W        W30208   0.100   9.874   5.043  0.0237 -0.1789 -0.2449
13735W        W30209  12.242   2.028  11.397 -0.1328 -0.2836 -0.0073
13736W        W30210  16.159   3.595  10.856 -0.0450  0.1706 -0.2310
13737W        W30211  12.088  11.864  10.234 -0.0225  0.1481  0.3270
13738W        W30212   9.870   9.519  11.017 -0.2272  0.1919  0.1175
13739W        W30213  12.242   4.610   1.574  0.0618 -0.0518 -0.1134
13740W        W30214   0.754   0.030   2.589 -0.1774 -0.1911 -0.4340
13741W        W30215   9.166  14.436   3.736  0.0235  0.0827 -0.0623
13742W        W30216   9.843  12.006   0.175  0.0274  0.0850 -0.0673
13743W        W30217  15.936  11.457   3.930  0.0900 -0.0205  0.0409
13744W        W30218   8.516   2.930  12.853  0.1739 -0.2765  0.1154
13745W        W30219  13.479  12.579  11.789  0.0433 -0.3693  0.1845
13746W        W30220  15.676  11.492  12.803  0.0518 -0.2052  0.2584
13747W        W30221   7.430   1.172  11.385  0.0197 -0.0125  0.1614
13748W        W30222  12.842  15.752   3.774  0.1237 -0.1760 -0.3380
13749W        W30223  14.653   2.208   9.283 -0.2731 -0.1332  0.0173
13750W        W30224  11.632   2.743  11.791 -0.0134 -0.0742  0.1238
13751W        W30225  16.232  16.279   5.372 -0.1046  0.0301 -0.2171
13752W        W30226   5.616  17.875   1.653  0.0261  0.0106  0.2179
13753W        W30227   6.781   9.631   3.505  0.2662  0.1983  0.0236
13754W        W30228  14.420   1.459  14.428  0.1443  0.1279  0.0105
13755W        W30229  12.312  11.716  11.206  0.0319  0.1709 -0.1842
13756W        W30230   2.735   8.422   9.934  0.2039 -0.4974 -0.2811
13757W        W30231   8.526   3.576  11.574 -0.0748 -0.2666  0.1390
13758W        W30232  12.744  14.236  10.711  0.0050 -0.3393  0.3948
13759W        W30233   9.366   4.106   1.802  0.0061  0.0350  0.1630
13760W        W30234  10.768   3.660   2.823 -0.2744  0.3156 -0.1816
13761W        W30235   9.001   9.213   9.664 -0.0517  0.1689  0.1602
13762W        W30236   1.871  13.442  13.970  0.1056 -0.0702 -0.0270
13763W        W30237   3.785   3.399  13.176  0.2571  0.1068  0.0404
13764W        W30238  15.436  13.826   1.176 -0.0017  0.1417  0.1068
13765W        W30239  12.399  10.452  13.774 -0.3415  0.0873 -0.0509
13766W        W30240  14.561   5.987  11.127 -0.0961  0.0274  0.3481
13767W        W30241   2.368  12.951   3.287 -0.1143 -0.1205 -0.0134
13768W        W30242  13.741   9.563   5.623  0.1795 -0.0500  0.1315
13769W        W30243   5.100  15.781   2.716  0.3419 -0.0188  0.1142
13770W        W30244   0.147   0.067   1.102 -0.1474 -0.0624  0.0885
13771W        W30245  16.033   5.660   3.080  0.5129  0.0784 -0.2795
13772W        W30246  10.169  14.661   1.810 -0.0335  0.1873 -0.0752
13773W        W30247  18.422  14.593   5.095  0.5107  0.0868 -0.3239
13774W        W30248  18.498   3.649   3.541 -0.3154  0.0928 -0.2636
13775W        W30249  14.714   8.822   2.473 -0.1111  0.1182  0.0596
13776W        W30250  12.611   3.174  13.188  0.4174 -0.1507 -0.1033
13777W        W30251  13.896  11.117   4.385 -0.5475  0.0262 -0.1580
13778W        W30252   9.259   1.676  14.718 -0.2164  0.1782  0.1833
13779W        W30253  14.665   4.655   4.674  0.0117  0.0211  0.4694
13780W        W30254   9.249  11.500   0.730 -0.0103 -0.3041  0.1631
13781W        W30255   0.239  15.674  10.642 -0.3868 -0.1801  0.0233
13782W        W30256   4.184   3.703  12.351  0.3596 -0.0436  0.2120
13783W        W30257  11.908  12.714   2.990  0.1050  0.3115 -0.1392
13784W        W30258  18.245   3.360  13.556  0.2607  0.0580 -0.0416
13785W        W30259   4.243  12.680   5.125 -0.0491  0.1146  0.0431
13786W        W30260   4.385   6.161  14.070 -0.2260 -0.2632  0.2692
13787W        W30261  15.478   5.571   1.699  0.1103  0.0694 -0.1612
13788W        W30262  15.406  11.549  13.184 -0.1347  0.4860 -0.2432
13789W        W30263   5.844   8.987   1.589  0.0268  0.1447 -0.1351
13790W        W30264  11.348  14.778   3.930  0.0598 -0.0315 -0.0700
13791W        W30265  14.610  12.613  13.106  0.1048 -0.5201 -0.0990
13792W        W30266  18.845   0.281  10.871 -0.0177  0.0590  0.0873
13793W        W30267  18.919  13.753  11.199 -0.0039  0.2350  0.3231
13794W        W30268  11.351   0.435  11.385 -0.0032  0.0411 -0.0816
13795W        W30269  18.191  14.427   4.172 -0.0795  0.0310 -0.0537
13796W        W30270  14.433  15.181   1.771  0.3632 -0.1278 -0.3463
13797W        W30271   1.474  14.634  14.248 -0.1604  0.3225  0.0378
13798W        W30272  14.605  11.572   2.436  0.1310  0.0355 -0.2266
13799W        W30273   2.436  16.409   1.712 -0.1267 -0.0051 -0.1143
13800W        W30274  16.912  11.254   5.453 -0.1989  0.1154  0.2181
13801W        W30275  17.818  18.256  12.550  0.0572  0.1939  0.1026
13802W        W30276   3.613  10.615   2.586 -0.2661  0.1088  0.0336
13803W        W30277  13.451  18.225   2.176  0.2734  0.0104 -0.0955
13804W        W30278   8.084   5.741  13.407  0.1170  0.1389 -0.0905
13805W        W30279   1.646   2.998   1.959 -0.5309  0.0003 -0.0171
13806W        W30280  17.871  14.840  12.830  0.2331 -0.1639  0.1268
13807W        W30281  12.579  17.451  12.412  0.0813 -0.1487 -0.2118
13808W        W30282  15.229  17.049   2.612 -0.0185 -0.0287  0.4249
13809W        W30283  17.122   6.274  13.799 -0.0234  0.1231  0.1500
13810W        W30284  18.942   5.053   4.452 -0.0078 -0.1038 -0.0832
13811W        W30285  19.284  11.368   4.417 -0.0874  0.2306 -0.2601
13812W        W30286   4.621   2.208  14.575  0.1787 -0.1237  0.1295
13813W        W30287  17.944   2.894   4.451 -0.1406  0.0030  0.0639
13814W        W30288  14.454  17.457   1.819  0.1548 -0.1624  0.2320
13815W        W30289  18.004  11.188  12.944 -0.0354  0.0380 -0.4600
13816W        W30290   7.967   4.146  14.437  0.2525  0.3934  0.0120
13817W        W30291  19.351  14.910   1.390  0.0525  0.2142  0.2637
13818W        W30292   3.181  13.174  12.181 -0.0229 -0.0889  0.0181
13819W        W30293   5.684  10.978   4.003 -0.0580  0.0759 -0.0313
13820W        W30294   1.788   0.288   9.813  0.1059 -0.0796 -0.2723
13821W        W30295   6.774  10.294   4.654  0.4458  0.1959  0.0390
13822W        W30296  17.724   7.575  11.284 -0.0313 -0.3082 -0.1877
13823W        W30297  11.021  18.283  11.553 -0.1027  0.3051  0.1976
13824W        W30298   2.786   1.890  12.924 -0.2712 -0.0380  0.0396
13825W        W30299  19.309   3.951  10.479 -0.3642 -0.1010  0.1223
13826W        W30300   2.529  11.552   2.489  0.3302  0.1208  0.2256
13827W        W30301   8.851  13.874   4.535  0.1758 -0.0106 -0.3937
13828W        W30302  14.217  12.319   4.694  0.2051  0.0323 -0.4664
13829W        W30303  16.058  15.308   0.890  0.1059  0.1951  0.4797
13830W        W30304   8.568   5.661  13.479 -0.0150 -0.0911  0.2788
13831W        W30305   6.810  17.163   3.605 -0.0005 -0.0113 -0.0380
13832W        W30306  16.634  18.063   0.798  0.1386 -0.0960 -0.0684
13833W        W30307   4.920   6.668  11.586 -0.3073  0.2211  0.2638
13834W        W30308   4.614  17.809   8.484  0.0638  0.0920  0.2395
13835W        W30309  17.946   5.396  11.164  0.1598 -0.4282  0.0178
13836W        W30310   9.109   3.277   3.353  0.1252  0.1193  0.1013
13837W        W30311  10.289   5.181   4.921 -0.0481  0.0208 -0.0565
13838W        W30312  17.592   9.429  13.758 -0.2981 -0.2799  0.2305
13839W        W30313   1.278  14.722  11.403  0.1639  0.0343 -0.0655
13840W        W30314   5.394  18.801   9.134 -0.1387 -0.0770 -0.0221
13841W        W30315   7.103  11.938   3.581  0.0926  0.3886  0.0343
13842W        W30316  10.498   1.683   4.327 -0.3607  0.2714  0.2154
13843W        W30317   2.438  16.676  12.393 -0.0053  0.0100  0.2005
13844W        W30318  16.593  18.819   4.058 -0.1137 -0.2105 -0.1428
13845W        W30319  10.180  14.186   4.056  0.0600  0.2209  0.2191
13846W        W30320  14.124   1.270   4.116  0.1816  0.0244 -0.0551
13847W        W30321  19.553  10.167  11.376 -0.1272  0.0052  0.1084
13848W        W30322  10.173  12.018   4.566  0.0079 -0.1714 -0.5737
13849W        W30323   9.090  15.037  13.983 -0.2167 -0.1887  0.2421
13850W        W30324   8.946   4.679  13.323  0.1510 -0.2910 -0.1250
13851W        W30325  12.932  19.240  12.669  0.2171  0.2398 -0.0734
13852W        W30326   8.674   4.659   1.516 -0.0052 -0.1715 -0.1372
13853W        W30327  12.677   7.407  11.786 -0.0283  0.3472  0.1027
13854W        W30328  14.212  10.289   1.375 -0.1911  0.2268  0.0322
13855W        W30329   3.446   3.332  10.695 -0.0619 -0.1356 -0.1647
13856W        W30330  11.182   4.537   0.978 -0.2338 -0.1654  0.0290
13857W        W30331   0.403   9.610   3.966  0.1152  0.1672  0.1211
13858W        W30332   5.446   7.083  12.198 -0.2861  0.2042 -0.1107
13859W        W30333  16.439   6.048  14.073 -0.1028 -0.0021  0.1792
13860W        W30334   8.814   3.235   1.666  0.1225  0.0071 -0.1587
13861W        W30335  19.504   1.254   4.493  0.1484 -0.2389  0.1774
13862W        W30336  12.718  10.502   5.507 -0.0065 -0.0876 -0.1485
13863W        W30337  14.245  17.860   2.217 -0.3665  0.1293 -0.2319
13864W        W30338   5.720   3.637   5.015 -0.2180 -0.0921  0.0295
13865W        W30339   4.269  11.326  13.663 -0.0502  0.0192  0.1588
13866W        W30340   1.516   0.795  12.632  0.2140 -0.1507  0.1314
13867W        W30341   0.807   8.965  14.439  0.2367  0.0353 -0.0245
13868W        W30342   2.156   2.277  11.902 -0.2134  0.2776 -0.0985
13869W        W30343   9.378  11.318   2.170  0.1053 -0.0536 -0.0122
13870W        W30344   1.300  14.243  14.005 -0.0876 -0.1739  0.2902
13871W        W30345   9.895   2.636  11.469 -0.5626 -0.1996 -0.1345
13872W        W30346   8.294   3.464   1.671  0.3714 -0.1538  0.1014
13873W        W30347  10.221   9.184  11.141  0.0530  0.0308  0.0385
13874W        W30348  11.021   7.974   3.933 -0.2335  0.3228 -0.0541
13875W        W30349  18.252  14.972   0.599 -0.0672 -0.0496 -0.1719
13876W        W30350  18.305   0.036   1.482  0.4162 -0.0539  0.0282
13877W        W30351   5.991   8.440  11.275 -0.1345 -0.0757  0.1243
13878W        W30352   6.051   9.624   0.166 -0.2162 -0.1062 -0.0598
13879W        W30353  11.406  13.882   1.799  0.2306 -0.0335 -0.3360
13880W        W30354  15.426  16.342  10.803 -0.0861 -0.1920 -0.2580
13881W        W30355   3.518   8.723  12.432 -0.0236 -0.3100  0.1853
13882W        W30356   3.407   9.287   5.229  0.0761  0.0689 -0.0747
13883W        W30357   8.304  18.786   1.863 -0.2476 -0.4081  0.0196
13884W        W30358   4.023   6.030   2.957 -0.3393  0.0872 -0.1131
13885W        W30359  18.233   7.685  11.475  0.1623 -0.0664 -0.1165
13886W        W30360  14.820   4.321  14.250 -0.0901  0.1605 -0.0549
13887W        W30361  17.080  14.533   0.065 -0.0885 -0.0123 -0.1065
13888W        W30362  15.966  15.874  13.128  0.2905 -0.0938  0.0827
13889W        W30363   7.752  16.824  11.911  0.1153 -0.1434  0.0447
13890W        W30364   1.554  15.189  10.957  0.0882 -0.1591 -0.2310
13891W        W30365   4.000  18.702   4.446  0.1006 -0.1188  0.1131
13892W        W30366  10.049   7.159   1.172 -0.1322 -0.1024 -0.1051
13893W        W30367  11.538  14.680   0.855 -0.2524 -0.1993 -0.2039
13894W        W30368   9.335   2.148  11.787  0.1193 -0.0142  0.2719
13895W        W30369   9.292   6.742   2.270 -0.0555  0.1905 -0.0268
13896W        W30370  16.800  16.718   9.483 -0.2762  0.2531 -0.1898
13897W        W30371   5.868  12.004   4.664  0.2038  0.5534 -0.0231
13898W        W30372   3.441   8.325  14.502  0.1666  0.0706 -0.0597
13899W        W30373  18.154  15.883   0.698  0.3157 -0.0580 -0.0314
13900W        W30374  18.426   3.957   3.129 -0.0870  0.1755 -0.2842
13901W        W30375  18.874  17.850  13.342  0.2694  0.2788  0.3646
13902W        W30376  18.912  14.150  12.226 -0.3121 -0.0023  0.3129
13903W        W30377  12.022  12.167  11.116  0.4422  0.2203 -0.1819
13904W        W30378   4.831  16.091  10.717  0.4551 -0.1676 -0.2213
13905W        W30379  14.700  17.949  13.874 -0.5057 -0.2089  0.0135
13906W        W30380   4.363   4.625   5.655 -0.1080  0.1492 -0.0858
13907W        W30381   4.798  13.550   0.979 -0.0757  0.0107  0.0110
13908W        W30382   4.669   2.761   5.021 -0.2384  0.1746  0.2142
13909W        W30383  17.387   1.871  10.040 -0.3849  0.2436 -0.0762
13910W        W30384   9.719   3.568  13.038  0.1801  0.0644 -0.1318
13911W        W30385   5.977   9.941  14.429 -0.0843 -0.0834 -0.0376
13912W        W30386   8.918   1.870  12.993 -0.0381 -0.1652 -0.2135
13913W        W30387   8.759   7.193  11.402  0.3047  0.3185  0.3062
13914W        W30388   6.845  16.849   1.937  0.1578 -0.2176  0.0704
13915W        W30389   3.660  10.075   2.672  0.1082 -0.2140  0.1867
13916W        W30390  14.176   8.881  13.104 -0.1474 -0.2508  0.1933
13917W        W30391  15.157  17.916  12.851  0.0738  0.1049  0.1625
13918W        W30392   9.495   4.290   4.325 -0.0598 -0.2063  0.2023
13919W        W30393   3.428   6.295   2.921 -0.0540 -0.2179  0.0472
13920W        W30394   5.279   6.214   1.917 -0.1472  0.0508 -0.0202
13921W        W30395  11.776   4.954  14.202  0.2615 -0.1360 -0.0857
13922W        W30396  14.917   1.645  14.365  0.0495  0.0423  0.5909
13923W        W30397  18.338   2.168  12.889 -0.0119 -0.0636 -0.1217
13924W        W30398   2.132  18.402   9.701  0.1938 -0.1957  0.3623
13925W        W30399  15.772  17.559  11.408 -0.0026 -0.1350 -0.0988
13926W        W30400   1.741  14.941  11.377 -0.0353  0.1370 -0.0529
13927W        W30401   7.071  10.866   1.065 -0.3016 -0.2876  0.2610
13928W        W30402  15.511  16.673   2.374 -0.0265  0.1932  0.1349
13929W        W30403  13.950  14.650   4.216  0.3576  0.3936  0.0651
13930W        W30404   5.908   6.449  10.744 -0.2167 -0.0763  0.2150
13931W        W30405   9.290   5.185   0.034 -0.1295 -0.2615  0.0863
13932W        W30406  11.211  17.251  13.683  0.0780  0.4454 -0.0292
13933W        W30407   5.661   2.693   1.025  0.0338 -0.0311  0.0320
13934W        W30408  10.467   9.809   5.352 -0.0942 -0.1004  0.4295
13935W        W30409  16.271   7.446   2.356 -0.0455  0.2153  0.4248
13936W        W30410   6.941  15.202   0.749  0.1400 -0.5297  0.0142
13937W        W30411   1.988  18.323  11.319 -0.3259 -0.3029  0.0187
13938W        W30412  15.983  13.054  11.401 -0.3532 -0.0954 -0.0039
13939W        W30413   4.714  13.624  11.453  0.1525 -0.1191  0.0109
13940W        W30414  17.623   8.230  14.641 -0.2550 -0.0953  0.0044
13941W        W30415   8.079  13.634  14.246  0.1678 -0.0785 -0.0006
13942W        W30416   3.439   3.560  13.646  0.0214  0.2567 -0.3325
13943W        W30417  10.223   9.795   2.550  0.4123  0.3428 -0.0212
13944W        W30418   1.005   2.158  10.780  0.2593  0.1772 -0.1478
13945W        W30419  17.769  13.399  11.151 -0.2464  0.1863  0.4162
13946W        W30420  10.973  12.210   1.867  0.2954 -0.1912 -0.0382
13947W        W30421  10.332  12.708  11.751 -0.1373  0.1369  0.0230
13948W        W30422   2.887  15.049   1.865 -0.1160 -0.1995 -0.1405
13949W        W30423  12.289   0.426  13.119 -0.0753 -0.0741  0.1211
13950W        W30424   2.600  14.571   1.871 -0.2435  0.2521  0.5219
13951W        W30425  14.649  13.411   1.124 -0.2841  0.1371 -0.0667
13952W        W30426  18.544  12.997  10.826 -0.1557 -0.2779 -0.0127
13953W        W30427   9.113  17.344  12.329 -0.2276  0.0593  0.0328
13954W        W30428  17.175   5.065  14.704  0.2155  0.1494 -0.1083
13955W        W30429  15.443   0.213   9.536  0.2265 -0.2207 -0.0761
13956W        W30430  11.078   8.862  10.447 -0.2348 -0.0374  0.4106
13957W        W30431  12.907   8.629   5.824  0.0194  0.1437 -0.5894
13958W        W30432  14.855   9.090   0.698  0.2005 -0.2083  0.4769
13959W        W30433  19.116   7.165  12.359  0.4055  0.0622 -0.2596
13960W        W30434  12.735  14.219   0.281  0.0502 -0.3494  0.3913
13961W        W30435  14.436   1.642  11.169 -0.1305  0.2673 -0.1909
13962W        W30436  19.410   1.163   1.281 -0.0640 -0.2970 -0.1474
13963W        W30437   3.632  10.936  14.273 -0.1965 -0.1309  0.1295
13964W        W30438   9.607   1.302   3.813  0.3366  0.4312  0.0391
13965W        W30439  16.197  18.324  11.801  0.1140  0.2020 -0.1193
13966W        W30440  17.404  13.360  12.170  0.1270  0.1391 -0.2902
13967W        W30441  11.241  14.430  13.680  0.0035 -0.0293 -0.0790
13968W        W30442   3.265   2.153  12.033 -0.1603  0.1563  0.0725
13969W        W30443   0.677  11.231  10.298 -0.0021 -0.0577  0.0240
13970W        W30444  18.659   4.321   0.758  0.2222 -0.0839  0.0944
13971W        W30445   0.236   0.935  13.607 -0.1560  0.3024 -0.1331
13972W        W30446   4.054   0.444   1.735  0.2543 -0.0979  0.0465
13973W        W30447  16.311   6.168   3.139 -0.1105  0.1748 -0.0963
13974W        W30448  14.023  14.388  12.774 -0.0528 -0.1056 -0.1606
13975W        W30449   1.517   0.164  12.587 -0.1640 -0.1178 -0.1837
13976W        W30450   7.536  12.228  14.382  0.1921 -0.1750  0.3321
13977W        W30451  14.686   9.905   1.843 -0.2617 -0.1650  0.1048
13978W        W30452   4.115  17.823   3.405 -0.1656 -0.1225  0.2538
13979W        W30453  13.847   1.635   2.397 -0.4646 -0.2111  0.3462
13980W        W30454  13.899   7.596   0.135  0.0266  0.1235 -0.2563
13981W        W30455  14.979   8.388  14.163  0.0851 -0.1048 -0.1573
13982W        W30456  18.841   2.943   1.109  0.2936 -0.1100  0.0562
13983W        W30457   5.575   7.488   3.344  0.1495  0.1285  0.0863
13984W        W30458  16.475   8.831   3.605  0.1106 -0.0739 -0.1942
13985W        W30459   8.481   1.796   0.471  0.0209  0.0566 -0.0902
13986W        W30460   0.741   1.503   1.931 -0.0840 -0.1029 -0.1023
13987W        W30461  10.411   3.827   0.619  0.1422  0.2434  0.3429
13988W        W30462   6.447   3.278   0.655 -0.3082 -0.0578 -0.6088
13989W        W30463   3.948  12.504   2.963  0.0154 -0.0684 -0.0399
13990W        W30464   8.572  11.366  12.306 -0.0836 -0.0033 -0.1391
13991W        W30465   0.896   7.774  12.085  0.0842 -0.2751  0.1959
13992W        W30466  16.560  13.418   2.676  0.0582 -0.2909 -0.1411
13993W        W30467   5.631   1.052   3.283 -0.3178 -0.1450 -0.2117
13994W        W30468   3.285  15.259  10.844  0.1096 -0.1564  0.0322
13995W        W30469  15.114  16.583  11.260 -0.2641 -0.1200  0.2967
13996W        W30470  17.174  13.731  11.788 -0.1335  0.0420 -0.3158
13997W        W30471  11.355  14.806   1.341 -0.3173 -0.1832  0.0568
13998W        W30472   1.855  16.531   3.195 -0.0015  0.0021  0.3138
13999W        W30473   9.079  11.608  14.421 -0.0563 -0.0325  0.3062
14000W        W30474   5.429  15.971  11.897  0.0553 -0.4469 -0.0020
14001W        W30475   8.417   3.012  13.635 -0.0725  0.2195 -0.2013
14002W        W30476  11.493  10.440  11.613  0.0380  0.2256 -0.2627
14003W        W30477   0.705   0.180  14.506  0.1435 -0.2233  0.0079
14004W        W30478   6.071  12.863  14.182 -0.1109 -0.1783  0.0330
14005W        W30479   9.708   2.675   3.112 -0.0232  0.0849  0.0961
14006W        W30480   6.339   3.898   4.532 -0.1976  0.1667 -0.0392
14007W        W30481   7.225   7.705  11.249 -0.3018 -0.3890  0.0868
14008W        W30482  11.322   2.310  10.931 -0.4673  0.0300  0.0399
14009W        W30483   7.379   6.299  12.916  0.0500 -0.2576 -0.0489
14010W        W30484   1.989   0.077   2.809  0.0382  0.0458 -0.0988
14011W        W30485  11.039  18.697   2.841  0.3455  0.0533  0.3029
14012W        W30486  19.132   2.463   4.515  0.0608  0.0368  0.1649
14013W        W30487   7.412  17.995   9.139 -0.2499  0.0936  0.1249
14014W        W30488  11.878   2.558  10.753  0.1749  0.1070  0.0605
14015W        W30489   7.661   5.556   5.361 -0.0247 -0.1578 -0.2678
14016W        W30490   5.818  13.716   4.287  0.2201 -0.2085 -0.3258
14017W        W30491  17.904  16.974   3.372  0.0175 -0.0239 -0.0895
14018W        W30492   6.338  16.970   0.425 -0.1501 -0.1339  0.1381
14019W        W30493  14.699  14.562   3.826 -0.4131  0.2092  0.0462
14020W        W30494   6.986   4.309   2.736  0.0389  0.2825  0.0746
14021W        W30495  10.567  14.307  11.344  0.1012  0.0879 -0.1230
14022W        W30496   5.511  11.904   3.548 -0.1427 -0.0355 -0.1364
14023W        W30497  12.812   5.242   2.530 -0.3530 -0.4097 -0.2074
14024W        W30498  18.536   8.087   0.176 -0.0339 -0.0223  0.0773
14025W        W30499  19.202   4.036   2.689  0.1952 -0.2951 -0.2717
14026W        W30500  14.742  12.106   5.515 -0.0928  0.1875 -0.2039
14027W        W30501   1.314   1.971  11.790 -0.0501 -0.4024  0.0528
14028W        W30502   5.165  13.547   5.130 -0.1592  0.0361 -0.2246
14029W        W30503   3.788  10.603  11.968  0.1185  0.1579 -0.0881
14030W        W30504   8.110   6.199   4.829 -0.3248  0.1134 -0.0147
14031W        W30505   1.297  18.028  11.193  0.2165 -0.4582 -0.1220
14032W        W30506  14.610   8.960   1.877 -0.0512  0.5315  0.1168
14033W        W30507  19.440   3.556  10.938 -0.0474 -0.4332 -0.1456
14034W        W30508  12.437   1.859  13.885  0.1928 -0.0682 -0.0045
14035W        W30509  12.049  12.406   1.263 -0.2632 -0.3239  0.0448
14036W        W30510  11.316  14.945   2.672  0.1469  0.1474 -0.0287
14037W        W30511  13.951  13.914  11.321  0.0683 -0.1415 -0.0929
14038W        W30512  12.648   6.628  13.378  0.1872 -0.1487 -0.1470
14039W        W30513   1.201  12.734   2.447  0.0365 -0.3202  0.3103
14040W        W30514   2.378  15.319   2.482  0.1454  0.1038  0.1201
14041W        W30515  17.384  10.730  10.948  0.0383  0.0712  0.2373
14042W        W30516   0.153   9.347  11.562 -0.0653  0.4196  0.3578
14043W        W30517  15.113  13.124  11.539 -0.2817  0.0942 -0.0435
14044W        W30518   9.988   8.708   3.892  0.2178 -0.2373  0.0677
14045W        W30519   7.342   8.258   2.752 -0.1946  0.0494  0.5071
14046W        W30520  13.979   7.280   3.688  0.4542 -0.1010 -0.0371
14047W        W30521  10.960   8.238  13.690 -0.2491  0.0649  0.1187
14048W        W30522  19.263   9.529   4.900  0.2236  0.2160 -0.2739
14049W        W30523   9.440   0.525   9.173 -0.1547  0.2437 -0.0395
14050W        W30524   1.384   1.814   3.931  0.0886  0.2941  0.0101
14051W        W30525   3.728  18.717   3.152  0.3854  0.1246 -0.0910
14052W        W30526   1.104   3.497   1.274 -0.4447 -0.0351  0.2123
14053W        W30527  13.518   9.576   4.901  0.2833 -0.2256  0.0248
14054W        W30528   9.869   3.385   5.181 -0.3726 -0.3603  0.0917
14055W        W30529  13.567  11.130   3.603  0.1510  0.0162 -0.1659
14056W        W30530   1.773   1.523   4.734 -0.3717 -0.0540 -0.1632
14057W        W30531  18.633   1.658   0.964 -0.0491 -0.0781  0.2391
14058W        W30532   8.555  15.220  14.639  0.3839 -0.0949  0.1543
14059W        W30533  11.382  14.511  13.158 -0.0590 -0.1399 -0.0873
14060W        W30534  15.517  10.067  10.971 -0.0667 -0.1732  0.3500
14061W        W30535   0.049   7.564   0.972 -0.1356 -0.0312 -0.0125
14062W        W30536  13.639  12.902  12.729  0.1346  0.1081 -0.1482
14063W        W30537  14.978  12.947  10.429  0.1930  0.1937  0.3371
14064W        W30538   6.953  13.517  11.984  0.2698  0.2958  0.0087
14065W        W30539   6.018   8.569   1.906  0.0606 -0.1724 -0.1112
14066W        W30540   7.638  17.218  11.497  0.1853  0.1365 -0.1795
14067W        W30541  12.285  15.416  10.436 -0.0745 -0.2833  0.1528
14068W        W30542   1.801   9.958  14.003 -0.3397 -0.2212 -0.0929
14069W        W30543  19.209  17.035   1.667  0.2081  0.0739  0.0449
14070W        W30544  11.506   6.746  11.306  0.2085 -0.0036 -0.1040
14071W        W30545   0.454  16.404   2.993  0.2199  0.1047  0.1120
14072W        W30546  17.167   2.547   0.932 -0.0491 -0.0769  0.0465
14073W        W30547  11.292   1.557  13.101 -0.0040  0.0013 -0.1897
14074W        W30548   3.951  17.816  11.707  0.0573  0.1347 -0.0978
14075W        W30549   0.884  10.393  11.979  0.0320  0.3466  0.3951
14076W        W30550  17.078   9.029  11.397 -0.0689 -0.1170  0.0383
14077W        W30551  16.321   0.023   3.453 -0.0087  0.3413 -0.0214
14078W        W30552  12.809  11.811  13.396 -0.2740 -0.4381 -0.2174
14079W        W30553  12.555  18.196   3.785 -0.0388  0.1915 -0.0762
14080W        W30554  13.095  15.290   3.788  0.2757 -0.0546 -0.0273
14081W        W30555   2.669  18.694  10.779  0.0695 -0.0574 -0.1824
14082W        W30556  11.413  18.919  10.824  0.0302  0.1875  0.0856
14083W        W30557  12.044  13.700  13.494  0.0289 -0.1470 -0.4009
14084W        W30558  18.963  10.488   4.496  0.0135 -0.0387  0.0011
14085W        W30559  19.118  16.573  10.820 -0.0590  0.0914  0.4126
14086W        W30560  14.938   7.756   0.902 -0.2401 -0.0059 -0.0355
14087W        W30561  11.570   0.902  13.150 -0.0165  0.1387 -0.2045
14088W        W30562   4.383   3.923   4.744 -0.0404  0.1412 -0.0134
14089W        W30563   6.865  11.886  13.366 -0.1310 -0.1523  0.2089
14090W        W30564   9.271   5.860   3.046  0.3457  0.0144  0.0654
14091W        W30565   9.412   6.147  11.035  0.2201  0.0739  0.0614
14092W        W30566   6.838  18.918   5.073 -0.3939 -0.1409 -0.1461
14093W        W30567  14.584  14.064  12.667  0.1253 -0.2087 -0.2627
14094W        W30568  14.617   6.779  10.313  0.1350  0.1608  0.1006
14095W        W30569  11.228   4.136  13.633 -0.5221  0.0039 -0.1153
14096W        W30570  19.294  13.629   0.009 -0.1370 -0.0136 -0.0047
14097W        W30571   5.270   0.686   0.871 -0.0581 -0.2063 -0.0927
14098W        W30572   2.939  15.075  14.446 -0.1080 -0.2459 -0.0754
14099W        W30573   6.589  13.401  12.875  0.1601  0.1433  0.0806
14100W        W30574   9.556   2.829  12.053 -0.0814  0.1517 -0.0542
14101W        W30575  17.683  14.290   2.148 -0.2219  0.1265 -0.1672
14102W        W30576  18.017  19.251   2.983 -0.0010 -0.2421 -0.0866
14103W        W30577  10.064  13.518  13.810 -0.1265 -0.2087 -0.1752
14104W        W30578  18.423  17.305   2.880  0.0829 -0.0282  0.1632
14105W        W30579  17.389   6.782   3.606  0.2362 -0.1137 -0.0457
14106W        W30580  10.358   6.180   3.993 -0.1950 -0.0566 -0.1786
14107W        W30581   8.206   7.207  12.380  0.1223  0.2018  0.0989
14108W        W30582   7.380   6.253  11.532  0.1564  0.2690 -0.1122
14109W        W30583  14.584  15.095   3.705 -0.1399  0.1373  0.0100
14110W        W30584  17.865   0.160  11.930 -0.0451  0.0280 -0.2849
14111W        W30585  19.215   9.812  11.520  0.1349 -0.0063 -0.2329
14112W        W30586  18.715  18.653  11.732  0.0366  0.0547 -0.1384
14113W        W30587   7.303  16.935  11.636  0.1649  0.3982 -0.0780
14114W        W30588   5.611  13.430  13.504  0.1669  0.2326 -0.1906
14115W        W30589  19.016  15.234  12.285  0.4330  0.0175  0.0585
14116W        W30590   9.021  16.554   9.520 -0.4806 -0.0376 -0.2201
14117W        W30591  17.423   1.700   1.668 -0.0816 -0.1890  0.3289
14118W        W30592  11.209  18.940  14.684  0.1124  0.0309  0.3521
14119W        W30593   8.096   7.488   0.359  0.0826  0.2540 -0.0826
14120W        W30594   7.662   8.038  13.115  0.3257  0.0988  0.2912
14121W        W30595  11.534  19.300   4.297  0.3539  0.1108 -0.0189
14122W        W30596  17.910   4.465   4.902  0.1465 -0.4633  0.2101
14123W        W30597  15.750  12.107  12.216 -0.6279  0.0793  0.0390
14124W        W30598   7.137  10.652  10.841 -0.2443 -0.1324 -0.0685
14125W        W30599   6.164  17.316  12.649  0.0914  0.2423  0.3464
14126W        W30600   9.100  16.902   3.027  0.0600  0.3741  0.1203
14127W        W30601   4.035   0.836   4.228  0.0653 -0.1211 -0.1595
14128W        W30602   4.911  15.150  10.305  0.0798  0.2166  0.1677
14129W        W30603   9.275  16.270  11.257  0.0658 -0.0971 -0.1403
14130W        W30604   7.211  11.436  12.380 -0.1175  0.0311  0.0256
14131W        W30605   7.736   7.376   4.355 -0.2665  0.0213  0.0760
14132W        W30606   3.853   2.697  11.065 -0.0698 -0.0924 -0.0418
14133W        W30607  18.789  12.207   5.066 -0.2430  0.1285 -0.0683
14134W        W30608   8.788   9.405   5.069 -0.2689 -0.1523  0.0723
14135W        W30609  19.368  11.127  12.476  0.2287 -0.0052  0.1822
14136W        W30610  15.255   6.049  14.145  0.3754  0.0717 -0.0327
14137W        W30611  13.081   5.625   1.805 -0.0208 -0.1027 -0.3894
14138W        W30612   1.330   8.264   1.287 -0.0475  0.2544  0.0985
14139W        W30613   1.885  16.364  13.074  0.1901  0.2402 -0.1301
14140W        W30614  15.799   7.785   3.074  0.0771  0.0642 -0.1123
14141W        W30615   8.981  13.882  14.547 -0.4490  0.0302  0.2260
14142W        W30616  17.965   7.400   0.250 -0.0720 -0.0941 -0.0356
14143W        W30617  10.157  12.547  12.297 -0.1292  0.0333  0.2099
14144W        W30618   0.528  13.551   1.137 -0.1039 -0.3243  0.0059
14145W        W30619   3.258   3.628   4.931 -0.0224  0.0380  0.2639
14146W        W30620   3.634  10.144   9.469  0.2334 -0.0147  0.0132
14147W        W30621   8.169   2.383   4.378  0.3486  0.0398  0.2626
14148W        W30622   2.002  18.493   0.087 -0.0176  0.1788 -0.3543
14149W        W30623   5.041  10.220   4.136  0.1591 -0.2049  0.1872
14150W        W30624   6.447  10.078   0.833 -0.0840 -0.0226  0.0672
14151W        W30625   9.346   9.382   4.460  0.2061 -0.2330 -0.0258
14152W        W30626   8.647  17.050   0.066 -0.2617  0.1483  0.2805
14153W        W30627  16.997  10.299  12.967  0.0838 -0.0929 -0.0772
14154W        W30628  12.017  10.494   0.790  0.0275  0.0806 -0.0068
14155W        W30629  10.107  19.361   5.526  0.3583 -0.1035  0.0329
14156W        W30630   8.106  16.065   1.908  0.2781  0.1300  0.0632
14157W        W30631   3.674   3.461   0.811  0.2709 -0.1174 -0.3636
14158W        W30632  13.749   2.774   0.171 -0.1298  0.3016  0.2692
14159W        W30633   0.970   1.453   8.899 -0.2107  0.0965 -0.1334
14160W        W30634   2.132   9.071   3.820  0.1103  0.0456 -0.3800
14161W        W30635   7.326  12.020  13.143 -0.2019 -0.0375  0.1013
14162W        W30636   7.857   4.538   3.770 -0.0673  0.3598  0.2697
14163W        W30637  17.319  15.376  12.845  0.2338 -0.1562  0.2953
14164W        W30638   7.247  16.161  10.952  0.1932 -0.1523 -0.0498
14165W        W30639  15.672  15.668   2.148  0.1136  0.0816 -0.2344
14166W        W30640  17.851  10.587   1.975  0.2370  0.3206 -0.0849
14167W        W30641  11.619   4.576  13.587 -0.0072  0.0496 -0.1348
14168W        W30642  16.139  11.019  10.184 -0.0137  0.3430  0.4988
14169W        W30643   7.782   0.324   1.878  0.2463  0.2112 -0.2217
14170W        W30644   2.703   5.889   4.218 -0.6307  0.0862  0.0472
14171W        W30645   9.346   7.264   2.326  0.0480  0.2665 -0.1414
14172W        W30646   4.954   0.520   3.336 -0.1282 -0.2757  0.1880
14173W        W30647  13.092  18.129   2.965  0.0088 -0.3443 -0.1080
14174W        W30648  10.285  11.303  11.216 -0.2141 -0.2442  0.0110
14175W        W30649   8.459  13.785  14.579  0.1719  0.0537 -0.0661
14176W        W30650   9.118   8.204   2.334 -0.2352  0.3063 -0.1798
14177W        W30651   2.066  15.414   2.867  0.2841  0.0713  0.1683
14178W        W30652   6.272   9.732   1.312 -0.3170 -0.1818  0.0489
14179W        W30653  10.434   6.983  13.301  0.0156  0.1777  0.2196
14180W        W30654  10.313   0.907  13.637 -0.1893 -0.0800 -0.1440
14181W        W30655   9.076   3.422  13.847  0.0818  0.1093 -0.0307
14182W        W30656  14.835  17.824  11.391 -0.0274  0.0718  0.0814
14183W        W30657   5.767  14.076  12.277 -0.0175 -0.4048  0.1804
14184W        W30658   8.583   5.042  12.579 -0.0548 -0.2165 -0.3793
14185W        W30659   9.563   4.552   3.562 -0.0584 -0.0587  0.1486
14186W        W30660   7.699  17.060  13.653  0.1831  0.1472 -0.2554
14187W        W30661  14.275   7.636   3.578  0.1344 -0.0953 -0.0573
14188W        W30662  10.326  11.735  10.957  0.3938 -0.1765  0.0631
14189W        W30663  11.464  16.928  14.375  0.2662 -0.5445 -0.1454
14190W        W30664   3.022  15.763   2.453 -0.0864  0.2776 -0.0391
14191W        W30665  12.482  15.129   0.724  0.0400 -0.2358 -0.0124
14192W        W30666   4.248  13.157   0.417  0.2892  0.1720  0.0542
14193W        W30667   7.295   4.631  12.441 -0.4547  0.0320  0.0910
14194W        W30668   5.031  10.326  10.708  0.2762 -0.0525 -0.2292
14195W        W30669  16.859  16.120  12.504 -0.4263 -0.1492  0.0601
14196W        W30670  19.197   5.302  12.404  0.0484  0.2750 -0.1120
14197W        W30671  19.007   6.808  11.172  0.5618 -0.0776 -0.0769
14198W        W30672  16.666  18.817  12.337  0.1704  0.1511 -0.1466
14199W        W30673  19.329  12.455   1.899 -0.2468  0.0846 -0.0956
14200W        W30674  10.567  13.156   0.161 -0.2288 -0.0964  0.2137
14201W        W30675   0.999  17.264  10.990 -0.1722  0.0047  0.5189
14202W        W30676   3.052  16.843  12.011  0.1571  0.1855  0.2533
14203W        W30677  12.670  18.529   1.403 -0.0347  0.0195  0.0489
14204W        W30678  10.491   5.494   2.847  0.0295 -0.0466 -0.0011
14205W        W30679  13.640  18.733  14.160 -0.1638  0.1963 -0.2156
14206W        W30680   6.494   3.300  12.627  0.1808  0.0849 -0.5718
14207W        W30681   6.190  13.947   0.198 -0.1741 -0.0809  0.1038
14208W        W30682  17.410   4.278  11.060 -0.0773 -0.4159  0.0927
14209W        W30683  18.447   0.372  12.795 -0.2318  0.4803 -0.1267
14210W        W30684   2.066  12.239  11.443  0.0356  0.4871  0.2078
14211W        W30685  13.396   4.396  14.664  0.2795  0.0685  0.1774
14212W        W30686  14.724   1.371   2.732  0.4170  0.2452  0.2072
14213W        W30687   0.518  10.451  12.859  0.0030 -0.3798 -0.0290
14214W        W30688   3.656  19.068   4.188  0.1830 -0.1730 -0.1256
14215W        W30689  18.893   4.125   4.812 -0.1770  0.3230  0.0694
14216W        W30690   1.097  12.786  10.894  0.0942 -0.0865 -0.3743
14217W        W30691  16.026  17.875   9.433 -0.1706 -0.0511 -0.0088
14218W        W30692   5.791   4.894  11.636  0.2319 -0.1540 -0.1169
14219W        W30693  11.606   0.309   5.058  0.1197 -0.1989 -0.4324
14220W        W30694   5.110  15.846   9.854  0.0559  0.0410 -0.1444
14221W        W30695  17.355  17.170   0.951 -0.2238  0.1721 -0.1404
14222W        W30696   0.427   3.977   0.701 -0.4462  0.0149  0.0677
14223W        W30697   3.415   5.340   1.762  0.3294  0.2558 -0.0948
14224W        W30698   4.022   1.131   0.487  0.0236  0.0061  0.1982
14225W        W30699   3.904   0.714   1.331 -0.2992  0.0573  0.2666
14226W        W30700  19.093   7.338   1.620  0.0562 -0.0149  0.1518
14227W        W30701  15.791   4.569  13.519  0.2235  0.0015 -0.0322
14228W        W30702  15.347   9.593  10.973  0.1442  0.0731 -0.1266
14229W        W30703  10.090  12.895   2.921 -0.4235 -0.0461 -0.0924
14230W        W30704  11.321  13.919   3.079 -0.1221 -0.0680 -0.1963
14231W        W30705   4.133   1.389  12.661 -0.0240 -0.0690 -0.1552
14232W        W30706   2.630  14.969  12.087 -0.3642  0.0568 -0.1732
14233W        W30707   0.207  13.896   2.790 -0.2642 -0.0324 -0.0282
14234W        W30708   5.786  14.394   3.405 -0.1743 -0.2747  0.3046
14235W        W30709   7.405  12.182  10.717  0.0761 -0.3258  0.1322
14236W        W30710   0.674   6.724   2.174 -0.1490  0.4052  0.0356
14237W        W30711   5.394   0.206  10.159  0.2590  0.1101  0.0618
14238W        W30712   5.757   9.679  11.654 -0.3308 -0.1889  0.0355
14239W        W30713   0.456   1.068   2.235 -0.1703  0.0984  0.1608
14240W        W30714   2.780   2.287  13.308 -0.1009  0.0153 -0.0687
14241W        W30715   7.765  10.546   3.144 -0.0479 -0.1827 -0.3166
14242W        W30716  15.899  14.828  12.617 -0.0730  0.3222 -0.2075
14243W        W30717  10.651  17.563   2.184  0.0216  0.2225  0.1362
14244W        W30718  10.526   0.649  13.149  0.0638  0.0216 -0.2450
14245W        W30719  15.820   3.412  12.638  0.0223 -0.0312  0.1466
14246W        W30720  11.606   2.276   3.252 -0.2319  0.2439  0.0268
14247W        W30721   4.084  12.929  11.206 -0.0642  0.0398 -0.0527
14248W        W30722  17.056   0.179  13.591 -0.0712  0.0226 -0.1450
14249W        W30723   4.499  16.725   0.846  0.0693 -0.1739 -0.0929
14250W        W30724   9.505  12.849  10.469  0.2217 -0.0728  0.0685
14251W        W30725  17.507  18.283   3.177 -0.4121 -0.1619  0.0414
14252W        W30726  17.965  15.327  10.369  0.1395 -0.0900  0.3679
14253W        W30727  18.766  14.635  10.986  0.0411  0.1872  0.1493
14254W        W30728  16.635   3.829  10.771 -0.0260  0.3038  0.4244
14255W        W30729  16.732  10.021  10.111 -0.3745  0.0821 -0.1936
14256W        W30730   5.017  13.025  14.512  0.1535 -0.3495 -0.0241
14257W        W30731   1.420   8.683   1.637  0.4227  0.1079  0.0708
14258W        W30732  13.898  17.287   0.127 -0.0860 -0.4562 -0.3064
14259W        W30733   3.416   5.554  12.164 -0.2853 -0.5328  0.1924
14260W        W30734  18.683  17.311   0.760 -0.2490  0.0160  0.1254
14261W        W30735  16.295   6.832   4.819  0.2050 -0.2556 -0.1413
14262W        W30736  15.908   2.863  14.205  0.3669 -0.3581  0.0826
14263W        W30737   3.084   1.944   3.630 -0.0642  0.0965  0.1474
14264W        W30738   2.730   3.469   2.684  0.1811  0.3242 -0.2368
14265W        W30739   9.451  18.845  14.196  0.0513  0.1174  0.1099
14266W        W30740   9.748  17.430  14.703  0.0390 -0.2671 -0.1856
14267W        W30741   5.963  18.468   4.012 -0.3987 -0.3752  0.4982
14268W        W30742   5.714  18.991   4.063 -0.0884  0.0078 -0.4140
14269W        W30743  10.452   2.300   4.964  0.0839 -0.1197  0.1172
14270W        W30744   8.882  13.941   1.554  0.2086 -0.0310  0.1070
14271W        W30745  19.493  18.447   1.204 -0.6336 -0.4726  0.0186
14272W        W30746   2.998  17.821   0.248  0.2566  0.0422  0.2727
14273W        W30747   4.088   9.295   0.825 -0.1108 -0.1649 -0.3490
14274W        W30748  15.191   0.261  13.499  0.0177  0.1073 -0.1100
14275W        W30749  10.328   1.467  10.874 -0.1276  0.3001 -0.0026
14276W        W30750   7.834  10.048   1.537 -0.0003 -0.0635  0.2291
14277W        W30751   7.981   0.327  10.324  0.0132 -0.2823 -0.2292
14278W        W30752   6.830   2.209   0.326  0.0749 -0.4981  0.1361
14279W        W30753  15.879   4.444  10.488  0.2473  0.2146 -0.1196
14280W        W30754  13.826   5.950   3.141 -0.0564 -0.0651  0.2570
14281W        W30755   3.388  10.308   1.252  0.1012 -0.2085  0.0022
14282W        W30756  17.112   5.259   1.602 -0.0416 -0.1250 -0.3486
14283W        W30757  16.851   8.746  12.859 -0.1649 -0.3302  0.0830
14284W        W30758  14.988   0.094   2.362  0.1849  0.3233  0.2515
14285W        W30759   3.306   6.397  10.824  0.1624  0.3397 -0.0937
14286W        W30760   7.977   2.179  10.785 -0.0141 -0.0769  0.1788
14287W        W30761   0.262   1.905   9.923  0.4982  0.1997  0.3490
14288W        W30762  16.508  13.761   3.018  0.0797 -0.0329  0.3337
14289W        W30763  14.485  15.626   9.774 -0.4759  0.2716  0.0954
14290W        W30764  19.440  16.360  11.179  0.0631 -0.2189 -0.1173
14291W        W30765   1.217   3.049  10.792 -0.2239  0.3453  0.0569
14292W        W30766   6.550  13.790  10.542 -0.0933 -0.1191  0.2001
14293W        W30767   8.159  18.502   0.064 -0.2327 -0.0354  0.0472
14294W        W30768  17.699  17.004   1.827 -0.1817 -0.2247  0.0535
14295W        W30769   3.167  15.034  10.051 -0.1191 -0.1804  0.0820
14296W        W30770   7.587   7.744   4.653 -0.1112  0.1977  0.0162
14297W        W30771  16.817   4.807  13.978 -0.3858  0.1349 -0.1428
14298W        W30772   0.418  17.183  14.360 -0.1510 -0.1483 -0.1599
14299W        W30773  13.334  15.980   0.628  0.0629 -0.0039  0.1486
14300W        W30774   9.026   7.576   2.515 -0.0380 -0.1513  0.1243
14301W        W30775   8.875   0.315  11.707  0.2534  0.0765 -0.2089
14302W        W30776   9.880  17.714  13.001 -0.3506  0.1518  0.0877
14303W        W30777   6.990   0.438   0.642 -0.2828  0.1182 -0.1217
14304W        W30778   8.219  18.985   3.241 -0.0193  0.0431  0.0163
14305W        W30779   9.729   9.692   4.297  0.0423  0.1434  0.0377
14306W        W30780  17.749   0.226   9.471  0.1427 -0.1406  0.2371
14307W        W30781  16.874   1.617   0.447  0.1596 -0.1907 -0.2846
14308W        W30782  14.985   5.153   9.970  0.3202 -0.0620  0.5080
14309W        W30783  18.266  17.819  11.569 -0.0912  0.2112  0.0687
14310W        W30784  17.082   2.489  10.589 -0.2218  0.2769  0.1719
14311W        W30785  12.391  19.060   2.796 -0.4791  0.2458  0.0010
14312W        W30786  13.445  14.770   3.404 -0.1224  0.1521 -0.1611
14313W        W30787   9.394  17.901   4.005 -0.0347 -0.0584  0.0992
14314W        W30788   8.626   4.803   4.362 -0.2289  0.1958 -0.0887
14315W        W30789  17.113   3.433   2.013 -0.0350  0.0814 -0.1098
14316W        W30790  12.713   2.055  14.226 -0.1662  0.1137  0.1358
14317W        W30791  14.641  12.044  13.084  0.3030  0.2207  0.0385
14318W        W30792   7.938   8.695  12.969  0.0934 -0.0862  0.0695
14319W        W30793  16.706   5.514   1.669 -0.0744  0.0244 -0.0029
14320W        W30794   4.476  15.998   0.334  0.1636 -0.1505 -0.0749
14321W        W30795   7.980   5.419  12.019  0.0738 -0.0618  0.1738
14322W        W30796   5.666   5.784  14.526  0.0409  0.1851 -0.2040
14323W        W30797   0.292  16.563  10.974 -0.1274  0.1588 -0.0508
14324W        W30798  17.993   6.820   1.966 -0.2642  0.1094 -0.0124
14325W        W30799   0.939  11.782  13.165 -0.3456  0.2802 -0.2098
14326W        W30800  14.586   5.732  14.478  0.2910  0.0721 -0.1841
14327W        W30801  13.350  13.237  12.545  0.1805  0.2269 -0.0815
14328W        W30802  10.805   5.494  11.384  0.0067 -0.0306 -0.1719
14329W        W30803   0.520   2.498   0.170 -0.0087  0.2056  0.3567
14330W        W30804  13.902  16.647   1.611 -0.4000  0.1666  0.2776
14331W        W30805  11.902   3.498  13.880 -0.2644  0.2860 -0.1102
14332W        W30806   9.956  10.695  11.912 -0.0923  0.3948  0.1246
14333W        W30807   5.637  19.050  12.357 -0.1444 -0.4197 -0.1817
14334W        W30808  14.441  14.502   4.383 -0.0950 -0.0745 -0.3818
14335W        W30809   8.191   3.327  14.061 -0.3166  0.1720  0.1226
14336W        W30810   2.012  16.127   4.906  0.0181 -0.2565  0.3209
14337W        W30811   4.058  18.696  10.808  0.0288 -0.0995 -0.1096
14338W        W30812  13.705  11.007   1.034  0.3315 -0.1840  0.1319
14339W        W30813   7.508   4.992  10.740  0.3622 -0.1170  0.0072
14340W        W30814  18.494   8.671   4.108 -0.1089  0.2810 -0.1245
14341W        W30815   6.956  13.390   2.393 -0.2500  0.1350 -0.1505
14342W        W30816  12.498  16.448   2.658 -0.2130  0.1237 -0.1582
14343W        W30817   8.674   9.759   4.313  0.2451  0.1016  0.2596
14344W        W30818   6.653   5.258  13.828  0.1745  0.3895  0.0508
14345W        W30819  15.724  18.966   1.028 -0.0494 -0.0165  0.3094
14346W        W30820   9.811  17.089   1.372  0.3810  0.1110 -0.1440
14347W        W30821   7.889  12.542  11.711  0.0803  0.0052  0.2572
14348W        W30822   8.963  14.877  11.253  0.2099  0.0694 -0.3213
14349W        W30823   0.460   7.999   2.224  0.1255  0.0992  0.2087
14350W        W30824  17.088  15.643  12.355 -0.0104 -0.0161  0.1917
14351W        W30825  10.230   7.371  11.882  0.2893 -0.3078  0.2029
14352W        W30826  11.408   2.751  12.264  0.2269 -0.0635  0.0730
14353W        W30827  15.242  16.587   2.876  0.1286  0.0942  0.3953
14354W        W30828   3.069   1.543  11.079 -0.3046 -0.1588  0.4200
14355W        W30829   4.761  17.788   9.866 -0.1015  0.0273  0.1014
14356W        W30830   7.994   7.940   2.780 -0.0517 -0.0625  0.0036
14357W        W30831   0.763   9.016  12.620 -0.0316 -0.2368 -0.3007
14358W        W30832   9.508   1.892   2.367 -0.0310 -0.3605 -0.1182
14359W        W30833  13.738  19.408  13.442 -0.2540  0.0472  0.1206
14360W        W30834  18.602   9.780  12.587 -0.1600 -0.2665 -0.0978
14361W        W30835   4.867   0.672   2.204 -0.0907 -0.0432 -0.0479
14362W        W30836   0.582   2.093  13.524  0.1055 -0.5560 -0.0622
14363W        W30837  19.041  14.884   4.094 -0.0662 -0.0170 -0.0713
14364W        W30838  13.492   5.767   4.638  0.2234 -0.2699 -0.0844
14365W        W30839   0.717  12.481  11.750  0.2516 -0.2932 -0.1037
14366W        W30840   0.788   6.165  11.199  0.0722  0.1082  0.0587
14367W        W30841  10.977   6.381   2.816 -0.2231  0.1903 -0.0528
14368W        W30842  17.487   6.246   1.815 -0.1052  0.3114  0.2236
14369W        W30843  16.420   4.409  12.118  0.0738 -0.0574  0.1470
14370W        W30844  10.230  17.943  10.568 -0.0273  0.0417 -0.0842
14371W        W30845   0.151   9.582   1.237  0.0986  0.1638 -0.0705
14372W        W30846   8.536  11.247   4.034  0.0460  0.0253 -0.0347
14373W        W30847   2.436   5.367   0.011 -0.0699  0.0694 -0.2466
14374W        W30848   4.843  16.836   2.991  0.1045  0.0588 -0.0858
14375W        W30849   8.346  12.777   5.659  0.0555 -0.1725  0.2422
14376W        W30850  15.181  15.416   4.770  0.2427  0.1528 -0.1139
14377W        W30851  10.344  13.396  11.062  0.2918 -0.0499  0.0205
14378W        W30852  11.197  12.195   2.385  0.0568  0.4859 -0.0284
14379W        W30853   1.393  12.485   3.412  0.0649  0.0992 -0.0370
14380W        W30854   9.932   5.315  11.268  0.1128  0.1337  0.0709
14381W        W30855  10.675   2.125   0.993  0.1346  0.2579 -0.2453
14382W        W30856   9.885   1.912  14.410 -0.1771 -0.0914 -0.1771
14383W        W30857   3.204  18.387  14.475 -0.0044 -0.0956 -0.1400
14384W        W30858   7.537  16.609   0.115 -0.0453 -0.2292  0.0943
14385W        W30859   4.871   0.359   1.232  0.0807  0.0226  0.0077
14386W        W30860  10.432  15.404   0.934 -0.1339  0.1351  0.0193
14387W        W30861   4.925  18.791  10.765  0.0521 -0.0112 -0.4981
14388W        W30862  10.979   1.249   1.332 -0.0150  0.1005  0.0468
14389W        W30863  18.109   6.425  12.652  0.2772 -0.2832 -0.1814
14390W        W30864   9.365  10.831   3.741  0.2282  0.1785 -0.3615
14391W        W30865  10.346   2.502   9.241 -0.0159 -0.0688  0.1785
14392W        W30866   3.380  15.780  11.204  0.1042 -0.1308  0.0225
14393W        W30867  11.793  16.514   3.081 -0.0075  0.0555  0.0131
14394W        W30868   5.705  13.890  13.687 -0.0798 -0.0697 -0.0585
14395W        W30869   3.207  18.821   3.334  0.1692 -0.1164  0.1170
14396W        W30870  10.871   3.453  14.089 -0.2289  0.1785  0.1305
14397W        W30871   8.572   0.197   2.384 -0.3368 -0.0921 -0.1611
14398W        W30872   4.367   6.007  12.310 -0.0684  0.2437 -0.4160
14399W        W30873   2.515  16.538   3.245 -0.0270 -0.1572  0.0203
14400W        W30874  16.536  11.282  10.234  0.4424 -0.1454 -0.1942
14401W        W30875  18.282   1.104  11.841  0.0654 -0.1330  0.3628
14402W        W30876  14.082  13.940   9.840  0.1007  0.3984 -0.2009
14403W        W30877  13.988  18.444  13.280 -0.1896  0.1065  0.0515
14404W        W30878   4.708   7.720   0.288  0.2361  0.0269  0.3075
14405W        W30879   1.771   0.006  12.985 -0.2970  0.5776  0.5582
14406W        W30880  19.171  15.846  14.126 -0.4205 -0.0594  0.2275
14407W        W30881   1.768  17.715  13.791 -0.2610  0.0416 -0.0164
14408W        W30882  18.417  14.357  13.187  0.2418 -0.2255  0.0198
14409W        W30883  10.888   2.220  14.378 -0.0116  0.0508  0.1289
14410W        W30884  16.173   7.471  13.494  0.0431 -0.0239  0.1343
14411W        W30885  10.129   8.867  11.665  0.1278  0.0447 -0.0513
14412W        W30886  18.037   5.966  14.705  0.0327 -0.2538  0.0918
14413W        W30887   8.183   1.130  12.498 -0.0869  0.0413  0.1516
14414W        W30888   4.842  11.287  12.282 -0.0796  0.3448  0.2008
14415W        W30889   7.692  18.350   2.842 -0.0054 -0.0398 -0.1216
14416W        W30890   8.742   0.503  10.799 -0.0549  0.2679 -0.4108
14417W        W30891   1.331   8.758  10.244 -0.0050  0.0812  0.3770
14418W        W30892  19.205   1.819  12.099  0.0125 -0.1755 -0.2214
14419W        W30893  17.256   6.145   3.470 -0.3021  0.1070 -0.0660
14420W        W30894   9.597   3.698  12.578  0.1295 -0.3637  0.2478
14421W        W30895   3.891  12.677  14.263  0.4035  0.2692  0.4382
14422W        W30896   8.791   1.893  11.769  0.0654  0.0605  0.1259
14423W        W30897   9.652  12.156   5.797 -0.1521 -0.2186 -0.1295
14424W        W30898   6.978  18.699   4.342 -0.1008 -0.0413  0.4520
14425W        W30899   5.357   3.544  12.594 -0.0233 -0.3166 -0.0405
14426W        W30900  11.608  13.815  12.480  0.2376 -0.0342 -0.2019
14427W        W30901  14.729   5.184  14.216  0.0594 -0.1316 -0.2821
14428W        W30902  12.200   3.149   5.537  0.3033 -0.0055  0.0604
14429W        W30903   0.261   2.430  11.717  0.1927 -0.1281 -0.1735
14430W        W30904   7.039  16.862  14.117  0.0969 -0.3394  0.1925
14431W        W30905   4.286  18.896   0.508  0.4056  0.1729  0.3672
14432W        W30906   7.980  16.271  13.166 -0.1082 -0.1370 -0.0249
14433W        W30907  15.987   6.961  14.055  0.2081 -0.2257  0.0726
14434W        W30908   1.059   6.173  12.482 -0.1559 -0.3764 -0.1588
14435W        W30909   5.929   6.650   3.761  0.0929 -0.1297 -0.2546
14436W        W30910  13.966   2.325   0.168  0.1639  0.1262 -0.0260
14437W        W30911  18.324   7.947   4.783  0.3492  0.2894  0.3022
14438W        W30912   9.920  18.747   1.829  0.2478 -0.0074 -0.0768
14439W        W30913  13.226  15.692  10.270  0.1664  0.0519 -0.1164
14440W        W30914  10.141  18.994   2.184  0.2598 -0.4353 -0.0166
14441W        W30915  12.242   2.672   3.516  0.2151 -0.0301  0.3597
14442W        W30916  18.881  18.381   1.425  0.0364  0.2914  0.1916
14443W        W30917  15.468   5.092   5.051  0.0990  0.0241  0.1926
14444W        W30918   9.296  12.469  10.177  0.0239 -0.1360 -0.1627
14445W        W30919  17.738   1.837   3.806  0.2491 -0.3539  0.0561
14446W        W30920  13.878  16.726   2.084  0.2843  0.2316  0.3639
14447W        W30921  14.937  17.514   1.187  0.0698  0.0533 -0.1653
14448W        W30922  11.908   5.527   0.588  0.0456  0.0234  0.0600
14449W        W30923   4.624   1.183   9.269 -0.0591  0.1745 -0.0429
14450W        W30924  15.613  16.873   1.053  0.1819  0.4380 -0.0863
14451W        W30925   0.297   6.507  12.776 -0.3033  0.1095  0.1926
14452W        W30926   6.765   3.166   2.354 -0.0579 -0.0388 -0.1952
14453W        W30927  15.264  16.736   4.169  0.0724  0.1382  0.3747
14454W        W30928   8.660   0.653  11.249 -0.4936 -0.1838  0.1276
14455W        W30929   1.536  11.930  14.590 -0.2505 -0.2074  0.0832
14456W        W30930   9.524   5.924   1.343 -0.2534 -0.1393 -0.2693
14457W        W30931  15.109   1.193  14.463  0.0097 -0.1888 -0.0145
14458W        W30932   8.665   8.056  13.761 -0.0776  0.1011  0.3350
14459W        W30933  17.797  15.368  11.697  0.2721  0.1557 -0.3031
14460W        W30934  15.840   3.453   2.957  0.1749  0.1627 -0.2973
14461W        W30935  10.617  19.072   4.082 -0.1432  0.2215  0.0606
14462W        W30936   1.730  19.323   2.519  0.1830 -0.1037 -0.2815
14463W        W30937  16.936   6.117   3.932 -0.0506 -0.0474  0.0152
14464W        W30938   6.893   7.051  14.471  0.3815 -0.3009  0.0383
14465W        W30939  11.263  12.642  11.218 -0.2222  0.0643 -0.0054
14466W        W30940  16.952  16.387   1.790 -0.0903 -0.0013 -0.1948
14467W        W30941  10.195   3.913  14.245 -0.1549 -0.0272  0.0003
14468W        W30942   4.277  10.988  10.759 -0.0291 -0.0991 -0.0522
14469W        W30943   1.613  11.012   1.608  0.1056 -0.0364  0.2266
14470W        W30944   1.442   7.403   2.012 -0.1900 -0.1609 -0.0924
14471W        W30945   9.126   8.851  11.396  0.0369  0.2172  0.1339
14472W        W30946  14.256  19.189  11.452 -0.0856  0.1228  0.0818
14473W        W30947  19.156   6.465  10.612 -0.2604 -0.1642  0.0180
14474W        W30948  10.971   1.187  13.232 -0.1155  0.0367 -0.3548
14475W        W30949  19.537  16.238   4.283  0.2149 -0.1768 -0.2096
14476W        W30950   4.126  12.049   3.608  0.3270  0.0172 -0.0344
14477W        W30951   4.718  16.960   1.299  0.0148 -0.3160  0.1764
14478W        W30952  12.840   7.307   4.239  0.1174  0.0900  0.0931
14479W        W30953  13.103  14.292  14.296 -0.1179  0.1954 -0.1119
14480W        W30954   0.947  13.026  11.708  0.1539 -0.2355  0.4662
14481W        W30955   2.303  15.572   0.819 -0.0059 -0.0475 -0.4383
14482W        W30956  17.354   7.928   2.021 -0.0185  0.0015 -0.0951
14483W        W30957   5.875  12.787   4.912  0.2455  0.3894  0.0378
14484W        W30958  17.982   0.776  11.115  0.0771 -0.0716 -0.0311
14485W        W30959  17.975  14.632  10.928  0.0392 -0.0044 -0.1027
14486W        W30960  12.475  15.750  14.077  0.0965 -0.2465 -0.0092
14487W        W30961  12.841   9.187   6.092  0.2211 -0.1232 -0.1831
14488W        W30962  11.993   7.052  13.836 -0.1676 -0.1523 -0.3275
14489W        W30963  10.365   5.301  12.345  0.1133 -0.1563  0.0016
14490W        W30964  19.573   0.760   1.017 -0.1775  0.0578 -0.1852
14491W        W30965   0.239  14.295   1.373 -0.1701 -0.0505  0.2043
14492W        W30966  12.134   4.812  13.890 -0.1125 -0.0185 -0.3034
14493W        W30967  11.908   4.042   2.472 -0.0902  0.0688  0.0279
14494W        W30968   2.227   9.236  13.028 -0.0027 -0.1633 -0.0431
14495W        W30969   2.885  17.450   5.060 -0.3421  0.0104 -0.0075
14496W        W30970  17.363  12.607   1.506 -0.1380  0.3013  0.2872
14497W        W30971  16.915   2.965  14.185  0.0901  0.2234 -0.4117
14498W        W30972  10.031  11.894  11.311  0.3714  0.0853  0.1946
14499W        W30973   0.141  13.938   3.390 -0.1917  0.1274 -0.3125
14500W        W30974  13.770   3.830   0.766 -0.2952  0.2424  0.0694
14501W        W30975  15.992   1.524  10.972  0.0765 -0.3051  0.0514
14502W        W30976  10.772   0.270   2.081  0.1843  0.3739  0.1200
14503W        W30977  19.128  15.286   1.655  0.0470  0.1738 -0.1190
14504W        W30978   2.600   5.576   1.682 -0.2400 -0.0509 -0.0069
14505W        W30979   8.175   6.400  12.074 -0.2908  0.4036 -0.4559
14506W        W30980  14.423  12.240   1.157 -0.0299 -0.0126  0.0507
14507W        W30981   7.561  18.200   3.906 -0.0431  0.0584 -0.1092
14508W        W30982   3.461  17.041  13.911  0.1234 -0.3147 -0.2676
14509W        W30983   3.911   3.213   1.846  0.0183 -0.0672  0.2982
14510W        W30984   3.805   4.523  13.438  0.1703 -0.0676 -0.0870
14511W        W30985   2.388  17.409   0.720 -0.1316  0.1061  0.2727
14512W        W30986  10.158   8.215   2.551 -0.1305 -0.1034  0.2453
14513W        W30987  12.703   7.585  11.271  0.4457 -0.1045  0.1781
14514W        W30988   9.553  10.888   2.347 -0.2706  0.1164  0.2652
14515W        W30989  13.697  17.104   2.408 -0.1808  0.2267  0.1076
14516W        W30990   0.038   9.742   3.532  0.1505 -0.3609  0.1821
14517W        W30991  17.211  11.229   3.344  0.1227  0.0397  0.0916
14518W        W30992  18.297  11.611  13.136 -0.2529 -0.3144 -0.0678
14519W        W30993  14.102   6.459  14.558 -0.3043 -0.0102 -0.0422
14520W        W30994   3.210  17.161  11.627  0.0670 -0.0973 -0.3510
14521W        W30995   1.120   3.552   0.332 -0.2666  0.4192  0.0261
14522W        W30996  15.780   5.221  14.635  0.1890 -0.2633  0.3238
14523W        W30997  11.621  19.542   3.736 -0.0914  0.0984 -0.1370
14524W        W30998  15.268   1.273   0.626  0.1384 -0.2429  0.0382
14525W        W30999  11.270   3.754   3.095  0.1724 -0.0199  0.0765
14526W        W31000  18.589  14.900  12.302  0.1275 -0.0088 -0.0078
14527W        W31001  19.580  17.710  14.198 -0.0925  0.2185 -0.6021
14528W        W31002  17.311   4.046  13.479  0.0144 -0.1216  0.1193
14529W        W31003  14.703  14.248   1.555  0.0384 -0.3176 -0.1930
14530W        W31004   8.756   6.902   1.098  0.2011  0.0395  0.0690
14531W        W31005  10.295   2.967   9.944  0.0045  0.2620 -0.0563
14532W        W31006   1.626  12.841  10.162 -0.2035 -0.0020  0.2098
14533W        W31007  14.822  10.916   1.601 -0.1480  0.4320 -0.0892
14534W        W31008   7.609   0.671  11.748 -0.1492 -0.0453 -0.1445
14535W        W31009   8.041   1.892  14.666 -0.1845  0.0067 -0.2265
14536W        W31010   8.195  18.123  11.051 -0.1305 -0.2672 -0.0459
14537W        W31011   5.994  16.145   4.482 -0.0880 -0.0172 -0.2122
14538W        W31012  15.877   1.414   1.588 -0.3212 -0.0111 -0.1593
14539W        W31013  14.376   4.368  10.783 -0.1275  0.0718 -0.1024
14540W        W31014   4.385   4.224  12.161  0.3120  0.2126 -0.0170
14541W        W31015   8.823   2.710   1.616 -0.4127  0.0322 -0.0613
14542W        W31016   1.924   2.254  11.019 -0.0722 -0.2190 -0.0610
14543W        W31017  19.420   4.853  10.810  0.1214  0.0327  0.0629
14544W        W31018  11.695   6.960   0.454 -0.3253  0.2076 -0.3795
14545W        W31019  10.047   7.815  11.633 -0.1181  0.1503 -0.0934
14546W        W31020  11.186   5.486  10.443 -0.1045 -0.3208 -0.0999
14547W        W31021   5.408  18.476  10.661  0.2006  0.1688  0.0362
14548W        W31022   6.794   5.034   3.510  0.4403 -0.0229 -0.0712
14549W        W31023   8.903  11.543   4.257 -0.1536  0.1352  0.1164
14550W        W31024   6.091   7.247   5.940  0.0119  0.1462  0.1818
14551W        W31025   6.373  10.461   2.598 -0.0628  0.1343 -0.3552
14552W        W31026  14.545  15.991   4.204 -0.1350  0.1004 -0.1198
14553W        W31027   5.984  15.859   3.308  0.0568 -0.1544 -0.0125
14554W        W31028  12.485   1.363   1.449  0.0166 -0.1505  0.0566
14555W        W31029   0.274   8.489  13.802 -0.0138 -0.2062 -0.1888
14556W        W31030   0.907  11.307  12.884 -0.1806 -0.1003 -0.4904
14557W        W31031  17.299  16.966   1.483  0.0804 -0.3135 -0.0395
14558W        W31032  11.067  18.311   1.481 -0.0845 -0.0709  0.0179
14559W        W31033   4.796   3.757   3.496 -0.0111 -0.1602  0.0159
14560W        W31034  11.401   3.153  13.209 -0.0417 -0.2144 -0.1333
14561W        W31035   8.768   1.701  10.722 -0.0938  0.1874  0.2135
14562W        W31036  17.597  18.058  14.105 -0.2060  0.1220 -0.0413
14563W        W31037  13.043  16.066   4.204 -0.1911  0.1193  0.0528
14564W        W31038  10.499  10.943   0.918 -0.0824  0.3871  0.1585
14565W        W31039   7.144  14.176   1.599 -0.0488  0.1765  0.0122
14566W        W31040   5.463  12.529   5.196 -0.0784  0.0864 -0.1292
14567W        W31041  15.769   7.231   2.484  0.1324  0.0592 -0.2911
14568W        W31042   1.925  14.344  12.191 -0.1604 -0.2397  0.0912
14569W        W31043  17.914  12.143  12.748  0.0022 -0.0356 -0.0543
14570W        W31044  16.947   1.429   4.457  0.2674  0.2470  0.5688
14571W        W31045  12.424   6.648   4.615  0.1234  0.2670 -0.2034
14572W        W31046   6.613  15.443   1.688 -0.2077 -0.0204 -0.1480
14573W        W31047  18.140  19.357   4.680 -0.1154 -0.1402  0.5241
14574W        W31048   9.914  14.712   1.324  0.1267 -0.0062 -0.0106
14575W        W31049  14.224  18.969   4.384 -0.1340 -0.0125 -0.1535
14576W        W31050   8.694  11.799   5.811  0.1331  0.1320 -0.0519
14577W        W31051   4.791  10.511   0.220 -0.0599 -0.1129  0.0868
14578W        W31052   1.511  18.452   3.643 -0.2211  0.0850 -0.0242
14579W        W31053  15.216   4.740  10.038 -0.1210  0.2417 -0.4836
14580W        W31054  15.140  12.085  14.706  0.1657 -0.0984 -0.2043
14581W        W31055   2.280  19.410   1.710  0.1937 -0.2334  0.1697
14582W        W31056  13.295   6.426  13.082  0.2021  0.0674 -0.3880
14583W        W31057  15.337   7.581   2.657 -0.2017  0.0830 -0.0936
14584W        W31058  17.431   8.940  11.040 -0.0347  0.0937 -0.0782
14585W        W31059   9.872  17.182  12.761 -0.0916 -0.0152 -0.3228
14586W        W31060   9.201   8.099  10.371  0.1226 -0.0796  0.2825
14587W        W31061  14.737   2.562  11.689  0.1110 -0.0537  0.3148
14588W        W31062  17.779   4.142  13.656  0.2770 -0.2217  0.0927
14589W        W31063   8.431   8.169   2.639  0.0629  0.3164 -0.4168
14590W        W31064   1.851   8.669  10.348 -0.0567 -0.0349 -0.1349
14591W        W31065  16.632  17.820  12.912 -0.0581  0.2283  0.0432
14592W        W31066  13.950  12.554   3.849  0.1019  0.1090  0.0689
14593W        W31067  13.361  19.395  13.006  0.0973 -0.2886 -0.3644
14594W        W31068  15.802   1.615   4.876  0.0923 -0.0490  0.1374
14595W        W31069   8.883   8.940   3.235  0.0225  0.0046 -0.0089
14596W        W31070   9.246  12.151  10.530  0.1460  0.1368  0.2269
14597W        W31071   1.271   0.297   3.856  0.0826 -0.1347  0.3066
14598W        W31072   5.575   5.529   3.275 -0.2163 -0.0944 -0.2808
14599W        W31073   2.137   4.252  13.773 -0.0987 -0.1639  0.0754
14600W        W31074  17.113  13.687  11.185 -0.3162  0.1611 -0.0065
14601W        W31075  17.816   3.592   9.470 -0.4673  0.2194  0.4256
14602W        W31076  14.484  11.590  10.751 -0.2001  0.0773 -0.2591
14603W        W31077  19.447  11.119  10.836  0.0035 -0.0167  0.1974
14604W        W31078  14.472  11.629   1.128 -0.3708 -0.0446  0.1623
14605W        W31079  13.442   1.914   2.290 -0.0091 -0.1195  0.2537
14606W        W31080   7.939  15.417   4.219 -0.1105 -0.1051  0.0036
14607W        W31081  17.972   6.875  13.576  0.0340 -0.1964  0.3562
14608W        W31082  13.427  10.989  13.170  0.0678 -0.1618  0.0924
14609W        W31083   0.297  11.842   3.019 -0.2196  0.2638 -0.1477
14610W        W31084  18.438  14.890   2.930  0.3017  0.1775  0.2751
14611W        W31085  15.257  18.406  11.838 -0.2676 -0.1922  0.5524
14612W        W31086  17.842   1.453  12.353  0.1156  0.0014  0.2830
14613W        W31087   9.277   0.335   4.357 -0.1257 -0.3095 -0.0186
14614W        W31088  17.545  13.499   3.072 -0.0053 -0.2251  0.3279
14615W        W31089   1.127   5.144  14.496 -0.3956 -0.1617 -0.2164
14616W        W31090  14.083   6.404   0.822  0.0671 -0.0984 -0.0295
14617W        W31091   3.270  14.093  10.664 -0.2190  0.2475 -0.0210
14618W        W31092   4.844  12.249  11.587  0.2856 -0.0479 -0.1098
14619W        W31093  14.215  19.333   0.433 -0.0702  0.2930  0.3654
14620W        W31094  10.015   6.603   0.533  0.0354  0.3770 -0.0677
14621W        W31095   4.310   3.347  14.257 -0.2898  0.0219  0.1271
14622W        W31096  11.539   2.798   0.314  0.2304 -0.2994 -0.2318
14623W        W31097  12.690   4.547   1.737 -0.1071 -0.0125 -0.1701
14624W        W31098  14.449   7.174   3.827 -0.0851 -0.2122 -0.1081
14625W        W31099   0.197   9.663   2.166 -0.1439 -0.0856  0.1699
14626W        W31100   1.480  18.300   2.174  0.0556 -0.0391  0.2249
14627W        W31101  12.441  11.833   4.126 -0.1369  0.1711  0.2120
14628W        W31102  13.373   7.057   2.128  0.0562 -0.1509 -0.0326
14629W        W31103   5.130  10.853  10.610  0.1387 -0.2841  0.1946
14630W        W31104  18.082   9.388   0.983 -0.3960 -0.1148 -0.1855
14631W        W31105   3.154   1.851   0.499  0.0817 -0.0148  0.1714
14632W        W31106  18.228  10.454  14.572  0.0360 -0.3390  0.1036
14633W        W31107   5.683   3.967  13.602 -0.0388 -0.2571  0.1606
14634W        W31108   0.347   3.646   4.277  0.1130 -0.2993 -0.0776
14635W        W31109   3.892  12.853  13.198 -0.0847 -0.0155  0.0381
14636W        W31110  10.763   4.831   3.669  0.1759  0.0997 -0.0521
14637W        W31111   2.651   8.701  11.732  0.2099 -0.2773  0.1877
14638W        W31112   8.913   9.160  13.167  0.1153 -0.2000 -0.1338
14639W        W31113   1.756   6.240   1.997 -0.0374  0.0040  0.2064
14640W        W31114   6.576   4.029   3.241  0.3559  0.0481 -0.0164
14641W        W31115  18.308  14.925  10.748  0.0947  0.3682 -0.2502
14642W        W31116   1.257   9.208  12.721 -0.3244 -0.0588 -0.2480
14643W        W31117   2.136  13.956   3.898 -0.1020 -0.2379  0.3794
14644W        W31118  11.658  15.976   1.637  0.0743 -0.2969  0.0841
14645W        W31119  14.131   8.248   1.057 -0.0868  0.0614 -0.2938
14646W        W31120   8.886   2.631  12.513 -0.0181  0.2305  0.0538
14647W        W31121   2.733  12.857  11.988  0.0091 -0.4545  0.1371
14648W        W31122  14.110   0.731   4.086 -0.1513  0.1261  0.2434
14649W        W31123  13.745   5.329   4.841 -0.0692  0.0035 -0.0687
14650W        W31124   9.716  15.608   5.426  0.0559  0.0100  0.1763
14651W        W31125   8.434   7.465   4.418  0.1732  0.2323 -0.0485
14652W        W31126   3.031   1.616  10.431  0.2034 -0.0507 -0.2909
14653W        W31127   2.023   7.132   3.944 -0.0335 -0.2601  0.1742
14654W        W31128  18.012   9.584   1.450 -0.0378  0.5654 -0.0111
14655W        W31129  18.141  17.352  12.356  0.0643  0.1416  0.2385
14656W        W31130   5.419   4.951   2.907  0.2163  0.1363 -0.0534
14657W        W31131   2.468  13.123   0.811 -0.4030 -0.0166 -0.0234
14658W        W31132   7.391  18.373   2.225 -0.0395  0.1948  0.1808
14659W        W31133   5.441   2.544  14.693  0.3796  0.2956  0.1129
14660W        W31134  11.102  10.581   0.449  0.2314  0.0599  0.0399
14661W        W31135   8.974   4.102  10.193  0.2034  0.3735 -0.0401
14662W        W31136   7.883  18.596  12.253  0.2052  0.0574 -0.2616
14663W        W31137   6.695   7.465   0.060 -0.0551 -0.2210  0.0547
14664W        W31138  13.647  13.900   1.154 -0.3520  0.3588  0.1408
14665W        W31139   3.728  12.950  11.545 -0.0375  0.2647 -0.2096
14666W        W31140   9.581  14.328  13.870 -0.0303  0.2058 -0.0570
14667W        W31141   5.743   8.051   2.576  0.0776  0.2823 -0.0356
14668W        W31142   7.604   1.068   2.250 -0.0061  0.0062 -0.0314
14669W        W31143  12.151  13.387  12.478  0.0837 -0.0000  0.2121
14670W        W31144  18.151   5.081  14.525  0.0493  0.3914  0.1976
14671W        W31145   6.689  15.115  12.763 -0.0870 -0.0381  0.0160
14672W        W31146  15.353   2.194   1.537 -0.1949 -0.1164  0.1650
14673W        W31147   6.125  17.340  13.369 -0.0084  0.1403 -0.1739
14674W        W31148  12.521  19.090  14.646 -0.0323 -0.0710  0.1984
14675W        W31149  11.712  15.597   1.257 -0.0181  0.1004 -0.1210
14676W        W31150  15.319   9.823  14.430 -0.1408  0.0468  0.1483
14677W        W31151   4.030  10.988   2.697  0.0982 -0.2052  0.3094
14678W        W31152   4.009   1.433   4.559  0.1551 -0.0175 -0.2514
14679W        W31153  19.530   2.302  13.657 -0.2297 -0.0006  0.0156
14680W        W31154  11.754   3.170   4.815  0.0171 -0.1481 -0.2753
14681W        W31155   0.457   1.655   2.541 -0.3629  0.3560 -0.1900
14682W        W31156  17.888  10.507  14.128  0.2006  0.1935  0.2261
14683W        W31157  14.865   5.986   0.927 -0.1029 -0.0498  0.2025
14684W        W31158   0.336   8.481   0.502 -0.0819  0.0416  0.0270
14685W        W31159   8.363  11.879   3.225  0.0529 -0.0474 -0.0031
14686W        W31160   4.346   0.968   3.121  0.2875  0.0378  0.0086
14687W        W31161  14.861  17.149   4.725 -0.2768 -0.0372  0.0420
14688W        W31162   1.839   7.536  14.421 -0.2150 -0.5390  0.1997
14689W        W31163  18.045   6.818   4.198 -0.2312 -0.0751  0.2280
14690W        W31164   6.060  17.913   2.374 -0.0122  0.2914 -0.2376
14691W        W31165   3.972   1.266   2.722 -0.0082 -0.4150 -0.0343
14692W        W31166  13.671  19.240  12.632  0.2986 -0.2733 -0.1929
14693W        W31167   7.764   1.141  11.998  0.3634 -0.1073 -0.0114
14694W        W31168   8.689   8.804  14.574 -0.2031  0.0404 -0.0058
14695W        W31169  12.835  15.542   0.597 -0.1759 -0.3311 -0.0531
14696W        W31170   0.667  19.214  14.413 -0.0824  0.2793 -0.0543
14697W        W31171   8.937   7.676   4.220 -0.1802  0.0359  0.0624
14698W        W31172   9.740  18.952   4.838  0.2652  0.1641  0.0005
14699W        W31173  12.451   4.862  12.636 -0.0521 -0.3136 -0.0405
14700W        W31174   8.560   6.319  12.962  0.1182  0.1875 -0.1873
14701W        W31175   8.185  13.391  13.208 -0.1413  0.0527 -0.0065
14702W        W31176   7.626   4.324  10.780 -0.1246 -0.0680  0.0060
14703W        W31177   2.567   2.752   0.937  0.2758  0.1270 -0.1778
14704W        W31178  15.103  17.208  10.671 -0.2061 -0.2069 -0.1651
14705W        W31179   9.358  17.809  12.960 -0.3646  0.1518  0.0007
14706W        W31180  12.754  14.489   1.509 -0.0290 -0.1266 -0.0966
14707W        W31181   5.465   1.143  14.335 -0.0536  0.0268 -0.3832
14708W        W31182   1.297  16.663  10.637 -0.1783 -0.1934  0.1172
14709W        W31183  16.018   6.769  11.238  0.0293  0.4384  0.2119
14710W        W31184   3.668  10.465   3.934  0.1488  0.0813 -0.0834
14711W        W31185   8.555   0.233   3.663 -0.0630  0.0503  0.3502
14712W        W31186  15.213   0.895   2.844 -0.1049 -0.1480  0.1575
14713W        W31187   9.460  10.441  13.999 -0.2934 -0.3228 -0.0032
14714W        W31188   9.182  11.558  10.709  0.0402 -0.2335 -0.1146
14715W        W31189   2.338  18.385  13.370 -0.0916  0.0669 -0.1328
14716W        W31190  16.366   7.444   1.166 -0.0280  0.0215 -0.1012
14717W        W31191   3.957  11.993   3.142  0.0050  0.4672  0.1516
14718W        W31192   0.788  16.613   2.513 -0.2028 -0.1200 -0.3295
14719W        W31193  17.713   3.509   2.047  0.1628  0.1146  0.2289
14720W        W31194   8.383   4.942  13.023 -0.2326 -0.2311  0.0625
14721W        W31195   1.821  19.331   9.867  0.1256 -0.0927  0.2076
14722W        W31196  12.263  15.671  12.170 -0.3047 -0.0649  0.0590
14723W        W31197   7.725  13.695   3.247 -0.2518 -0.2714 -0.0834
14724W        W31198   8.184  16.124  12.056 -0.0509  0.2342  0.2430
14725W        W31199  17.693   0.744  10.341  0.1096  0.0132 -0.0552
14726W        W31200   6.299   0.132   2.489 -0.3821 -0.1821  0.1142
14727W        W31201   0.090   3.253  13.692  0.2598 -0.0700  0.0500
14728W        W31202   2.859  17.690  10.913 -0.2001 -0.1655  0.2671
14729W        W31203  14.916   1.017   1.510  0.0052  0.1913 -0.2782
14730W        W31204  13.683   1.488   1.331 -0.0481 -0.5468  0.1469
14731W        W31205   9.165   0.425   1.229  0.1229 -0.0467 -0.3736
14732W        W31206   1.021  14.318  14.392  0.1703  0.2942  0.1562
14733W        W31207  14.834   1.038   0.504 -0.1034 -0.2819 -0.1289
14734W        W31208  11.006  13.966   0.819  0.1791 -0.4439  0.0610
14735W        W31209  15.811   6.883   0.158 -0.2167  0.0210 -0.3787
14736W        W31210  12.644   1.043  11.328  0.2512  0.1273  0.1439
14737W        W31211   2.040  13.399   0.937 -0.3347 -0.1476 -0.0833
14738W        W31212  16.473  12.282  11.792 -0.1125  0.0835  0.2028
14739W        W31213  13.863   3.746  10.522 -0.2387 -0.1783 -0.1460
14740W        W31214  14.935   5.643   4.537 -0.1811  0.0253  0.1364
14741W        W31215   3.547  15.726  14.668  0.0554 -0.0278  0.3028
14742W        W31216  15.140  11.849   0.680  0.1142 -0.2615  0.3078
14743W        W31217  10.528  17.764  12.231 -0.0007  0.1031  0.1722
14744W        W31218  16.446  17.779  10.704  0.3238  0.1086 -0.0762
14745W        W31219   4.822  10.205  11.162  0.0338 -0.0239 -0.0688
14746W        W31220   8.719   7.972  12.814 -0.2890  0.1900 -0.2673
14747W        W31221   9.690  15.986   1.765  0.1085 -0.3896  0.2872
14748W        W31222   7.671   6.714   1.465 -0.1507 -0.2456 -0.0361
14749W        W31223  10.002   1.918  11.030 -0.2946  0.0159 -0.0499
14750W        W31224  12.185  15.403  11.256  0.2265 -0.1262 -0.0905
14751W        W31225   3.411   9.606  10.673 -0.0338 -0.0922 -0.2885
14752W        W31226  11.631   5.704   3.246 -0.3844 -0.0855  0.0184
14753W        W31227  18.080   8.681   3.256  0.3217 -0.2561  0.4200
14754W        W31228  10.492   0.847   0.842 -0.0513 -0.1120  0.1980
14755W        W31229   3.738   5.937  11.081  0.0220  0.0878 -0.1055
14756W        W31230   1.801   6.191   4.479  0.2250 -0.1410 -0.0086
14757W        W31231   3.261  11.482  10.668 -0.0149  0.3735 -0.1132
14758W        W31232  18.376   9.874  13.143  0.2810 -0.5295  0.0841
14759W        W31233   1.239  16.278   1.015 -0.0245  0.2719 -0.0507
14760W        W31234  10.067  14.159   3.087 -0.4238  0.0535 -0.2118
14761W        W31235   2.425  15.788   0.136  0.0434 -0.2628  0.0285
14762W        W31236  11.435   1.705  12.675  0.2170  0.2517 -0.0883
14763W        W31237   7.327  13.238   3.854  0.4574  0.0095 -0.0314
14764W        W31238   4.368  11.629   3.108 -0.1282 -0.0979 -0.0716
14765W        W31239  17.999   3.550   3.971  0.4025 -0.2671  0.1190
14766W        W31240   0.156  19.354  11.013 -0.1814  0.2034  0.0070
14767W        W31241   1.405   4.410   4.421 -0.2083 -0.0733  0.0053
14768W        W31242   5.414   2.932  13.770  0.0021  0.0636 -0.0626
14769W        W31243   2.222  18.798  10.515  0.0424  0.0814  0.3874
14770W        W31244   3.867  12.750  10.176  0.0699  0.2341 -0.0693
14771W        W31245   5.116   1.420   1.060  0.1559 -0.0540 -0.1710
14772W        W31246   2.856  16.353   1.373  0.1881  0.0570  0.4461
14773W        W31247  15.580  14.201   5.106 -0.2238 -0.1072  0.0080
14774W        W31248  16.105  18.770   1.407 -0.0538 -0.1157 -0.0640
14775W        W31249  13.612   2.866  10.732 -0.1021 -0.1254 -0.2360
14776W        W31250   4.025   9.471   3.534  0.0258  0.0622 -0.1210
14777W        W31251   0.654  11.514  12.443 -0.0368  0.2514 -0.2752
14778W        W31252   9.518   6.396  14.147 -0.0283 -0.2072 -0.2861
14779W        W31253  12.984  17.560   1.304 -0.1487  0.2863 -0.1571
14780W        W31254   4.429  12.535  11.529  0.1507  0.0930  0.1000
14781W        W31255  18.077  15.253  12.188  0.1063 -0.0477  0.1124
14782W        W31256   2.559  14.260   5.087  0.2275  0.2000  0.0230
14783W        W31257   6.842   7.430   3.310 -0.3599  0.2170 -0.0163
14784W        W31258  10.731  18.520   2.429 -0.3192 -0.3160  0.0010
14785W        W31259   0.006   9.149   3.721 -0.0590 -0.2502 -0.0259
14786W        W31260   7.710  16.347   2.147  0.1796 -0.1280 -0.0624
14787W        W31261   2.279  14.441  14.706  0.0614 -0.0969  0.1362
14788W        W31262   4.662   1.276  12.332 -0.3282  0.0006  0.2089
14789W        W31263  19.108  15.462  11.307 -0.1504 -0.1143 -0.0330
14790W        W31264   9.603   1.562  13.083 -0.1023  0.2729 -0.0176
14791W        W31265  17.306  14.879   0.402 -0.0315 -0.0200 -0.1864
14792W        W31266  17.566  18.085  10.356  0.1843 -0.0115 -0.0479
14793W        W31267   1.485   7.298  14.630 -0.3192 -0.1160 -0.2772
14794W        W31268   6.129   8.142   2.190 -0.0481 -0.4055  0.0086
14795W        W31269   1.886  14.175  14.577 -0.1543 -0.0884 -0.0438
14796W        W31270  18.988  19.580   2.731  0.0400 -0.1285 -0.0006
14797W        W31271  10.258   0.915  11.883 -0.1943  0.1171  0.2159
14798W        W31272   6.789  18.820  14.103  0.1648 -0.0550 -0.1528
14799W        W31273   0.167  10.827   0.319 -0.2712  0.0936  0.0853
14800W        W31274  12.357  10.777  14.625 -0.1791 -0.3708  0.2666
14801W        W31275  14.357   8.268   0.636 -0.1966  0.1416  0.2056
14802W        W31276   5.271   9.320  14.248  0.2760  0.1727 -0.1380
14803W        W31277  12.230   8.899  12.617 -0.0290 -0.0098 -0.1377
14804W        W31278   6.638  14.239  12.636 -0.0338 -0.1532  0.0464
14805W        W31279   3.542   0.427   1.598  0.0662  0.1704  0.2228
14806W        W31280  10.848  17.997   2.279 -0.2279 -0.2589 -0.3071
14807W        W31281   6.664  14.857   9.231  0.0692  0.1311  0.4382
14808W        W31282  10.713  11.213  12.250  0.0873  0.0453  0.3117
14809W        W31283  16.565   8.155   4.485 -0.0345 -0.4243 -0.2380
14810W        W31284   4.713  15.991  11.739  0.0899  0.0667 -0.0630
14811W        W31285   7.863   7.331  14.573 -0.0861 -0.2248 -0.1187
14812W        W31286  15.350  14.892  11.788  0.1378  0.0047  0.1373
14813W        W31287   7.579  19.502  13.479 -0.3945  0.1094 -0.0099
14814W        W31288   3.644  18.392  12.146  0.3819 -0.2339  0.1129
14815W        W31289   4.919  15.416  12.623 -0.0613 -0.0449 -0.0178
14816W        W31290  13.113  13.321  11.503  0.1350  0.3507 -0.2267
14817W        W31291   9.466  11.991   1.030  0.1315 -0.1131  0.0556
14818W        W31292   0.864  10.152   5.334 -0.2143 -0.0005 -0.0689
14819W        W31293   5.956   4.555   1.214  0.1759  0.2267 -0.2264
14820W        W31294  11.237   3.842   4.281 -0.0119 -0.0264 -0.0260
14821W        W31295  17.025  13.929  13.751 -0.1373 -0.1533  0.1489
14822W        W31296  15.246  13.498  11.187 -0.0868 -0.0885 -0.2269
14823W        W31297   1.836   5.225  12.741  0.0840  0.0615 -0.2144
14824W        W31298   9.501  10.008   3.928 -0.0257  0.1305  0.3363
14825W        W31299   0.523   2.632  12.085 -0.1127 -0.0988  0.1229
14826W        W31300   5.528  15.468  11.031 -0.4839  0.1374 -0.2953
14827W        W31301  19.362   1.212  11.938  0.1225  0.1680 -0.1241
14828W        W31302  19.350  18.845   1.550 -0.0971 -0.0813  0.1745
14829W        W31303   3.533   6.730  12.829  0.0810  0.1032 -0.0949
14830W        W31304   4.306  10.252  12.309 -0.0759  0.1152  0.2167
14831W        W31305  18.059  11.753   3.117 -0.2236  0.0727  0.2462
14832W        W31306  12.778  11.873  12.183 -0.1314  0.2846 -0.0603
14833W        W31307  15.168  15.536  14.612 -0.1198 -0.0038 -0.0421
14834W        W31308   4.547  15.668  14.663  0.3388  0.0538 -0.3915
14835W        W31309   2.331  17.557   3.385  0.1204 -0.1308 -0.0725
14836W        W31310   5.069  14.089  11.631  0.4185 -0.0645 -0.1079
14837W        W31311   1.729  18.125  13.057  0.2919 -0.1640 -0.3363
14838W        W31312  14.745   8.537   2.085  0.1840 -0.1575  0.1199
14839W        W31313  17.934  15.897  10.437  0.1389  0.0159  0.0580
14840W        W31314   8.374  12.286   2.743  0.2681 -0.1483 -0.0239
14841W        W31315  12.761   6.262   4.396 -0.2724  0.2318 -0.2945
14842W        W31316  19.273   5.570   4.545 -0.0883  0.0307 -0.1205
14843W        W31317   4.138  17.892   0.239  0.3333 -0.2672 -0.1029
14844W        W31318   1.688  16.112  13.455 -0.0789  0.1626  0.0762
14845W        W31319   8.112   1.389  14.500  0.1041 -0.1670  0.1510
14846W        W31320  11.689  14.318   1.268  0.0717 -0.2178 -0.0975
14847W        W31321   7.335   8.922   0.549  0.1624  0.1257  0.0898
14848W        W31322   0.847   3.625   9.927 -0.3915 -0.0392  0.1681
14849W        W31323   9.412   7.860   3.122  0.1154  0.0644  0.2309
14850W        W31324   6.643   7.030   0.317  0.0773  0.0429 -0.0171
14851W        W31325   5.168   5.518   2.284 -0.2060  0.0668  0.1377
14852W        W31326  12.109   1.910  13.411  0.1139 -0.0942 -0.2727
14853W        W31327   3.354  15.823   0.623 -0.2043  0.0013 -0.2909
14854W        W31328  10.261   6.711   0.103 -0.0540  0.1507  0.1817
14855W        W31329  16.835  17.670   3.618 -0.2069 -0.0189 -0.2711
14856W        W31330  10.397  12.519   0.593 -0.0194  0.1311  0.2616
14857W        W31331   3.881   0.536  10.966 -0.0701  0.1488 -0.2647
14858W        W31332  11.704  13.352  12.821 -0.0075 -0.0803 -0.0597
14859W        W31333   5.802  10.770   1.272 -0.1437 -0.0308  0.3005
14860W        W31334  11.462   9.380   3.863  0.2319  0.0652 -0.0948
14861W        W31335   3.044  16.530   3.304  0.3412 -0.1612 -0.2261
14862W        W31336   1.143   5.763  11.774  0.2489 -0.0472  0.0235
14863W        W31337   5.919  17.182   3.789  0.3275 -0.1188 -0.0770
14864W        W31338   2.678  18.269   2.992 -0.0660 -0.1385 -0.0294
14865W        W31339   0.277  10.763  14.068 -0.2673  0.1976 -0.0089
14866W        W31340   3.251   4.934   4.627 -0.1452 -0.0527  0.3679
14867W        W31341   1.936  14.765  10.887  0.3246  0.1647  0.0611
14868W        W31342   3.148  12.696   3.337  0.0950 -0.0344 -0.3171
14869W        W31343  17.343  16.601   2.292  0.2373  0.2192  0.0482
14870W        W31344   5.003   5.168  10.776 -0.0489  0.2622 -0.0652
14871W        W31345   6.818  17.100  10.894 -0.2958  0.0222 -0.2182
14872W        W31346  10.444   1.100  14.549  0.2606  0.0397 -0.1523
14873W        W31347  10.379  15.219   2.351 -0.0950 -0.1570  0.0026
14874W        W31348   6.978  12.917   0.263 -0.1638  0.2096  0.0210
14875W        W31349   5.911  15.341   2.582 -0.0211 -0.1200 -0.0209
14876W        W31350  17.071   3.218  10.947  0.0010 -0.1500  0.0018
14877W        W31351   2.016  14.636   3.331  0.1015 -0.6109 -0.0380
14878W        W31352  18.238   8.134  11.279  0.0679  0.2690 -0.2764
14879W        W31353   2.741  19.327  13.258  0.1580 -0.0582 -0.0969
14880W        W31354   5.820  12.607   9.803  0.0696  0.1626 -0.2821
14881W        W31355  11.176  17.288   1.090  0.3131  0.0006 -0.2174
14882W        W31356   3.732   1.768  13.904 -0.0903 -0.0544 -0.2294
14883W        W31357   0.474   6.115   3.321  0.2501  0.0353  0.1607
14884W        W31358   2.915   5.546   3.369  0.1415 -0.0535 -0.3213
14885W        W31359   6.082   3.606   3.062 -0.2980  0.0335 -0.0491
14886W        W31360  14.055   3.046   2.943  0.1171  0.0630  0.1747
14887W        W31361   4.764  14.334   0.058 -0.0106  0.1462  0.1162
14888W        W31362   0.162   2.515   2.264  0.2881 -0.3198 -0.0003
14889W        W31363  13.972   3.996   4.642  0.1385  0.0872  0.1544
14890W        W31364  18.678  12.207   5.543 -0.0866  0.0426  0.2024
14891W        W31365   8.629  14.432  11.412  0.1256  0.0281  0.0572
14892W        W31366  17.124  19.554   0.481 -0.0184 -0.0323 -0.3998
14893W        W31367  15.077  15.077   0.126  0.0885 -0.3462  0.6604
14894W        W31368   1.511  19.338   3.064 -0.2528  0.1807  0.1964
14895W        W31369  18.310  17.825   2.906 -0.1843  0.0541  0.1182
14896W        W31370   3.804  18.286  10.019 -0.0883  0.1244 -0.1300
14897W        W31371   9.077   0.291   3.286 -0.1066  0.0805  0.3433
14898W        W31372   1.616   8.160   0.779  0.0826 -0.2401  0.2960
14899W        W31373  10.584   8.139   4.824  0.2228  0.0005  0.0942
14900W        W31374   5.330   6.758   0.636  0.3428  0.0540 -0.0838
14901W        W31375  11.560  18.508   3.562 -0.1635  0.1002  0.2351
14902W        W31376   5.651  12.875  11.299  0.1738  0.3573  0.2732
14903W        W31377  11.386  10.486  12.278 -0.0971  0.2130  0.1118
14904W        W31378  17.274  10.532  12.304 -0.0510  0.2182  0.1067
14905W        W31379  13.006  13.987   0.586 -0.3132  0.2484 -0.2374
14906W        W31380   5.778   4.078   1.308 -0.1145 -0.1036  0.2678
14907W        W31381   8.019   2.491  14.278 -0.1770  0.0390 -0.3245
14908W        W31382   8.222  11.355  14.382 -0.1111  0.0340  0.2934
14909W        W31383   3.365  14.468   4.722 -0.2121 -0.1530 -0.0995
14910W        W31384   2.658   8.001   3.455 -0.0759 -0.1744  0.1765
14911W        W31385  15.557  18.269   3.235  0.0967 -0.0962 -0.0700
14912W        W31386  12.416   2.249   2.616 -0.0174 -0.0156  0.0889
14913W        W31387  10.149  14.563  11.032 -0.0356  0.0393  0.0500
14914W        W31388   7.873   1.890   2.765  0.0733  0.1500 -0.0187
14915W        W31389   3.284  10.246   3.799  0.1390 -0.0146  0.3065
14916W        W31390   2.538  17.071   3.359 -0.2290  0.1025 -0.0242
14917W        W31391  17.897  10.816   2.942 -0.0680  0.0269 -0.1958
14918W        W31392  15.625   4.450   0.354 -0.2406 -0.1854 -0.0269
14919W        W31393   2.060   2.931   9.316 -0.4510 -0.2587  0.0169
14920W        W31394  15.391   8.613  11.716  0.0238 -0.1669  0.1972
14921W        W31395   8.154  10.499  14.184 -0.1800 -0.0161 -0.2438
14922W        W31396   4.116   6.289  11.304  0.1695 -0.1288  0.1409
14923W        W31397   5.923   2.277   1.447 -0.0083  0.2443 -0.0755
14924W        W31398  13.262  11.890  10.401 -0.2624  0.0367  0.2495
14925W        W31399   9.598   4.965  11.347 -0.2839 -0.2056 -0.1592
14926W        W31400   2.155   2.264  13.673  0.0192 -0.4912 -0.0964
14927W        W31401  13.348   5.259   4.467 -0.4450  0.2541 -0.0751
14928W        W31402  15.572   2.688   5.210  0.2417 -0.2094 -0.1010
14929W        W31403   5.270   9.210  10.915  0.0973 -0.0959  0.3959
14930W        W31404  13.087   8.984  12.134 -0.3209  0.0702  0.2326
14931W        W31405  18.663  15.621  13.943  0.0846 -0.0290 -0.2168
14932W        W31406  11.734  12.164   0.356  0.2455  0.0266 -0.1299
14933W        W31407  10.972  19.258   0.341  0.1535 -0.0786  0.1720
14934W        W31408   9.968   4.456  14.180 -0.2314 -0.1334  0.1433
14935W        W31409  14.676   5.229   3.227  0.1418 -0.0398 -0.5203
14936W        W31410   5.852   9.378   1.978  0.1188 -0.0023  0.0060
14937W        W31411  19.165  12.575  10.399 -0.2121 -0.2178  0.0446
14938W        W31412   8.176  17.222   2.870 -0.0388  0.0634  0.0800
14939W        W31413   8.145  12.591   3.160  0.0236  0.1576  0.0054
14940W        W31414  14.344  17.325  12.833  0.1001 -0.1221 -0.2893
14941W        W31415   9.221  15.852   0.770  0.2142 -0.0668  0.2902
14942W        W31416   1.604  13.699  10.077  0.3391 -0.2126 -0.1576
14943W        W31417   5.574  17.916   2.175 -0.2954 -0.1308  0.3340
14944W        W31418   5.851  14.847   2.414  0.3603 -0.0401 -0.0000
14945W        W31419   9.269  16.659  10.602 -0.1871  0.1212  0.0480
14946W        W31420  16.018  12.354  11.783  0.0982 -0.0351 -0.1664
14947W        W31421   6.625   5.763   4.158  0.1225 -0.0486  0.3241
14948W        W31422   4.318   0.893  10.082 -0.1315  0.4527 -0.0882
14949W        W31423   5.306  10.378   0.155 -0.0310 -0.2422  0.0009
14950W        W31424  14.885  10.384   2.768  0.3797 -0.5512 -0.3659
14951W        W31425   1.833   3.399  14.417 -0.2769 -0.0067 -0.0310
14952W        W31426  10.699  13.601   0.939 -0.0181  0.1041 -0.0712
14953W        W31427  14.849  13.727   0.718 -0.0949 -0.2237 -0.0226
14954W        W31428   4.564  15.073  11.317 -0.3209 -0.0601 -0.2091
14955W        W31429  18.285   9.354  10.955  0.1588 -0.1171 -0.0540
14956W        W31430   0.572   0.560   0.105  0.0048 -0.0443  0.0151
14957W        W31431   9.558   7.011  13.166 -0.0975  0.2693  0.3068
14958W        W31432  14.281   3.127  11.591  0.2151  0.2512 -0.2154
14959W        W31433  11.965   6.213  10.857  0.1633  0.2719 -0.1848
14960W        W31434  13.408  16.444  12.256 -0.1711 -0.0887 -0.0991
14961W        W31435   4.009   3.169   9.637 -0.1198  0.1316  0.2584
14962W        W31436  16.221   5.459  14.599 -0.1355 -0.2394 -0.0292
14963W        W31437   2.505  18.428   3.425  0.1699  0.2334  0.1467
14964W        W31438   2.660  10.395   3.936 -0.1274  0.3075 -0.2705
14965W        W31439  12.163  15.057   2.697 -0.1066  0.0283  0.1090
14966W        W31440  15.580   6.578   9.958 -0.1068 -0.2697  0.2914
14967W        W31441   4.169  18.928  11.228 -0.1997 -0.0254  0.0708
14968W        W31442   6.023  11.002   4.794  0.0369  0.3504 -0.0311
14969W        W31443   6.848   6.663  10.808 -0.0629 -0.0526  0.0640
14970W        W31444   2.420   8.560   3.820  0.1152  0.2693 -0.0347
14971W        W31445   4.844   7.417   1.698  0.4930  0.0396 -0.1794
14972W        W31446  13.459   6.382   3.646 -0.0870  0.1345  0.2791
14973W        W31447   6.550  10.339  14.387  0.0917  0.5019 -0.3002
14974W        W31448  15.537   7.876  12.030 -0.1015 -0.2942  0.0641
14975W        W31449  11.579  18.740  14.300  0.0342 -0.0850  0.1887
14976W        W31450   6.197   2.451  14.428 -0.1192 -0.0242 -0.0277
14977W        W31451   5.387  16.791  13.340  0.1202 -0.2897 -0.0679
14978W        W31452   2.702  10.000  10.812 -0.1005  0.2335 -0.0175
14979W        W31453  14.905   9.371   3.743 -0.0529 -0.5148  0.0678
14980W        W31454   3.793  16.486   1.163 -0.0408  0.1365  0.0798
14981W        W31455  10.766   2.412  11.611  0.0985  0.1213  0.1399
14982W        W31456  11.953   2.213  14.298  0.2472 -0.0294  0.0774
14983W        W31457  13.817   4.277  12.504 -0.2142  0.0344  0.4689
14984W        W31458   9.864  16.757   0.382 -0.2548  0.3335  0.0926
14985W        W31459   1.686  11.468  10.464 -0.1699 -0.2617 -0.0399
14986W        W31460  11.096  19.017  11.463 -0.2430 -0.1661  0.0307
14987W        W31461   3.463  11.448   4.378 -0.2626  0.1405  0.1969
14988W        W31462   8.093   8.083  12.067  0.1633 -0.3735 -0.1821
14989W        W31463  12.987   4.055   5.709  0.0150  0.1766  0.3167
14990W        W31464   2.488   8.548  13.531  0.0750 -0.0626  0.1734
14991W        W31465   1.890  12.153  13.368 -0.2370 -0.2403 -0.0026
14992W        W31466  18.307  15.646   4.858 -0.1104  0.2188  0.3256
14993W        W31467  17.868   9.146   0.015  0.3535  0.0548  0.1697
14994W        W31468  12.129  17.995   3.521 -0.1978  0.0131 -0.0298
14995W        W31469   3.793   9.465   5.015 -0.1144 -0.1603 -0.3265
14996W        W31470  10.782   5.960   4.812 -0.0692 -0.0616  0.1050
14997W        W31471  12.446   5.992   2.412 -0.1328  0.1539  0.0401
14998W        W31472  13.024   6.809   4.390  0.0401  0.0210  0.1421
14999W        W31473  16.548   9.501   2.903 -0.0542 -0.1096  0.0372
15000W        W31474   8.520  11.727  12.625 -0.1073 -0.2317 -0.1891
15001W        W31475  13.813  14.330  12.275  0.3255 -0.1915 -0.1099
15002W        W31476  19.390  18.785   3.764  0.1059 -0.2085  0.2871
15003W        W31477   6.687  16.736  13.452 -0.1488  0.0153 -0.0038
15004W        W31478   9.840  16.310   3.014  0.5104  0.2767 -0.3150
15005W        W31479   6.582   6.256  14.284  0.0988  0.1613 -0.0569
15006W        W31480   2.456  12.336  12.137 -0.1969  0.1687 -0.0509
15007W        W31481  17.132   9.236  12.296  0.5020  0.3741  0.0486
15008W        W31482   3.232  14.986  13.455 -0.0499 -0.0230  0.3231
15009W        W31483  18.705  15.987  12.974  0.3180  0.4144 -0.0623
15010W        W31484   8.088  15.184  14.116  0.0598  0.0740  0.0686
15011W        W31485   7.379   7.527  11.786 -0.0917 -0.1521  0.0834
15012W        W31486  16.374   8.721   2.631 -0.1736 -0.2991 -0.0300
15013W        W31487   5.319  19.139  11.870  0.0357  0.2505 -0.1816
15014W        W31488   7.251   8.315   0.555 -0.0373 -0.1728  0.0593
15015W        W31489   1.121   5.243  12.023 -0.3440 -0.0950 -0.0652
15016W        W31490  11.915   2.322  11.718  0.1229  0.0288 -0.1283
15017W        W31491   6.244  10.949  10.357 -0.1787  0.0132 -0.1447
15018W        W31492  15.227   5.710   2.603  0.0941 -0.1872 -0.0199
15019W        W31493  19.280  18.449   1.846 -0.1175  0.0634  0.0867
15020W        W31494  17.909  11.072  13.807  0.0119 -0.1276 -0.2443
15021W        W31495  10.828   1.397   3.926 -0.2788  0.0542 -0.3054
15022W        W31496  13.688   8.772  14.479 -0.0363  0.1390  0.2826
15023W        W31497   6.223  17.593   9.991 -0.0432 -0.0076  0.3950
15024W        W31498  12.474  12.133   1.422  0.1655 -0.1410 -0.1862
15025W        W31499   6.419   6.510  13.863  0.1412 -0.0645 -0.2754
15026W        W31500  10.457  11.251  10.757  0.2483 -0.2504 -0.1102
15027W        W31501  18.083  17.866  12.454 -0.1300 -0.1333  0.0136
15028W        W31502   3.589   0.514   0.924 -0.1033 -0.0295 -0.2632
15029W        W31503  16.442  17.340  12.972 -0.0615  0.1997  0.2774
15030W        W31504  14.132   5.236   2.733 -0.2781 -0.2292  0.1344
15031W        W31505   9.684  16.815   4.830 -0.4401 -0.1150 -0.2912
15032W        W31506  11.821   7.105   5.299 -0.1477 -0.3141  0.0291
15033W        W31507  16.209   9.966   1.036  0.0095  0.0435  0.0152
15034W        W31508  18.151   9.486   0.280  0.0228 -0.4375  0.1043
15035W        W31509   4.989   2.656   0.523 -0.0456 -0.1271  0.1092
15036W        W31510  12.159  17.127  12.074 -0.0367 -0.2767  0.2129
15037W        W31511  14.934  15.774   3.297 -0.1147  0.3084  0.0980
15038W        W31512  12.745   0.333  10.769 -0.0542 -0.1403  0.0073
15039W        W31513   1.108   9.869   4.438 -0.1897  0.0300 -0.3933
15040W        W31514   6.443   7.572   5.095  0.0473 -0.0027  0.2086
15041W        W31515   2.387  19.023   1.368 -0.0349  0.0415 -0.1382
15042W        W31516  16.457  14.110   1.211 -0.2468 -0.0067  0.1258
15043W        W31517   4.731   3.209   4.163  0.2291 -0.3657 -0.1310
15044W        W31518   0.818   0.588   3.840  0.2076 -0.0503  0.0654
15045W        W31519   0.301  12.741   2.061  0.0973  0.1186 -0.1310
15046W        W31520   5.504  12.158  14.633 -0.1319 -0.0703 -0.1361
15047W        W31521   7.237   2.308  13.368  0.4648 -0.1797 -0.0490
15048W        W31522  14.933   6.339   1.896 -0.2840  0.0507 -0.0046
15049W        W31523  16.140   9.123   2.962  0.2461  0.1546  0.2480
15050W        W31524   8.718  12.967   4.864 -0.0171  0.0647  0.0472
15051W        W31525  13.925  17.142   2.813  0.0196  0.3068  0.1144
15052W        W31526  12.180   4.092   0.167 -0.0841 -0.0091 -0.0641
15053W        W31527  13.869  18.471  11.104  0.1140 -0.0763 -0.2408
15054W        W31528   3.797  15.037  11.064  0.1599 -0.1511  0.1759
15055W        W31529  16.089   9.686   4.683  0.3769 -0.1653 -0.2100
15056W        W31530  14.202   3.447   0.715  0.3330  0.0500  0.0616
15057W        W31531   1.325  18.365  11.957 -0.2730  0.1202  0.1878
15058W        W31532   3.512   1.996  13.512  0.3405 -0.3016  0.1701
15059W        W31533   1.204  10.232   2.771  0.0686  0.1882 -0.0981
15060W        W31534   0.532   6.660   0.749  0.2665  0.1025 -0.0822
15061W        W31535   3.677  15.156  14.593  0.0890 -0.0105  0.4788
15062W        W31536  10.876  15.685   3.738  0.1155 -0.0857  0.0561
15063W        W31537   8.985  13.980  10.181 -0.0557  0.1370 -0.5697
15064W        W31538   1.336   7.478   3.361 -0.4108  0.0139  0.2444
15065W        W31539   0.369  15.381  14.063  0.2191 -0.2721 -0.0923
15066W        W31540   5.520   8.921   3.102  0.0629 -0.0605  0.1257
15067W        W31541   7.066  17.314   0.049 -0.0492 -0.1183  0.3001
15068W        W31542  15.553  17.701  11.977 -0.0314  0.0800 -0.0059
15069W        W31543   7.276   0.121   4.149  0.2285  0.4753  0.5226
15070W        W31544  16.318  17.808   4.334 -0.2196 -0.0148 -0.0986
15071W        W31545  16.999  14.797  14.049 -0.2343  0.2036  0.1210
15072W        W31546   7.615   9.547  14.466 -0.0348  0.3234 -0.0272
15073W        W31547  18.945  13.501   3.034 -0.0721  0.3164 -0.1887
15074W        W31548  12.843   1.725  10.768 -0.1084  0.0234 -0.0293
15075W        W31549  17.998  10.856   1.453  0.1394 -0.2749 -0.2851
15076W        W31550   6.995   4.218  14.438 -0.0765 -0.0724 -0.2777
15077W        W31551   4.826   6.775  10.703 -0.2681  0.1379 -0.1434
15078W        W31552   9.893   8.992   2.597  0.0641 -0.0807 -0.0335
15079W        W31553  16.109  17.015   2.720 -0.1983  0.0077  0.1078
15080W        W31554  12.808   5.605   2.863  0.3283 -0.1414  0.1179
15081W        W31555  18.167  16.505   2.445 -0.0321  0.2046  0.0921
15082W        W31556  18.152   9.478   2.750 -0.1587 -0.0592  0.2008
15083W        W31557   4.721   9.021  12.588  0.1762  0.1729 -0.3370
15084W        W31558  11.526   1.138  12.695  0.0573  0.0294  0.2039
15085W        W31559  13.406  19.495   0.024 -0.2039  0.0438  0.0443
15086W        W31560   7.593   8.918   3.705 -0.4957 -0.0796  0.2458
15087W        W31561  14.324  13.480   0.682  0.0842  0.0325  0.3934
15088W        W31562   8.574  10.064  10.596 -0.2798  0.2604 -0.1001
15089W        W31563   7.007  16.055   4.064 -0.3371  0.3032  0.0452
15090W        W31564  14.662  15.429   4.016  0.0194  0.1408 -0.2423
15091W        W31565   6.889  11.224  14.176 -0.2585  0.2357 -0.1922
15092W        W31566  13.004  13.947   1.518  0.3636  0.0133 -0.0897
15093W        W31567  17.447   4.288  12.063  0.3846  0.1928 -0.2454
15094W        W31568  12.597   0.801  13.262  0.0251 -0.1674  0.1061
15095W        W31569  18.571   1.982   1.434  0.1422 -0.0118  0.1992
15096W        W31570   6.288  10.295   0.088 -0.0311 -0.0453  0.3381
15097W        W31571  10.113   6.744   2.608  0.0746  0.1701 -0.2330
15098W        W31572  16.436   6.597   0.792  0.1967 -0.2307  0.0651
15099W        W31573   7.027   6.385  11.899  0.0559 -0.2822 -0.1056
15100W        W31574   8.372  14.859   1.340  0.0420 -0.1074 -0.1236
15101W        W31575   9.113   5.045  12.773  0.1997 -0.4099  0.1470
15102W        W31576   1.076  18.648   2.176 -0.1523 -0.0670  0.1968
15103W        W31577   4.372   1.755  10.033 -0.4003 -0.0287  0.3553
15104W        W31578  17.480  15.002  14.019 -0.0206  0.0563 -0.0709
15105W        W31579  12.197   5.804  13.277  0.0188 -0.2411 -0.2076
15106W        W31580  15.378   3.551  12.089  0.1028 -0.0835  0.1869
15107W        W31581   5.084   0.141  11.728 -0.3885  0.1797 -0.1011
15108W        W31582   9.881  14.462   3.499 -0.0298 -0.1239 -0.0620
15109W        W31583   1.033   6.975  12.831 -0.0882 -0.1104 -0.2358
15110W        W31584   9.321   9.093  13.456  0.0242  0.4461 -0.0530
15111W        W31585  11.495  10.661   1.623 -0.3379  0.0961 -0.2589
15112W        W31586  14.585   2.872  13.596 -0.2028  0.0190  0.0167
15113W        W31587   8.038   1.558   0.330 -0.1248 -0.1835  0.0647
15114W        W31588   0.405  17.781   1.350  0.1417  0.1716 -0.0203
15115W        W31589   2.508  15.274  14.164 -0.0739 -0.0680 -0.1165
15116W        W31590   2.079   2.475   4.395 -0.2062  0.0032 -0.0206
15117W        W31591  16.021   7.030  13.282  0.0360  0.0540 -0.0172
15118W        W31592   4.969   7.803  11.289 -0.1268 -0.2331 -0.1230
15119W        W31593   2.646  10.606  11.401 -0.1767  0.0415 -0.0097
15120W        W31594   3.167  15.219   9.240  0.5127 -0.2101  0.1983
15121W        W31595   3.622   8.672  10.679 -0.1823 -0.0624 -0.0640
15122W        W31596   6.409   0.909  12.454 -0.3712 -0.1100 -0.4083
15123W        W31597  13.183   3.356  13.117 -0.0954  0.2560 -0.0140
15124W        W31598  19.077   6.661  12.657 -0.1371  0.0135  0.3546
15125W        W31599   0.543  13.657   3.494  0.3330  0.4076  0.0339
15126W        W31600   1.996   4.041   2.302  0.1052  0.3559  0.1759
15127W        W31601  10.354   5.247   4.415 -0.1526 -0.1431 -0.2656
15128W        W31602  12.165   4.835   3.234  0.0276 -0.2429  0.0011
15129W        W31603  14.624   2.444  12.757  0.0219 -0.2960 -0.0374
15130W        W31604  15.429   5.127   1.551  0.0243  0.2090  0.1777
15131W        W31605   1.359  14.217  11.512  0.1972  0.0792 -0.0982
15132W        W31606   4.045   5.455  12.916 -0.1255  0.0638 -0.3781
15133W        W31607  17.587  13.833  10.967  0.2401  0.2562  0.0139
15134W        W31608   8.635  17.156   2.637  0.0931  0.2179  0.1500
15135W        W31609  12.159   5.064   0.394 -0.1039 -0.0829  0.1977
15136W        W31610  12.760   0.576   0.861  0.0041  0.0174 -0.1682
15137W        W31611  13.724   3.280   2.016  0.1602  0.1015  0.1706
15138W        W31612  14.164   7.490   3.095 -0.1861 -0.0388  0.0480
15139W        W31613   6.547  19.112   2.199 -0.1221 -0.1410  0.1167
15140W        W31614   9.524   3.055  11.314 -0.0205 -0.0147 -0.1284
15141W        W31615   6.907   8.981   1.371 -0.2557  0.2623  0.0749
15142W        W31616   5.154   2.137  11.851 -0.2786 -0.2884 -0.1761
15143W        W31617   5.127  10.584   3.875 -0.3468  0.0315 -0.0139
15144W        W31618   5.999  16.644   2.122  0.2637  0.2026 -0.1559
15145W        W31619  13.709  14.357   3.699 -0.0422 -0.1451  0.1918
15146W        W31620  10.113  14.422  11.486  0.1240 -0.1923 -0.2944
15147W        W31621   8.829   5.235  14.025  0.0476 -0.0696  0.0841
15148W        W31622  12.270  18.047  14.272 -0.2556 -0.2086 -0.2543
15149W        W31623   0.676  13.548  14.410  0.0560  0.0164  0.1076
15150W        W31624   3.739   0.447  12.573 -0.2074  0.1507  0.3186
15151W        W31625   0.836  11.992  10.636  0.0967  0.2742  0.0585
15152W        W31626  13.875  16.303   5.114 -0.3507 -0.1612 -0.3195
15153W        W31627   3.851  17.960  12.353  0.5794  0.1759  0.1638
15154W        W31628  18.607   3.883   1.838 -0.0494 -0.1696 -0.3160
15155W        W31629   2.718   4.820   4.669  0.1172 -0.2590  0.0154
15156W        W31630  11.667   6.644  13.634  0.1878 -0.0778 -0.4543
15157W        W31631  15.695   1.074   0.057 -0.1910  0.1002  0.3633
15158W        W31632  12.523  18.577  12.348 -0.1620 -0.3162  0.1361
15159W        W31633  11.644  14.124  13.907 -0.0919 -0.2622 -0.3355
15160W        W31634   4.533  14.375  10.510 -0.1408 -0.0765 -0.2655
15161W        W31635  10.999  11.818  13.005  0.1210 -0.5224  0.0305
15162W        W31636  16.073  13.925   2.172  0.4936 -0.1376 -0.2120
15163W        W31637   7.279  17.856  12.116 -0.2495  0.0226  0.1837
15164W        W31638  18.442   9.355  14.593  0.0768 -0.2405  0.1588
15165W        W31639   7.131   9.345  10.231 -0.0432  0.1688  0.2979
15166W        W31640   4.653  16.360   4.288 -0.0578  0.0013 -0.2699
15167W        W31641  11.728  17.054  11.873 -0.1848  0.0067  0.0201
15168W        W31642  17.606   7.756  12.991  0.2841  0.0293  0.0740
15169W        W31643   5.641  18.430   1.892 -0.2146 -0.1613 -0.2121
15170W        W31644   5.595  19.342  10.341 -0.0708 -0.2730  0.1016
15171W        W31645  17.357   2.841  14.451 -0.0451 -0.0529 -0.3593
15172W        W31646  11.854  19.094  14.494  0.0890  0.0784 -0.4126
15173W        W31647  12.076   3.678  13.456  0.0372  0.0962  0.0850
15174W        W31648  11.343   9.600   0.062  0.3907 -0.0795 -0.2549
15175W        W31649  13.746   7.065   4.726  0.2422 -0.1593 -0.0921
15176W        W31650   3.109   7.703  13.170 -0.0627 -0.1631 -0.0193
15177W        W31651  11.281   3.058  12.664 -0.1472 -0.1048  0.1046
15178W        W31652  16.057   7.130  12.751  0.3738  0.1552 -0.1745
15179W        W31653  12.400   8.369   0.716  0.3437  0.1116 -0.0786
15180W        W31654   6.207  19.580  11.976 -0.4625  0.0928 -0.0597
15181W        W31655  10.152  17.443  11.389  0.1265  0.1317 -0.1608
15182W        W31656  10.952  11.304  14.379  0.1050  0.0954 -0.1381
15183W        W31657   8.605  17.694   3.366  0.0568  0.4030  0.1057
15184W        W31658   6.571  15.075  11.076 -0.5005  0.1491 -0.3278
15185W        W31659  12.317   1.957   0.469 -0.2182  0.0394 -0.2817
15186W        W31660  15.164   7.038   1.731  0.0293 -0.3016  0.2100
15187W        W31661   5.540  17.919   3.343  0.0240 -0.0165  0.2462
15188W        W31662   7.124  14.375  11.582 -0.0990 -0.1572 -0.0117
15189W        W31663   6.297  18.634  10.629 -0.0551  0.0726  0.4103
15190W        W31664   3.357  15.291  11.693  0.3689  0.2420 -0.2550
15191W        W31665   7.891   5.191  14.087 -0.1981 -0.0391  0.0984
15192W        W31666   9.665   7.396  12.824  0.4230  0.1827 -0.0546
15193W        W31667   5.628   5.638   0.443  0.2434 -0.2365 -0.2771
15194W        W31668   6.236  17.618  10.497  0.0050 -0.1686  0.3093
15195W        W31669  12.013  17.836  12.721  0.3438  0.0304  0.3516
15196W        W31670  19.581  13.122   0.697 -0.3461  0.1102 -0.1243
15197W        W31671   2.705  18.468   0.839 -0.3628  0.0416  0.0096
15198W        W31672  10.213  10.405   3.575  0.2216  0.0356  0.0288
15199W        W31673   8.220  14.053  10.316 -0.0429 -0.0986 -0.1044
15200W        W31674   5.803  12.033  11.969 -0.1496  0.0682  0.0749
15201W        W31675  19.434   5.365   2.628 -0.0285  0.1384 -0.0667
15202W        W31676   9.530   8.338  13.094  0.2905 -0.2791  0.3022
15203W        W31677  18.823  15.811  10.129  0.1346 -0.0088  0.0164
15204W        W31678   0.497   7.020   1.817 -0.2133  0.2641 -0.1376
15205W        W31679  18.916   3.957   4.385 -0.1514 -0.1888  0.1968
15206W        W31680  18.312  16.645   0.221  0.1221  0.0222 -0.1237
15207W        W31681   2.557   3.960   9.065 -0.1315  0.0049  0.0549
15208W        W31682  11.097   2.539  14.015  0.2609 -0.2602  0.2522
15209W        W31683   4.830   2.895   1.385  0.1098 -0.1336 -0.2396
15210W        W31684   2.623  15.072  10.092  0.1056  0.3506  0.0102
15211W        W31685  10.939  16.983   3.253 -0.1262 -0.0720 -0.1699
15212W        W31686  12.868  15.636  13.812  0.0329 -0.2006 -0.2589
15213W        W31687  16.213   6.257   4.680  0.0347 -0.2161  0.0464
15214W        W31688   5.767  16.334   3.325  0.2553  0.1766  0.2170
15215W        W31689   5.082   4.388   5.067  0.2315 -0.0090 -0.2917
15216W        W31690   8.806  11.977   4.014 -0.1113 -0.2324 -0.0712
15217W        W31691   0.716   0.853   0.889  0.0288 -0.1735 -0.2799
15218W        W31692  16.911   3.678   3.524 -0.2970  0.0964  0.0781
15219W        W31693  11.739  13.455  12.146  0.1058  0.0884  0.3274
15220W        W31694   9.280  14.596   1.354  0.2409  0.0096 -0.1034
15221W        W31695  14.964  14.568   4.363 -0.1211  0.0986 -0.1332
15222W        W31696  18.759  10.852   4.169 -0.1344  0.1788 -0.2217
15223W        W31697   7.008   1.063   2.842 -0.2427  0.1551 -0.5058
15224W        W31698   0.202   5.654   3.223  0.1894  0.1961 -0.1197
15225W        W31699  10.536   2.670   2.544  0.1757 -0.0765 -0.0385
15226W        W31700  10.310  16.187   0.909  0.3681  0.2230 -0.3597
15227W        W31701  14.297   2.698  14.628  0.6438  0.1463 -0.4384
15228W        W31702   4.151  17.375   2.819 -0.0062 -0.1566 -0.2468
15229W        W31703  18.610   3.919   0.383 -0.3099 -0.0590  0.0284
15230W        W31704   7.921   5.084   1.663 -0.0615  0.0683  0.0958
15231W        W31705  11.594  17.851  10.903  0.5235  0.2935 -0.0068
15232W        W31706   6.812   7.413   0.850  0.0957  0.0834  0.0523
15233W        W31707   3.945  11.364  12.620 -0.0332 -0.1507  0.1889
15234W        W31708  15.742  16.792   0.599 -0.1730  0.0067  0.2607
15235W        W31709   6.972   6.505  14.026  0.2036  0.1175 -0.0024
15236W        W31710  12.189  15.475   0.885  0.4111 -0.4238 -0.2991
15237W        W31711   2.659  11.781   4.152 -0.0356  0.0506 -0.0766
15238W        W31712  11.051   8.748  11.394  0.1965  0.2633  0.1530
15239W        W31713   2.551   1.177  13.641  0.1227  0.1842 -0.1205
15240W        W31714   7.616   9.566  11.651 -0.1744  0.0355  0.0372
15241W        W31715   1.274  13.471   4.152  0.0389 -0.2754  0.0940
15242W        W31716   0.583   0.182   2.061  0.0367 -0.0948  0.0817
15243W        W31717   5.976  15.385  13.853 -0.0554  0.2659  0.2969
15244W        W31718   6.945  10.529  13.567  0.0957  0.0883 -0.0160
15245W        W31719  10.252   7.888   0.396  0.1793 -0.0519 -0.1449
15246W        W31720   9.530  17.679  10.135 -0.0421 -0.1786  0.0331
15247W        W31721  15.080  17.915   3.218 -0.2044  0.0568 -0.2648
15248W        W31722  12.201  12.437  12.392  0.2171 -0.1956  0.1790
15249W        W31723  17.268  12.636  12.477 -0.0412 -0.1635 -0.2489
15250W        W31724   4.375   4.237   2.501 -0.3874  0.0447  0.3087
15251W        W31725   2.920  12.445   5.108  0.0263 -0.2507 -0.3408
15252W        W31726   5.228   3.620   5.387 -0.0225 -0.0613 -0.1375
15253W        W31727  16.002  10.265  13.645  0.1219  0.0396  0.4650
15254W        W31728   9.618   8.704  12.060 -0.0159 -0.0135  0.0133
15255W        W31729   5.223   7.139  12.628 -0.2907  0.1664  0.0527
15256W        W31730  13.361   5.049   2.997 -0.3491  0.0138 -0.2090
15257W        W31731   5.138  11.940   0.245 -0.3383 -0.0064 -0.1539
15258W        W31732   1.987   7.673   2.173  0.2209 -0.1277 -0.0794
15259W        W31733  15.650  10.613   4.808  0.3745 -0.0908 -0.0331
15260W        W31734   5.531  17.508  14.372 -0.0360 -0.2449 -0.0479
15261W        W31735   3.749  12.663   4.968 -0.5030 -0.1503  0.0373
15262W        W31736   2.813  11.310  10.850  0.3626 -0.1904 -0.4122
15263W        W31737  10.994  10.574  10.349  0.2992  0.1654  0.0924
15264W        W31738  11.325   8.970  12.934  0.1886 -0.3099 -0.2084
15265W        W31739   0.257  12.426   1.590 -0.3957 -0.1117  0.0287
15266W        W31740   7.172   6.820  13.180  0.1105  0.0403  0.0429
15267W        W31741  12.440  11.345  11.505 -0.3602 -0.1784 -0.0588
15268W        W31742  15.682   1.392   3.166 -0.4134 -0.2900  0.0014
15269W        W31743  12.017   6.759   1.791 -0.2133 -0.2849 -0.1246
15270W        W31744   6.747  18.605   9.946  0.0204  0.2667  0.2448
15271W        W31745  13.201   2.644  10.730 -0.0700 -0.4046 -0.2357
15272W        W31746   6.232   6.146   4.264  0.0055 -0.0251  0.3100
15273W        W31747  16.116   7.934  14.574 -0.0650 -0.3310  0.1293
15274W        W31748   6.249  10.315  12.087  0.1826 -0.0187  0.2314
15275W        W31749   1.222   1.173  10.515 -0.1818  0.0556 -0.1436
15276W        W31750  17.690   2.634  11.168 -0.3874  0.0991 -0.0686
15277W        W31751   2.556  14.143   1.553  0.1154 -0.0789  0.0702
15278W        W31752   4.663   3.441   1.401  0.0989 -0.0120  0.2830
15279W        W31753   1.798  16.841   9.910 -0.1446 -0.6136 -0.4873
15280W        W31754   5.133   7.876  11.820  0.1307 -0.0031  0.0851
15281W        W31755   8.166  17.799  14.237 -0.0824  0.3576 -0.1443
15282W        W31756  14.484  11.526   3.474 -0.2073 -0.1276 -0.0921
15283W        W31757  18.061  13.497  10.729 -0.1221  0.1820  0.0638
15284W        W31758   4.344  13.263   3.226 -0.3537  0.0470 -0.0716
15285W        W31759  13.517  10.844   2.787  0.0312 -0.0864 -0.2140
15286W        W31760   2.085  16.914   3.518 -0.3616 -0.3499 -0.2676
15287W        W31761  11.551   2.699  14.257  0.1288 -0.0289 -0.3389
15288W        W31762  19.430  17.252   9.464 -0.1773 -0.1261 -0.0351
15289W        W31763  13.795  10.914   1.967 -0.0046 -0.0340 -0.0912
15290W        W31764   7.234  15.115   3.399 -0.0701 -0.1094 -0.2399
15291W        W31765   5.319  15.280  10.642 -0.0639 -0.0232  0.2397
15292W        W31766  16.717   3.298   3.271  0.3375 -0.0466 -0.0654
15293W        W31767   8.566   3.653   0.540 -0.0180 -0.1034  0.4090
15294W        W31768  18.176  13.658   3.667  0.2459 -0.0547 -0.0573
15295W        W31769  12.982  10.773   5.845 -0.1341  0.3019 -0.1015
15296W        W31770  16.378   2.069  11.046  0.0142 -0.1546 -0.0925
15297W        W31771   0.568   0.641  12.946  0.1921  0.2524  0.1610
15298W        W31772   9.730  13.880  13.935 -0.2598  0.1562 -0.0969
15299W        W31773  17.795  16.472  11.193 -0.4572  0.0931  0.2209
15300W        W31774  19.444   8.576  10.820 -0.3059  0.0250 -0.1375
15301W        W31775  16.745   5.932  10.888  0.1297  0.2378 -0.0807
15302W        W31776   2.855  19.354  10.434  0.2820  0.1979  0.2385
15303W        W31777   1.614  15.487  14.439  0.4759 -0.0230 -0.0607
15304W        W31778  11.029   7.245  13.501  0.2420  0.2727  0.0201
15305W        W31779   0.106   9.622   4.574  0.2149  0.2871 -0.2989
15306W        W31780  10.375   2.634  11.303  0.1092 -0.1163 -0.1328
15307W        W31781  17.634   6.021  11.468  0.1365  0.1762  0.0786
15308W        W31782  16.572   2.743  11.992  0.1397 -0.2387 -0.2849
15309W        W31783  16.452   9.650   4.377 -0.3437 -0.5415  0.1759
15310W        W31784   6.135  11.601   4.658  0.0629  0.1021  0.1306
15311W        W31785  18.705   7.744   1.847 -0.0304  0.3078  0.2640
15312W        W31786  13.228  18.575   3.478 -0.0559 -0.2036  0.1592
15313W        W31787   6.839  10.561  12.658 -0.2476  0.0934 -0.0360
15314W        W31788   2.690   0.366   3.407 -0.0289  0.2176  0.1633
15315W        W31789   5.298   9.802  11.536 -0.1653 -0.2612 -0.0070
15316W        W31790   3.918  17.433   0.494 -0.2111  0.0860  0.2588
15317W        W31791  19.305   0.987   2.644 -0.0863  0.0572 -0.0688
15318W        W31792   6.182   3.131   3.369  0.0695 -0.0241  0.0582
15319W        W31793   7.223  15.785   0.448 -0.0272 -0.1583 -0.1226
15320W        W31794   0.838  14.508   0.152 -0.0623 -0.0499  0.0488
15321W        W31795   3.919   4.773   1.494  0.0642 -0.0032 -0.1368
15322W        W31796   2.999  19.435   0.929  0.1037 -0.1618  0.3524
15323W        W31797   2.040   1.400  12.163 -0.0567 -0.1496 -0.0321
15324W        W31798  11.117   1.499   4.821 -0.3093 -0.0353 -0.1991
15325W        W31799  13.134   9.455  11.738 -0.0399  0.1776 -0.2174
15326W        W31800  11.954  15.982   3.062 -0.3295  0.1236  0.1022
15327W        W31801   0.721   1.326  11.818 -0.0902  0.1645 -0.2269
15328W        W31802   6.404   8.958  12.189  0.1079  0.0965 -0.0464
15329W        W31803   2.035  18.706   4.081  0.0186 -0.2147  0.0968
15330W        W31804   6.695   6.410   9.640  0.1526  0.2796  0.2531
15331W        W31805   8.135  10.993  13.050  0.1950 -0.1712 -0.1403
15332W        W31806   3.091   6.036  13.257  0.5432  0.5692 -0.1209
15333W        W31807  18.401   3.400   0.550  0.4811 -0.2737  0.1095
15334W        W31808  13.550  15.333   2.584  0.0629 -0.0752 -0.1531
15335W        W31809   0.283   8.207  14.314 -0.1109 -0.2502 -0.2161
15336W        W31810  17.677   1.134   2.235  0.0353  0.1005 -0.2552
15337W        W31811  14.940  14.268   2.875 -0.1701 -0.1267 -0.0408
15338W        W31812  12.034   2.066  10.460  0.2050 -0.0946 -0.0865
15339W        W31813  11.938  13.507  11.665 -0.1177  0.3236  0.1195
15340W        W31814  17.520   3.398   1.096  0.1829 -0.0511  0.0280
15341W        W31815   1.311  10.931  13.765  0.2027 -0.4805  0.1479
15342W        W31816  12.528  10.838  12.630  0.3254  0.0154  0.1180
15343W        W31817  16.340  18.413  12.569  0.0689 -0.1795  0.1364
15344W        W31818  14.087  18.772  14.518  0.0151 -0.1479 -0.0371
15345W        W31819   4.899   8.944   3.610  0.3194  0.2689 -0.0928
15346W        W31820  12.250   9.132  13.942  0.0585 -0.3541  0.1111
15347W        W31821   4.563  13.435   2.803  0.0202  0.0932  0.1897
15348W        W31822  16.200  15.173  12.012  0.1045 -0.0767  0.4072
15349W        W31823  14.505   9.818  12.041 -0.0076 -0.0243 -0.1472
15350W        W31824   1.063   0.607  14.685 -0.2315 -0.1035 -0.1662
15351W        W31825   4.142   6.779   0.765 -0.2270 -0.2973 -0.2438
15352W        W31826  12.498  11.970   2.330 -0.0703  0.0047  0.2445
15353W        W31827  15.674  17.202   3.934  0.0162  0.0846 -0.5053
15354W        W31828   6.987   4.162   4.936  0.0822 -0.1072  0.2176
15355W        W31829  17.027  17.150  11.107  0.1448  0.1292 -0.3272
15356W        W31830  17.857   6.165   1.457 -0.2637  0.0747  0.1286
15357W        W31831   9.856  14.828  12.640  0.1959  0.0877 -0.0774
15358W        W31832   6.992   8.297  12.174  0.2652  0.1375  0.0653
15359W        W31833   9.565   6.409  13.661  0.2152  0.0836 -0.3705
15360W        W31834   1.703   5.304   1.562  0.2344  0.2783  0.1048
15361W        W31835   1.500  14.743   4.420 -0.0296  0.1640  0.1052
15362W        W31836  13.828  16.545   4.018 -0.0909  0.0482 -0.1792
15363W        W31837  17.651  19.252  11.992 -0.2224 -0.0388  0.0418
15364W        W31838   2.521   1.560   2.830 -0.1776  0.1872  0.1731
15365W        W31839   7.161   5.542   3.384  0.1571  0.0300 -0.3183
15366W        W31840   8.264  13.445   1.800  0.0689  0.2086  0.2238
15367W        W31841  10.175  12.426  13.122  0.0371 -0.2285 -0.1155
15368W        W31842   8.845  14.824   0.278 -0.0222  0.1051  0.0744
15369W        W31843   7.455  11.760  12.726 -0.6050 -0.0339 -0.3538
15370W        W31844   0.230  19.539   3.379  0.5809 -0.2022  0.1242
15371W        W31845  19.256  15.144   4.975  0.2171 -0.1696  0.0908
15372W        W31846  13.365  11.016  12.385  0.0636  0.2257 -0.3261
15373W        W31847   2.579  13.759  10.420  0.1558 -0.0464 -0.1873
15374W        W31848  11.789  13.394   3.784  0.0323  0.1336  0.1159
15375W        W31849   7.872  16.025   0.699 -0.1886 -0.0659 -0.1802
15376W        W31850   6.559  13.628  12.393  0.1065  0.2720 -0.0549
15377W        W31851   9.372   1.502   3.295 -0.1545 -0.1346  0.0102
15378W        W31852   8.800   6.488  14.025  0.0555 -0.1149  0.1450
15379W        W31853  13.302  12.982  11.177  0.1694 -0.2090 -0.0844
15380W        W31854   0.095   1.724   5.001  0.1484  0.0064  0.0697
15381W        W31855  18.274  17.303  13.715  0.1529 -0.2244 -0.1086
15382W        W31856   4.324   8.826  12.864 -0.1259 -0.2381 -0.3066
15383W        W31857  17.650  17.996   2.128 -0.0493 -0.2419  0.0292
15384W        W31858   7.828   9.303  13.059 -0.0812 -0.0211 -0.3188
15385W        W31859  17.256  14.688  12.104 -0.1208 -0.0185 -0.0455
15386W        W31860   4.669   7.181  11.125  0.1162 -0.0321 -0.4066
15387W        W31861  18.500   9.276  12.261 -0.2389 -0.0731 -0.2928
15388W        W31862   6.448  11.432   4.243 -0.4666  0.0652  0.0859
15389W        W31863   4.113   9.846   2.683  0.0119  0.0065  0.4204
15390W        W31864  12.859  14.267  11.898 -0.0218  0.3380 -0.2413
15391W        W31865  14.214   1.462  10.631 -0.2816 -0.3882 -0.1970
15392W        W31866   1.163   2.767  11.321  0.1882 -0.0945 -0.0245
15393W        W31867   5.479   2.412   2.972  0.3771  0.2223 -0.1178
15394W        W31868   8.073  18.617  11.148  0.0750 -0.0426 -0.2141
15395W        W31869  11.990   7.503   3.944 -0.1378  0.5378  0.2315
15396W        W31870   0.959   4.157   2.838  0.0832  0.2533  0.0026
15397W        W31871  10.112  18.491   3.380  0.0428 -0.0054 -0.0200
15398W        W31872  17.900   3.977  12.212 -0.0949 -0.2127  0.1156
15399W        W31873  18.585   3.276   2.857  0.2192  0.0899 -0.0176
15400W        W31874  16.607  15.808   4.649 -0.0029 -0.0050  0.3057
15401W        W31875  17.975   2.603   1.592  0.1450 -0.1799 -0.0132
15402W        W31876  15.795   6.900  12.208 -0.1785 -0.2231  0.3109
15403W        W31877   5.318  10.273  12.441 -0.2523 -0.0508  0.0927
15404W        W31878   2.957  12.467   0.687  0.1658  0.0931  0.0191
15405W        W31879   7.046  18.904  10.321  0.1801  0.2345 -0.3663
15406W        W31880  14.616  18.407   4.900 -0.0091 -0.0338 -0.2808
15407W        W31881   8.837  10.987   0.192 -0.1398  0.1245 -0.0749
15408W        W31882   8.417  16.728   4.499  0.0405 -0.0094  0.0755
15409W        W31883   1.395   5.610   2.974 -0.0120 -0.4346  0.0053
15410W        W31884   8.071  11.330   4.868 -0.0944 -0.1722 -0.0565
15411W        W31885   5.411  14.962  13.238 -0.1710  0.1936 -0.2127
15412W        W31886  13.696  10.732   3.791  0.0663  0.4858  0.0937
15413W        W31887   0.498  18.041   3.976 -0.0662 -0.0308  0.0415
15414W        W31888  19.386   0.169  12.090  0.1401 -0.0557  0.0355
15415W        W31889   8.945   9.052   5.830  0.0595 -0.0031  0.0918
15416W        W31890  18.745  16.606   4.984 -0.1498  0.4819  0.2926
15417W        W31891  17.167   7.392   1.916  0.0485 -0.1377  0.0873
15418W        W31892  11.240  18.769   0.429 -0.2874 -0.2760 -0.0945
15419W        W31893   8.667   0.246  12.376  0.2732  0.0041 -0.0252
15420W        W31894  16.243  19.486   2.958  0.1623 -0.0520 -0.0048
15421W        W31895  17.613   1.322   3.940 -0.0262 -0.0705 -0.0611
15422W        W31896  17.885  12.239  10.967  0.0722  0.0310 -0.2994
15423W        W31897   2.832   8.773  11.073  0.0272  0.0623  0.1296
15424W        W31898   0.446  12.673   4.482 -0.4826 -0.1847  0.0627
15425W        W31899   0.164  13.467   4.246 -0.2206 -0.0809  0.1450
15426W        W31900   3.738   2.218  11.221 -0.2516 -0.0582  0.4743
15427W        W31901   0.806   6.305  14.264 -0.0821  0.2520  0.0526
15428W        W31902   4.574  12.099   0.012  0.0484  0.0462  0.2659
15429W        W31903  10.651   8.933   4.617  0.0651 -0.0108 -0.0871
15430W        W31904  14.373   3.298  13.843 -0.3379 -0.0051  0.1987
15431W        W31905  18.018  16.579  11.994 -0.0327  0.2629 -0.2072
15432W        W31906   5.919  16.658  10.627 -0.2368  0.1013  0.0370
15433W        W31907   8.404   4.917   3.844 -0.1475 -0.0848  0.1540
15434W        W31908  15.318  14.490   3.917  0.1062 -0.1295  0.0644
15435W        W31909   1.742   6.043  13.417  0.0771 -0.1883  0.1706
15436W        W31910   3.700  15.549  10.783 -0.0378  0.1649 -0.2678
15437W        W31911  11.058  13.730  13.453  0.0494  0.1140 -0.1676
15438W        W31912   0.348  18.303  10.124  0.0453  0.1803 -0.2632
15439W        W31913  11.385  15.868  13.150  0.0061  0.3000 -0.0062
15440W        W31914  15.795  18.911   2.752 -0.1597 -0.0240  0.1417
15441W        W31915   8.647  19.206  10.532  0.0884  0.2227 -0.4338
15442W        W31916  10.367   8.711  10.788  0.0662 -0.1710 -0.1370
15443W        W31917   5.307  14.418  12.567  0.4894 -0.0556 -0.2761
15444W        W31918   5.141  19.458  12.214  0.1785 -0.2509  0.4945
15445W        W31919   3.402  17.132   1.648  0.1683 -0.3577  0.1855
15446W        W31920   8.067   6.630   0.534 -0.1030  0.0255  0.0323
15447W        W31921  17.076   5.587   2.006  0.2097 -0.3172  0.0449
15448W        W31922   3.214   8.883   1.384  0.0688 -0.0512 -0.2424
15449W        W31923  10.858  10.273  14.289 -0.1830  0.0877  0.0432
15450W        W31924  15.686   1.031  11.160 -0.0657  0.1052  0.0563
15451W        W31925   4.584  16.522   0.342  0.0554  0.2476  0.2516
15452W        W31926  10.858  16.378   0.995 -0.1000 -0.3522 -0.2944
15453W        W31927  19.063  14.449   8.975  0.0979  0.3478 -0.1351
15454W        W31928  14.548   7.582   5.833  0.1145  0.0461 -0.1282
15455W        W31929   9.895  13.195   2.309 -0.1690 -0.0622 -0.1459
15456W        W31930  18.745   1.681  11.979 -0.1334 -0.3391 -0.0322
15457W        W31931   1.149  17.003   3.741  0.0837 -0.0855  0.2345
15458W        W31932  19.263  19.369  10.232 -0.1302 -0.0892 -0.1260
15459W        W31933   0.534  15.088   2.285 -0.1066 -0.0221 -0.1072
15460W        W31934   0.445  12.200   0.665 -0.1530  0.0429 -0.0504
15461W        W31935  13.682  16.077  12.422 -0.0183  0.3822  0.1523
15462W        W31936  12.486  14.326   0.700  0.3230  0.1557  0.2180
15463W        W31937   2.233   7.869  10.859  0.2755 -0.0060 -0.1277
15464W        W31938  16.262  13.252   0.740 -0.1123  0.1379  0.4167
15465W        W31939  11.468  15.901   9.927 -0.0566 -0.4319  0.0364
15466W        W31940  17.248   1.889  13.935 -0.1898  0.1539 -0.0237
15467W        W31941  13.547  13.955   5.072 -0.0209 -0.3122  0.3937
15468W        W31942  13.184   4.600  11.766 -0.1152  0.2519  0.2259
15469W        W31943   6.912  17.176   1.050  0.2024 -0.3165 -0.0669
15470W        W31944   0.413  17.705   3.186  0.2676  0.1883 -0.2516
15471W        W31945   3.462  10.256  11.269 -0.1979 -0.4258 -0.1292
15472W        W31946   5.554  14.647  10.448  0.2468 -0.1832 -0.0266
15473W        W31947  17.755   7.788   4.485  0.2023  0.1115 -0.4807
15474W        W31948   8.268  15.720   2.735 -0.0360  0.1189  0.0567
15475W        W31949  13.689  15.220  12.074 -0.3796 -0.0859  0.2311
15476W        W31950  13.268   9.422   3.061 -0.0218 -0.0139 -0.3579
15477W        W31951  13.154  13.750  11.872 -0.4172 -0.0285  0.0359
15478W        W31952  12.466   3.682  13.063  0.2680 -0.1148  0.0198
15479W        W31953   4.256  11.451   2.594 -0.2047 -0.1409 -0.0322
15480W        W31954  14.404  10.165   3.535  0.1059  0.2393 -0.0269
15481W        W31955   8.946   8.560   4.026  0.0312  0.1201 -0.2304
15482W        W31956  15.881   4.224  10.009 -0.0388  0.4813 -0.1270
15483W        W31957   9.321  14.066   4.309 -0.2451  0.0664 -0.0522
15484W        W31958   0.095   4.382   2.845  0.1009  0.2086  0.1671
15485W        W31959  17.777  13.095  11.857  0.1086  0.2941  0.1749
15486W        W31960  19.014   6.843  14.632 -0.2340  0.3291 -0.5178
15487W        W31961   6.852   2.925  11.861 -0.1459 -0.0807 -0.0802
15488W        W31962   6.497   8.411  12.050 -0.1699 -0.2391  0.0069
15489W        W31963  11.234   5.022   3.728 -0.2933 -0.0082  0.2802
15490W        W31964   0.980   0.510  11.321 -0.1473 -0.2075  0.0876
15491W        W31965  19.335  12.514   2.379  0.0758 -0.3369 -0.0834
15492W        W31966   5.991  13.005  10.287  0.0102 -0.4107  0.0894
15493W        W31967   0.593   5.954  10.717 -0.1473 -0.1546 -0.1672
15494W        W31968   9.316   6.658   1.748 -0.1011  0.0942  0.1864
15495W        W31969   7.914  12.413   1.714  0.0585  0.0027  0.1856
15496W        W31970  11.700   1.279   4.163 -0.0117 -0.0921 -0.2506
15497W        W31971   5.505  19.057  13.753  0.6348  0.0648 -0.2522
15498W        W31972  15.511  15.019   4.042 -0.0798  0.0431 -0.1286
15499W        W31973   2.535  15.864   1.101  0.0382 -0.0221  0.0948
15500W        W31974  15.504  17.584   1.800 -0.1680  0.3362  0.2506
15501W        W31975  15.103  13.575   0.053 -0.2611 -0.1686  0.1124
15502W        W31976   3.370  13.679   1.243 -0.0026 -0.2629 -0.2653
15503W        W31977  14.447   3.443  10.644 -0.1829  0.2578 -0.0058
15504W        W31978  11.108  19.574   3.283 -0.0065  0.1069 -0.0224
15505W        W31979  18.967  14.652  12.117  0.0575  0.2844 -0.2839
15506W        W31980  14.721   6.045  14.016 -0.0203  0.0152 -0.3287
15507W        W31981  18.665  18.201  10.805  0.0088 -0.1961  0.1729
15508W        W31982  13.783   1.244  11.653 -0.0036  0.1354  0.0530
15509W        W31983  14.388   5.276   1.441 -0.2816 -0.0002 -0.0620
15510W        W31984   1.826   5.533  13.532 -0.1752  0.1825  0.0516
15511W        W31985  16.284   4.405  10.275 -0.1759 -0.2483  0.3242
15512W        W31986   1.073  10.168   1.988 -0.0890 -0.2526 -0.2008
15513W        W31987  18.863  10.179   0.266 -0.1822 -0.2615 -0.1497
15514W        W31988  13.135   3.897  14.581 -0.1363  0.0875 -0.3614
15515W        W31989   9.630   9.959   3.424  0.1465 -0.3427  0.0599
15516W        W31990  12.393   7.527   4.425 -0.2157 -0.4120 -0.2119
15517W        W31991   5.711   6.783   2.910  0.2325  0.2909  0.1600
15518W        W31992   5.612  17.941   2.736  0.0983  0.0043 -0.2267
15519W        W31993  16.929  12.552   3.803  0.1714  0.0573 -0.4444
15520W        W31994  15.375  10.199   3.916  0.0686  0.0933  0.1757
15521W        W31995  16.740  11.467   3.262 -0.0671  0.2379 -0.1074
15522W        W31996  18.650   8.727   0.676 -0.0184 -0.2497  0.0397
15523W        W31997   5.617  18.575  12.574  0.0844 -0.0888 -0.2952
15524W        W31998   4.014  18.184  14.532 -0.1001  0.1138  0.0581
15525W        W31999   1.414   6.353   0.893 -0.2945  0.3249  0.0879
15526W        W32000   8.490   6.838  12.233 -0.1575  0.1335 -0.0591
15527W        W32001   2.181   8.081   2.637 -0.1260 -0.0325 -0.4287
15528W        W32002  18.049   6.880   5.598  0.1228  0.1744  0.1724
15529W        W32003  10.991   4.680   2.820  0.0298 -0.1499 -0.0392
15530W        W32004   3.620  12.016   1.605  0.1064  0.1919 -0.3462
15531W        W32005   3.040  17.719   1.362  0.0651 -0.0921 -0.0074
15532W        W32006   2.964   4.466   2.250  0.1714 -0.0537  0.1886
15533W        W32007  14.156  18.560  10.657 -0.4041  0.2090  0.0544
15534W        W32008   9.991   9.915  10.652 -0.0188  0.3188  0.0999
15535W        W32009   6.993  17.975  11.342  0.3581 -0.2393  0.2075
15536W        W32010  12.010  18.724   1.093  0.1333  0.0671 -0.0615
15537W        W32011  17.398   2.773  11.552 -0.1793  0.0408  0.1522
15538W        W32012  18.291   3.422   4.416  0.2880  0.0463 -0.0799
15539W        W32013  12.470  14.542  13.141  0.1102 -0.3055 -0.1790
15540W        W32014   4.716   4.808  10.521  0.4007  0.1317  0.0528
15541W        W32015   2.354  19.493  14.568  0.1865 -0.2324 -0.2339
15542W        W32016   5.736  11.448   0.476  0.1467 -0.0216  0.2697
15543W        W32017  13.507  12.097   1.478  0.1930  0.2907  0.3075
15544W        W32018  11.724   5.392   1.054  0.0624 -0.1108  0.1658
15545W        W32019   8.906   6.276   1.908  0.1441  0.2601 -0.1506
15546W        W32020   3.055   3.763  14.571 -0.1025 -0.0777 -0.1480
15547W        W32021   7.397  17.718   0.195 -0.1282  0.2819 -0.1834
15548W        W32022  12.203  11.295   4.253  0.0561  0.1368 -0.1104
15549W        W32023  14.918   2.493  10.632 -0.0605 -0.0303 -0.0981
15550W        W32024   5.322   9.840   0.267  0.1977 -0.0672 -0.0998
15551W        W32025  13.866   7.245  10.986 -0.1446 -0.3694 -0.0414
15552W        W32026   2.422   3.186   5.074 -0.0153  0.0367  0.0826
15553W        W32027  14.810   6.632   0.161  0.0737 -0.0139 -0.0545
15554W        W32028   4.773   5.815  14.194  0.2916 -0.2226  0.1522
15555W        W32029   2.724   9.033   1.137 -0.0860 -0.1536 -0.1320
15556W        W32030   6.687   4.030   4.156 -0.0493 -0.0055  0.0713
15557W        W32031   3.050  14.742   2.342  0.3555 -0.0844  0.1197
15558W        W32032   1.982  10.289   4.023 -0.1024  0.0711 -0.0769
15559W        W32033  17.745  10.500   4.131 -0.2200  0.2453  0.1919
15560W        W32034  18.132   0.762  14.520  0.0716  0.0208  0.0947
15561W        W32035  14.342   0.496   3.713 -0.1986  0.0578  0.0068
15562W        W32036  17.907  13.727   0.746  0.1479 -0.1949  0.3389
15563W        W32037   8.943  10.582   3.525  0.1195  0.0733 -0.1374
15564W        W32038   3.144  17.028   4.937  0.0670  0.1319 -0.4812
15565W        W32039   4.766   9.396   5.145  0.2923 -0.2540 -0.0640
15566W        W32040  13.198   0.610   1.822 -0.0477 -0.1437 -0.0286
15567W        W32041  12.128   0.792   4.225 -0.4703 -0.1263 -0.0004
15568W        W32042   8.694  16.932   9.854 -0.0783 -0.0875  0.1474
15569W        W32043  11.215   2.900  10.946 -0.6417  0.1272 -0.0199
15570W        W32044   5.478  17.071   0.504  0.2397  0.0037 -0.0906
15571W        W32045  17.565   6.990   2.472 -0.1456 -0.1431 -0.5717
15572W        W32046  12.332   7.188  11.508 -0.1125 -0.0750  0.4952
15573W        W32047  19.272   1.000  11.305  0.1612  0.0486 -0.1427
15574W        W32048   1.837   0.630  13.518  0.0803  0.1110 -0.0196
15575W        W32049   3.713   4.865   2.811 -0.0124  0.2269  0.0688
15576W        W32050  12.811   3.694   0.920 -0.2207 -0.1216 -0.0700
15577W        W32051   9.614   4.890   4.178 -0.1407 -0.0768 -0.1523
15578W        W32052   6.393  14.684   4.906 -0.2267  0.0708  0.1346
15579W        W32053   1.956   7.284   0.599 -0.1420  0.1688  0.1058
15580W        W32054  17.452  14.561   9.718  0.2206  0.0997  0.0689
15581W        W32055   4.201   6.229   1.664 -0.0262 -0.0203 -0.0478
15582W        W32056  11.303   1.407  10.553  0.1917 -0.0070 -0.1920
15583W        W32057   2.817  11.472   1.776  0.1986  0.4056 -0.2026
15584W        W32058  11.281   1.748  11.074  0.2162  0.0385 -0.4500
15585W        W32059  15.723  18.922  12.412  0.3385 -0.1288  0.0006
15586W        W32060   1.513   3.924   1.262 -0.4489  0.2163 -0.2133
15587W        W32061   0.833  19.515  13.651 -0.1237  0.0028 -0.2769
15588W        W32062   3.698   2.194   3.189  0.0084 -0.1050  0.1846
15589W        W32063   8.744   4.653   9.665  0.1496  0.1418 -0.4321
15590W        W32064  14.780  11.162  14.354  0.0015  0.0492 -0.2460
15591W        W32065  14.807  10.520   0.727  0.0836 -0.0709 -0.1653
15592W        W32066  18.836   6.026  14.463 -0.2097  0.1140 -0.1896
15593W        W32067   4.462   1.965   0.317  0.1418  0.1757 -0.2314
15594W        W32068  13.769  19.065  12.179 -0.0661 -0.3505 -0.1084
15595W        W32069  18.191  10.793   3.406 -0.3879  0.0986 -0.2776
15596W        W32070   2.647  10.988   2.197  0.0827  0.2604 -0.0432
15597W        W32071   3.220   9.816  11.108  0.1545  0.1629 -0.0849
15598W        W32072   2.653   9.859  12.095  0.0302  0.1779 -0.0627
15599W        W32073   8.701   9.480  12.888  0.1031  0.2719 -0.2375
15600W        W32074   3.482   6.315   5.009  0.0521  0.1392  0.1471
15601W        W32075   5.813   4.093   2.210  0.0039  0.0099 -0.0088
15602W        W32076   8.567   8.948   4.516  0.0360  0.1608  0.3168
15603W        W32077  19.383  18.388   4.812 -0.2107  0.1222 -0.0836
15604W        W32078   7.252   7.545   4.152  0.1638  0.1170  0.0596
15605W        W32079   6.324  13.426  14.655  0.2031  0.0271 -0.1212
15606W        W32080  11.072   4.072  11.847 -0.0752 -0.1520  0.0887
15607W        W32081  17.702  11.942  10.575 -0.2073  0.0198  0.0111
15608W        W32082  12.170  13.933  13.033 -0.0385  0.0731 -0.1142
15609W        W32083  14.131  11.644  13.555  0.0625 -0.1791  0.0956
15610W        W32084  10.514   6.851   3.440  0.0643  0.1620 -0.1501
15611W        W32085   1.689   5.749   4.770  0.0529  0.0709  0.0783
15612W        W32086   6.973   6.141   1.062  0.1060  0.2390 -0.0833
15613W        W32087   6.782   9.771   3.040  0.3720 -0.0377  0.4358
15614W        W32088   6.467   1.911   2.918 -0.4505  0.1090 -0.1970
15615W        W32089  14.102  14.064   2.445  0.0152 -0.2827 -0.0564
15616W        W32090  18.660  12.770   3.495  0.0036 -0.5110 -0.2275
15617W        W32091  10.946  15.788  14.023 -0.0845 -0.1100 -0.1136
15618W        W32092  15.028   8.877  14.591 -0.0983  0.1332  0.0646
15619W        W32093   9.881  13.561  11.261 -0.1495 -0.0132  0.3810
15620W        W32094   7.615  19.291  11.715 -0.0190  0.0099 -0.1093
15621W        W32095   9.411   3.189  14.690 -0.2513  0.2456  0.1686
15622W        W32096  17.935   5.681   1.143  0.0877  0.0114 -0.2718
15623W        W32097  11.114  17.535  10.245  0.0107 -0.0746 -0.1582
15624W        W32098  19.086  10.333   2.367 -0.0201  0.0230 -0.1860
15625W        W32099  16.780   8.385   1.653  0.1655 -0.0902 -0.0231
15626W        W32100   0.717   7.908  14.443  0.2993  0.0661  0.0609
15627W        W32101   8.891  11.891   1.517 -0.0145 -0.0631 -0.2050
15628W        W32102  17.135  19.390  11.105 -0.2624  0.0647 -0.0200
15629W        W32103   9.546  13.630  14.286 -0.0954 -0.2467 -0.0141
15630W        W32104   4.770  12.186   3.835 -0.0038 -0.3362  0.1178
15631W        W32105  13.674  16.597   0.362  0.2277 -0.0590  0.1316
15632W        W32106  16.283   1.208  12.263  0.1488  0.1786 -0.0620
15633W        W32107  11.994  17.124  13.498  0.0521  0.1812  0.1612
15634W        W32108  14.792   1.565  13.875  0.1593 -0.5180  0.0100
15635W        W32109  15.488   1.082   2.411  0.1748 -0.0347  0.0279
15636W        W32110  13.141  11.875   4.152  0.0024  0.0281 -0.2114
15637W        W32111  15.413   6.884  10.601 -0.0119 -0.2043 -0.2346
15638W        W32112   5.217   3.751  13.513 -0.0896 -0.1979  0.2080
15639W        W32113  13.063   2.649   1.092 -0.3327  0.1854 -0.0921
15640W        W32114   9.314   5.845   5.123 -0.0057  0.3249 -0.3199
15641W        W32115  17.586   8.815  13.021  0.0100 -0.2044  0.1814
15642W        W32116   0.477  17.228   4.630  0.1088  0.0144 -0.2923
15643W        W32117  17.861   9.873   0.718 -0.4074 -0.0461 -0.3190
15644W        W32118   1.226  10.998   3.079  0.0736  0.3069  0.0469
15645W        W32119   3.065   3.538  12.570  0.2169 -0.0788 -0.4252
15646W        W32120   9.972  19.560   2.202 -0.1282 -0.0068 -0.1476
15647W        W32121   3.033  13.695   4.564  0.0423 -0.0572  0.1603
15648W        W32122  19.189  14.812  13.847 -0.1840  0.0446  0.1008
15649W        W32123  16.285  19.066   2.652  0.2146  0.0350  0.3409
15650W        W32124  14.970   3.120   3.990 -0.1819  0.0679  0.1838
15651W        W32125  14.022   7.387   5.828 -0.1012  0.5016 -0.0810
15652W        W32126  10.241  18.054  12.685 -0.2918 -0.0269  0.1125
15653W        W32127   4.627  11.764   0.760 -0.2070  0.1898 -0.1163
15654W        W32128  14.581   9.186   4.636  0.2834 -0.0574  0.0756
15655W        W32129   1.181  15.672  11.006  0.0756  0.1575 -0.0424
15656W        W32130  13.037  10.059   2.344 -0.1038  0.1159  0.0844
15657W        W32131   5.464  16.678   0.881  0.0012 -0.0876  0.2523
15658W        W32132   5.228  11.446  12.488 -0.1190  0.2628 -0.0022
15659W        W32133   3.126   5.040   0.962  0.1535 -0.0505 -0.1109
15660W        W32134   1.696   1.163  10.282 -0.1156  0.0891  0.0378
15661W        W32135  17.663   9.323   3.500  0.3005  0.0873 -0.1127
15662W        W32136   2.646  15.341  13.226 -0.3777 -0.0561 -0.0955
15663W        W32137   2.230   9.421   3.521  0.2650  0.1321  0.1304
15664W        W32138   6.842  14.951   3.008  0.0431  0.2997 -0.4249
15665W        W32139  17.443   4.806   1.597  0.0246 -0.3540 -0.1238
15666W        W32140  10.730  13.914  12.409  0.1369  0.2489  0.1211
15667W        W32141  18.641  13.111  13.699 -0.0659  0.1696  0.2881
15668W        W32142  16.102   2.010  13.106 -0.1521 -0.0628  0.0665
15669W        W32143  10.568   8.068   3.700 -0.3331  0.2863 -0.1180
15670W        W32144   0.793   6.702  11.113 -0.1112  0.3125 -0.0187
15671W        W32145  18.923   2.616  14.499 -0.2870  0.0012  0.1307
15672W        W32146   0.529   6.136   5.794  0.4200  0.0277 -0.0223
15673W        W32147  16.433  14.067   0.230  0.1382  0.1760  0.2545
15674W        W32148   9.238  13.948   2.474 -0.0704 -0.1926  0.0393
15675W        W32149  15.850   1.140   4.691 -0.3137  0.0305 -0.1198
15676W        W32150   7.056   5.114   3.083  0.0227 -0.1108  0.2119
15677W        W32151  12.708   4.328  12.082  0.0628  0.4260  0.1105
15678W        W32152  15.112   6.248   0.441  0.1898 -0.1197 -0.1832
15679W        W32153   1.280  18.973   2.607 -0.1362 -0.0726  0.1241
15680W        W32154   2.759  12.078   4.557  0.1195  0.1370 -0.4700
15681W        W32155  15.725  12.057   1.808 -0.0779  0.1429  0.0093
15682W        W32156  16.419   1.365  13.704  0.2459  0.2298 -0.0427
15683W        W32157   3.613   8.636  13.262  0.1333 -0.0896  0.1150
15684W        W32158   6.972  19.510   0.740  0.1259  0.0204 -0.3501
15685W        W32159  18.710   5.785   3.417 -0.2011  0.0507 -0.0998
15686W        W32160   5.948   7.947  14.602  0.1123  0.1954 -0.2743
15687W        W32161   6.052  12.632   1.398 -0.0721  0.1083  0.2135
15688W        W32162  10.008  14.897   3.628  0.0024  0.0311 -0.0748
15689W        W32163  13.809   3.297   5.445  0.2871  0.0098 -0.1664
15690W        W32164  16.431  12.779   0.956 -0.0302  0.2156  0.1024
15691W        W32165  14.462   6.624  11.670  0.1694  0.0281  0.2091
15692W        W32166  11.427   1.630   2.489  0.3408 -0.0649  0.2684
15693W        W32167  13.935   6.626  11.454 -0.0208  0.3306  0.1794
15694W        W32168   8.895   1.901  13.586 -0.1157  0.2054  0.2052
15695W        W32169   5.001  17.035   0.896  0.1944 -0.2925  0.1997
15696W        W32170   8.414  18.659   3.994  0.1001  0.0522  0.1606
15697W        W32171   5.005   0.321   9.785 -0.1490  0.5798  0.1001
15698W        W32172   6.705   4.738  11.812  0.1862 -0.1171  0.2900
15699W        W32173   5.182   7.932  13.916 -0.0413  0.0906  0.3298
15700W        W32174   6.542  12.835   3.523  0.1477  0.0942 -0.4428
15701W        W32175  19.552   8.365   2.386  0.0139 -0.0726  0.1583
15702W        W32176  14.206  10.807  13.707  0.0368  0.2448 -0.3162
15703W        W32177   2.348  16.999  10.039  0.1824  0.0468 -0.0315
15704W        W32178   1.975   9.794  10.230 -0.1855  0.1357  0.3636
15705W        W32179  12.070   2.833   5.182  0.0454  0.1004 -0.0678
15706W        W32180  15.313  14.129  10.372 -0.1430 -0.2342  0.3312
15707W        W32181   3.359   2.362  14.426  0.0397  0.0955  0.0313
15708W        W32182  16.960  14.670   4.257  0.0812 -0.0216 -0.1875
15709W        W32183  12.126   6.098   0.047 -0.0308  0.2897  0.0484
15710W        W32184  12.579   8.299   5.088  0.0527  0.0766  0.1119
15711W        W32185  16.012   7.029   5.406  0.0260 -0.1545  0.0685
15712W        W32186   1.118   3.744  12.422  0.1239  0.0289 -0.1788
15713W        W32187   7.482   5.768   2.990  0.4561  0.0101  0.3400
15714W        W32188  17.889   6.423  13.469 -0.1091 -0.1283 -0.1871
15715W        W32189  17.926  15.924  11.324 -0.1307  0.0340 -0.1206
15716W        W32190   1.703   6.550   3.129 -0.1319  0.0368  0.1913
15717W        W32191   4.763  10.946  12.695  0.2237  0.1986 -0.1460
15718W        W32192  15.081   9.283   4.525 -0.1699  0.0681  0.1321
15719W        W32193  17.958   1.757  12.754  0.0772 -0.0557  0.2564
15720W        W32194   3.356   2.548  13.249 -0.0985  0.0810  0.3414
15721W        W32195   5.171   4.028   3.320 -0.3863  0.0216  0.0212
15722W        W32196   5.437   1.911  11.477 -0.1823 -0.0225 -0.2049
15723W        W32197   7.200  15.969   4.533 -0.2487 -0.2259  0.0616
15724W        W32198  13.210  16.948   2.074  0.2407 -0.2549  0.2018
15725W        W32199   9.538  17.759  13.897  0.1863  0.0157 -0.2704
15726W        W32200  13.299  17.605  10.088 -0.1779  0.0832 -0.2327
15727W        W32201   7.128  13.703   0.523 -0.0754 -0.1189  0.1860
15728W        W32202   4.445   3.725   4.259  0.2322  0.1941 -0.1471
15729W        W32203   4.940   4.591  10.874  0.3210 -0.2717  0.2384
15730W        W32204  18.811   0.244   3.164  0.0540  0.0233 -0.0791
15731W        W32205  14.536   2.293  10.307  0.1632  0.1318  0.2580
15732W        W32206  10.498  14.892   3.609  0.0702 -0.1708 -0.1251
15733W        W32207  13.161  13.188   2.290 -0.0902  0.5697 -0.1656
15734W        W32208   4.278   7.416   2.738  0.2528  0.2201 -0.0002
15735W        W32209  19.158  17.359   0.446  0.2737 -0.0918  0.1843
15736W        W32210   0.447  15.610   1.723  0.0382  0.3753 -0.0497
15737W        W32211  10.413  16.596  11.819  0.2015 -0.0686 -0.3008
15738W        W32212  19.245  18.277   0.128 -0.0916  0.0577  0.1090
15739W        W32213  10.908   0.675   0.120  0.0752 -0.0880 -0.2824
15740W        W32214   2.701   2.657   1.390 -0.0060  0.2280 -0.4208
15741W        W32215  16.612   0.138  13.839  0.0703  0.2608 -0.0723
15742W        W32216   2.715  19.077  11.088  0.3656 -0.2132  0.1542
15743W        W32217  11.147  11.926   1.013 -0.0253  0.0016  0.0988
15744W        W32218   8.362  15.315  10.496  0.0834 -0.1423 -0.3062
15745W        W32219  19.054  11.623  14.366 -0.2281 -0.0489 -0.2149
15746W        W32220   7.418   1.196   5.162 -0.0581  0.3251 -0.1642
15747W        W32221   8.839  13.970  11.265 -0.0199  0.0346 -0.3664
15748W        W32222  12.280   3.129   4.874 -0.1638 -0.1498 -0.2720
15749W        W32223   1.297   9.117  12.128  0.2796  0.0501 -0.2142
15750W        W32224   6.588   8.569  11.191  0.0245  0.0249  0.2415
15751W        W32225  14.894  18.355   2.017 -0.3022  0.1850  0.2019
15752W        W32226   2.030   2.113   5.026 -0.0437 -0.2326  0.1234
15753W        W32227   4.780   9.395  11.168  0.0723 -0.0300 -0.0631
15754W        W32228  12.999  15.245   2.333 -0.2693  0.2195  0.0709
15755W        W32229  10.453  15.176   0.455  0.0766 -0.2601  0.0307
15756W        W32230   0.901  10.670  10.938 -0.3960  0.2539  0.2355
15757W        W32231  11.155   6.169   3.357  0.2937  0.1461  0.0437
15758W        W32232   5.209  13.306  10.027 -0.0952  0.0950  0.0232
15759W        W32233  11.194   6.745  13.761 -0.3654  0.1660 -0.1339
15760W        W32234  15.155   1.503  10.070 -0.0805 -0.1543 -0.0454
15761W        W32235   9.268  13.448   4.383  0.2404  0.1189 -0.0574
15762W        W32236   9.389  12.229   0.235 -0.4439 -0.1701  0.2133
15763W        W32237   3.843  10.463   1.398  0.1283 -0.3770 -0.1376
15764W        W32238   2.583  16.747   1.330 -0.1552  0.0439 -0.1652
15765W        W32239   1.186  17.835  13.049 -0.4609 -0.1050  0.2502
15766W        W32240   4.961   2.145   0.291  0.2987  0.1057  0.0369
15767W        W32241  17.774   9.699   0.022  0.2935 -0.1540  0.1631
15768W        W32242  11.118  15.206   0.191  0.2565  0.0293 -0.0299
15769W        W32243   7.620   1.668   1.475 -0.0423  0.0412 -0.2722
15770W        W32244  17.757   5.873  10.938 -0.3123  0.0477 -0.0732
15771W        W32245  10.683   9.488   5.026  0.0941  0.0474  0.2260
15772W        W32246   8.348  12.082   2.315 -0.1098  0.0042  0.0026
15773W        W32247   5.809  18.257   4.762 -0.1380  0.1523 -0.1495
15774W        W32248  16.181  18.281   1.463  0.0001  0.1774 -0.2361
15775W        W32249  17.947   0.053  13.566 -0.1117  0.0156  0.0352
15776W        W32250   1.403   3.644   4.224  0.0925  0.0406 -0.2489
15777W        W32251  11.934  14.106  11.150 -0.0221  0.1817 -0.1243
15778W        W32252  13.855  15.527  11.665 -0.0023  0.1758 -0.0880
15779W        W32253  12.504   6.319  14.506  0.1818 -0.0602 -0.1324
15780W        W32254   1.187   5.177   4.149 -0.0737 -0.1228 -0.1379
15781W        W32255   3.038   5.515  12.549 -0.1296  0.0032  0.3702
15782W        W32256   2.089  18.530  12.976  0.0489  0.0030  0.0912
15783W        W32257   6.570  19.352   0.202  0.0565 -0.0708 -0.0671
15784W        W32258   2.639   4.034   4.171 -0.1767 -0.1343  0.0626
15785W        W32259  17.679  13.523  12.574 -0.1555 -0.1698 -0.0874
15786W        W32260  18.474  19.229   2.196 -0.0300 -0.0470  0.0492
15787W        W32261   2.139  10.776   2.210  0.0098 -0.1130  0.1369
15788W        W32262   5.926   7.521  13.464  0.0363  0.1291 -0.2317
15789W        W32263   7.370  16.613   2.921 -0.1831 -0.2952 -0.0935
15790W        W32264  16.560  10.570   0.369  0.0045  0.0864 -0.0663
15791W        W32265  19.376   3.710   3.472 -0.0356 -0.0031 -0.0205
15792W        W32266  16.847  10.865  14.586 -0.1467 -0.1925 -0.0727
15793W        W32267  17.912   0.967   5.541 -0.1217 -0.2848 -0.1815
15794W        W32268   9.038  19.170  14.234  0.2144  0.2451  0.2551
15795W        W32269   5.229   9.036   2.723  0.4467  0.2430  0.0950
15796W        W32270   8.335   6.346   0.228  0.2695 -0.2213  0.1294
15797W        W32271   8.311  17.017   5.059 -0.0181  0.5433 -0.0061
15798W        W32272   2.094  15.401  14.559 -0.0298  0.0381 -0.2411
15799W        W32273   0.665   5.682  13.102 -0.0543  0.4748  0.1830
15800W        W32274   5.518  11.367   4.314 -0.0443 -0.2416 -0.1458
15801W        W32275  14.319   9.574  11.523  0.1544 -0.1219  0.0841
15802W        W32276  15.046   0.876   0.978 -0.1498  0.3409  0.2316
15803W        W32277   4.086   0.011  10.088 -0.0579 -0.0894  0.1958
15804W        W32278   7.134  15.084   3.892 -0.2355 -0.1679 -0.1159
15805W        W32279  16.993  11.030  12.332 -0.0575  0.2949  0.0272
15806W        W32280  10.094   7.353   3.940 -0.0976  0.0846 -0.1161
15807W        W32281  19.320  17.241   0.996 -0.0802  0.1783  0.1084
15808W        W32282   0.489   9.961   1.312  0.0986  0.1470  0.0711
15809W        W32283   9.410  11.535   9.160  0.2168  0.0597  0.1251
15810W        W32284  18.730   5.058   1.375 -0.4850 -0.1062 -0.4124
15811W        W32285  18.779  15.561  14.436  0.1560  0.3727 -0.1841
15812W        W32286  16.136  10.640   3.389  0.2215  0.1355 -0.2785
15813W        W32287   6.971  18.513   0.513 -0.0432  0.0383 -0.2684
15814W        W32288  16.501  14.233  11.616 -0.0470 -0.1489  0.1465
15815W        W32289  18.203   2.503   4.068 -0.1216  0.3301  0.0619
15816W        W32290   1.986   2.567   3.762  0.0245  0.3551 -0.1727
15817W        W32291  14.942  16.072  12.726 -0.3205 -0.0166 -0.2830
15818W        W32292   1.435  15.329  12.249  0.1394 -0.0204  0.1513
15819W        W32293  18.621  17.634   0.391 -0.0988  0.3090  0.0834
15820W        W32294   9.192  15.549  14.029  0.0031 -0.0106  0.2069
15821W        W32295  14.993   7.506   5.433 -0.1534  0.1820 -0.1574
15822W        W32296  16.033  14.732  13.857 -0.2674 -0.0968 -0.1058
15823W        W32297   4.287   6.006  14.584  0.2239 -0.3277 -0.3268
15824W        W32298   6.536   7.337   2.911  0.5182 -0.2118  0.1447
15825W        W32299  13.289   1.104   1.198  0.1461  0.3371 -0.0710
15826W        W32300  18.139  16.273   2.861  0.0304  0.4140  0.1744
15827W        W32301  14.914  17.759   3.971 -0.0568  0.0874 -0.1201
15828W        W32302   6.812   8.872   4.205  0.2417  0.2909 -0.1228
15829W        W32303  11.104   7.054   0.964 -0.2164  0.1770 -0.0547
15830W        W32304   7.860  15.394  14.447  0.1353  0.2421 -0.3165
15831W        W32305   3.115  14.762   4.427 -0.1323  0.0038  0.1244
15832W        W32306  18.530  12.072  12.218 -0.0592  0.0016 -0.0977
15833W        W32307  14.553  10.529   5.016 -0.3021  0.2692  0.3009
15834W        W32308   8.977  17.466  10.977 -0.2184 -0.0473  0.0255
15835W        W32309  18.514  17.332  12.892 -0.2654  0.1392 -0.2493
15836W        W32310   3.016   5.309   1.415 -0.4112 -0.1160  0.2469
15837W        W32311   3.239  12.700  13.740  0.0278 -0.2018 -0.1940
15838W        W32312   1.569   4.995  10.609 -0.0576  0.0046  0.0219
15839W        W32313   8.127   3.317  11.503 -0.1572  0.2836  0.2088
15840W        W32314  10.767  17.434  14.518  0.2705  0.2558 -0.3400
15841W        W32315   1.747  10.075   1.187  0.1307 -0.0705 -0.0376
15842W        W32316   0.709  12.262  12.987 -0.1250 -0.0659 -0.0691
15843W        W32317  18.593   3.097  11.917 -0.4290 -0.0743  0.0749
15844W        W32318  12.775  19.383  12.155  0.2967  0.3482 -0.1237
15845W        W32319   7.902  12.876  11.198 -0.1447  0.1488 -0.1740
15846W        W32320   9.127   5.815  11.442 -0.0084 -0.1772 -0.0202
15847W        W32321   3.584  13.663  12.903  0.3738 -0.0802  0.0333
15848W        W32322   1.991   3.138   2.294  0.0018 -0.0721 -0.2135
15849W        W32323   7.628   7.856   3.540 -0.1358  0.1669 -0.0082
15850W        W32324  11.904  13.590   2.553 -0.1478 -0.2460  0.1525
15851W        W32325   1.019  18.076  10.400  0.2264 -0.1460 -0.1233
15852W        W32326   0.802   6.087   3.702  0.5408  0.2977  0.1213
15853W        W32327  15.885   4.768   1.605 -0.4735  0.0995 -0.2874
15854W        W32328  13.561   8.181   4.536 -0.1937  0.1529  0.0024
15855W        W32329   0.835  11.539  14.248 -0.0816  0.0142 -0.0670
15856W        W32330   4.028   2.740   3.447  0.0721  0.1364 -0.2695
15857W        W32331   2.015  13.649   2.694  0.0476 -0.2026 -0.3901
15858W        W32332   1.064  19.047   1.413  0.0523  0.0370  0.1226
15859W        W32333  10.991   0.504   3.130  0.1453  0.2597  0.0755
15860W        W32334  12.113  17.303   2.743  0.0252 -0.3286 -0.1389
15861W        W32335   8.738   9.227   4.073 -0.0355  0.0266 -0.1304
15862W        W32336  18.663   1.701  11.234 -0.1771 -0.0894 -0.1616
15863W        W32337   6.199   7.743   5.775  0.1927  0.1491  0.0538
15864W        W32338  16.724   7.366   1.491 -0.0268  0.2722 -0.0355
15865W        W32339   4.121   7.890  13.789  0.1099  0.1420 -0.3411
15866W        W32340  17.673   7.915  14.251  0.1351 -0.2270 -0.3512
15867W        W32341  13.133   2.343  12.758  0.1588  0.0099  0.1508
15868W        W32342  13.019  15.864   0.071  0.3004  0.0121 -0.0299
15869W        W32343   2.973  10.976  13.335  0.0443  0.0284  0.1298
15870W        W32344   2.267  18.517  12.263 -0.0405 -0.2729 -0.0955
15871W        W32345   4.817  17.832   0.654  0.0913  0.1748 -0.1920
15872W        W32346  14.481   2.318   3.971  0.0037  0.1003 -0.0478
15873W        W32347   2.242   8.004   0.998 -0.1685 -0.1120 -0.2811
15874W        W32348  19.114   3.912  12.162  0.1010 -0.4930  0.0258
15875W        W32349   3.987  18.628  13.797  0.0775  0.2126 -0.3335
15876W        W32350  15.207   5.619  11.690  0.0386 -0.0196  0.3277
15877W        W32351   6.474  13.193   2.401  0.0758  0.6916 -0.2035
15878W        W32352  16.980   9.574   4.655  0.0087 -0.3079 -0.1875
15879W        W32353  10.909   9.276  12.215 -0.2450 -0.0962  0.0210
15880W        W32354   1.053   6.617   2.596 -0.0270  0.2206 -0.0534
15881W        W32355  17.563   2.704   3.255  0.0335  0.2375 -0.4921
15882W        W32356   3.153  13.857  12.956 -0.0661 -0.0590  0.0548
15883W        W32357   3.237  12.265  10.541  0.0179 -0.2696 -0.0701
15884W        W32358  10.791   0.848   4.727  0.1046 -0.0897  0.2166
15885W        W32359   4.946  14.765  12.330 -0.1013 -0.2404  0.3303
15886W        W32360  15.491  15.165  11.256 -0.0102  0.0004 -0.0515
15887W        W32361  13.239  19.510   2.457  0.0814  0.2331  0.1432
15888W        W32362   6.758   0.845  10.711 -0.0681  0.0668 -0.2231
15889W        W32363  14.541  14.882  14.505 -0.5938 -0.2041 -0.1579
15890W        W32364  10.226   4.512   1.592 -0.1770 -0.0686 -0.2817
15891W        W32365   4.017   5.917  10.596 -0.3792 -0.1526 -0.1700
15892W        W32366  13.778   8.498  12.116  0.2623 -0.0808 -0.3475
15893W        W32367   9.515  14.480   5.181  0.0113 -0.0825  0.0359
15894W        W32368  13.746  13.357  12.959 -0.1083 -0.2166 -0.3027
15895W        W32369  10.433  10.354  11.223  0.2284  0.1972 -0.5148
15896W        W32370  12.490  13.498  11.658 -0.3339 -0.4060  0.2961
15897W        W32371   6.666  14.812  12.388  0.1535  0.0878 -0.3143
15898W        W32372   1.139  13.872   5.048  0.0558  0.2064  0.0624
15899W        W32373  17.350  10.249   1.930 -0.0547 -0.0069  0.1299
15900W        W32374   9.730  18.949   3.433  0.0994 -0.1220 -0.2497
15901W        W32375  14.763   8.630  13.250 -0.1173 -0.4725 -0.2268
15902W        W32376   9.544  12.855  12.790  0.1968  0.0438  0.2674
15903W        W32377  16.300  18.454   0.988 -0.1939 -0.1590 -0.0860
15904W        W32378   9.983   4.861   0.638  0.0774 -0.2035 -0.2289
15905W        W32379  11.351  19.464  12.032 -0.0376  0.2048  0.3818
15906W        W32380   9.226   0.221  13.288  0.2327 -0.0943 -0.0508
15907W        W32381  11.787   9.539  13.045  0.2550 -0.0698 -0.0904
15908W        W32382  11.593  12.549   3.747  0.1048  0.0493  0.5515
15909W        W32383  17.594  10.619  11.866  0.1077 -0.0057  0.1148
15910W        W32384  19.052   5.879  13.171  0.1495 -0.0500  0.2751
15911W        W32385  10.110   4.586   0.256  0.2862 -0.1968  0.0552
15912W        W32386  14.917  16.318   4.196 -0.2880  0.1342 -0.1375
15913W        W32387  17.981   0.319  11.407  0.0430 -0.0264 -0.2027
15914W        W32388   0.754   6.464  11.575  0.1896 -0.0556  0.0344
15915W        W32389   7.060  11.119   9.856 -0.3683  0.2520  0.2508
15916W        W32390  10.169   2.481  13.674  0.0329  0.3019  0.1545
15917W        W32391   5.650  16.461  11.019  0.0418  0.0550  0.1986
15918W        W32392   7.362  18.755   0.244 -0.1563 -0.1112 -0.0656
15919W        W32393   8.648   8.482   3.121 -0.1888  0.0667  0.1156
15920W        W32394  18.891  14.385   9.497 -0.2305 -0.3817  0.3195
15921W        W32395  14.115  14.907  11.445 -0.1111 -0.3564  0.0819
15922W        W32396   5.640   7.587   0.213 -0.0657 -0.2259  0.2481
15923W        W32397  15.569  14.571  10.468  0.0696 -0.0151 -0.0633
15924W        W32398   9.889   5.623   5.154 -0.1128  0.4125  0.0183
15925W        W32399  11.141  19.535  11.574 -0.1661  0.0934 -0.1927
15926W        W32400   6.443  18.997  14.472  0.0304  0.2307  0.2799
15927W        W32401   9.628   1.525  12.160 -0.3236 -0.1041  0.2698
15928W        W32402   9.960  10.521  11.314  0.1580  0.1910  0.0792
15929W        W32403  13.215   7.543   2.915  0.1626 -0.2422 -0.2958
15930W        W32404   3.157  16.359  14.241 -0.2130  0.1474 -0.0351
15931W        W32405   8.460  10.812   1.598  0.0782 -0.1075  0.0479
15932W        W32406  12.160  13.424   1.228 -0.0815 -0.0504  0.0861
15933W        W32407   8.543   5.520   0.735 -0.0826 -0.0296 -0.0434
15934W        W32408   3.115  11.045  12.588 -0.0118 -0.1279  0.1212
15935W        W32409   1.779  14.868   0.006  0.0604 -0.4156 -0.1763
15936W        W32410   6.416  17.258   1.994 -0.0679  0.0949 -0.0047
15937W        W32411   4.154  14.400   3.299 -0.1201 -0.1952 -0.2613
15938W        W32412  14.369  16.880  11.044 -0.1288  0.0427  0.0117
15939W        W32413   7.453   5.353   1.008  0.0740  0.0718 -0.2443
15940W        W32414   4.187   7.256  11.066 -0.1015 -0.4119  0.1105
15941W        W32415   8.847   2.954  12.104  0.0936 -0.2681  0.1871
15942W        W32416   2.900   4.732   3.532  0.0063  0.2315  0.2980
15943W        W32417   3.964  13.099   3.906 -0.0501  0.0704 -0.1750
15944W        W32418  12.650   7.837   1.856  0.1065  0.0018  0.1442
15945W        W32419   3.534  13.222   1.789  0.2210  0.1736 -0.1582
15946W        W32420   6.686  18.948  11.662 -0.3006  0.2144 -0.2001
15947W        W32421  18.909   9.266   1.449 -0.1605 -0.2952  0.0778
15948W        W32422  18.159   4.313  13.301 -0.2751  0.2282  0.2158
15949W        W32423  17.620  16.517   0.499 -0.0347  0.1070  0.0873
15950W        W32424   9.483   8.620  13.498 -0.1742 -0.2802  0.0043
15951W        W32425  13.678  12.902   3.664  0.0274  0.2196 -0.1395
15952W        W32426   7.078  16.034   1.955 -0.2327 -0.0028  0.1587
15953W        W32427   5.182   9.554   5.437 -0.0933  0.3620 -0.0754
15954W        W32428  14.674   6.187  10.695  0.0676 -0.0762 -0.0451
15955W        W32429   9.272  11.466  11.654  0.1177  0.2332 -0.0752
15956W        W32430   4.004  12.575  11.846  0.6163  0.0485 -0.0271
15957W        W32431   4.133  11.741  13.922  0.0821  0.0845  0.3823
15958W        W32432   6.778  14.438   4.539  0.2571  0.0805  0.3122
15959W        W32433  18.005  13.401  10.277 -0.0360 -0.2653 -0.2960
15960W        W32434   3.496  18.652  12.554 -0.1612  0.0467  0.0066
15961W        W32435  17.128  17.935  12.920 -0.1561 -0.0620  0.2249
15962W        W32436   9.927  10.174   4.260  0.1209 -0.2222  0.2056
15963W        W32437   3.669  13.134  11.091 -0.0750  0.1486 -0.1173
15964W        W32438   1.736  13.781   4.289 -0.0835  0.0400 -0.0069
15965W        W32439  11.712   4.255   1.883  0.0714  0.0597 -0.0220
15966W        W32440  19.341  13.472  10.435 -0.2237 -0.0825  0.2848
15967W        W32441   0.675  15.871   3.761  0.4082 -0.1977 -0.0085
15968W        W32442   8.082   1.252   2.149  0.1004  0.0984 -0.4746
15969W        W32443  10.747   6.473   4.672  0.4648  0.0769 -0.0434
15970W        W32444  11.857   1.624  11.181  0.0061 -0.1034  0.2114
15971W        W32445   6.128   1.778  14.314  0.3521 -0.1665  0.1609
15972W        W32446   3.451   5.429   3.227  0.2314  0.2192 -0.1689
15973W        W32447  14.204   2.555  12.549  0.2439 -0.1485  0.4381
15974W        W32448   2.886  17.606  14.475 -0.2453 -0.3598 -0.1375
15975W        W32449   5.094   2.199   3.309  0.2199 -0.0441  0.0831
15976W        W32450  14.096   0.446   1.688  0.0392 -0.3868  0.2119
15977W        W32451  11.098  13.443   3.230  0.2206  0.1543  0.0347
15978W        W32452  17.529  16.059  14.246 -0.0031  0.0322  0.0694
15979W        W32453  19.008  16.161  10.410 -0.0457  0.1046  0.2424
15980W        W32454   3.217  16.506   2.105  0.2023 -0.1865 -0.0836
15981W        W32455   5.478  13.652  12.200  0.2407  0.1827 -0.1136
15982W        W32456   7.658   9.550   0.786 -0.1310 -0.1449  0.1769
15983W        W32457   7.440  13.419   4.914  0.0125  0.0154 -0.0561
15984W        W32458   0.483  16.229  13.702 -0.0296 -0.0314 -0.1417
15985W        W32459   6.062  11.514   1.782  0.0677 -0.0542 -0.1299
15986W        W32460  15.611  16.203   9.105 -0.0878 -0.3777  0.0682
15987W        W32461   6.516   5.963   2.590  0.0957  0.0524  0.2491
15988W        W32462   2.914  13.730   5.072 -0.3367  0.1603 -0.1408
15989W        W32463  10.026   1.104  14.090 -0.0352 -0.1860  0.0379
15990W        W32464  16.123   3.541   5.360 -0.1077  0.2226  0.0747
15991W        W32465  17.122  19.051   3.779  0.0838  0.1103 -0.0267
15992W        W32466   9.109  14.191  13.477  0.0819  0.0093  0.0669
15993W        W32467  15.347  11.625  13.701 -0.0323 -0.0712 -0.2076
15994W        W32468  11.031  16.254   2.906 -0.4237  0.2279  0.1262
15995W        W32469   7.167  19.468  10.880 -0.0347  0.1590  0.1499
15996W        W32470   6.997   4.512  13.089  0.2521  0.2200 -0.0694
15997W        W32471   6.671   4.135  13.193 -0.3835 -0.2069  0.0843
15998W        W32472   4.605  18.220  10.079 -0.0829  0.1193  0.1689
15999W        W32473   0.380  11.845   4.559 -0.0829 -0.0598 -0.0243
16000W        W32474   2.808  16.954  13.753  0.2708  0.0175 -0.0314
16001W        W32475   6.100  12.434   4.624  0.2311 -0.2981 -0.0299
16002W        W32476   5.864  12.830   4.381  0.0163  0.2012 -0.3193
16003W        W32477  10.435  11.977  12.941  0.2138 -0.2374  0.3440
16004W        W32478   8.917   3.936   2.206 -0.0391  0.1083 -0.2698
16005W        W32479  11.793   2.363   1.878 -0.0273  0.0231  0.1175
16006W        W32480   2.978   9.717  10.460  0.1488 -0.1889  0.2014
16007W        W32481  15.095   2.002   5.226  0.3921 -0.0899  0.1148
16008W        W32482  15.806  18.215   4.168 -0.0110  0.2370  0.1789
16009W        W32483  14.504   4.383   2.932 -0.0883 -0.1710  0.0191
16010W        W32484   2.646   9.338  12.303 -0.1333  0.3124  0.0680
16011W        W32485  10.026   1.502   4.351  0.3803  0.2300 -0.1627
16012W        W32486  10.085   3.475  14.477 -0.1375 -0.3531 -0.1429
16013W        W32487  16.040  13.263  14.477 -0.0560 -0.0298 -0.2116
16014W        W32488  16.403  18.393   0.525  0.0948 -0.0270  0.1011
16015W        W32489  12.278   6.779  11.803 -0.2644 -0.0882 -0.0460
16016W        W32490  15.772   5.361   4.611  0.0323  0.1235  0.2190
16017W        W32491   9.874   6.540  12.766  0.1197  0.1626  0.0572
16018W        W32492   7.422  19.059   3.513  0.0408  0.2068 -0.2172
16019W        W32493  15.096   0.181  10.517 -0.2112  0.1162  0.1140
16020W        W32494  12.541   5.221   4.423  0.4339  0.0167 -0.2546
16021W        W32495  14.717  18.848  12.793 -0.0589 -0.1007  0.0973
16022W        W32496   9.526   7.637  13.381  0.3404  0.1411 -0.2352
16023W        W32497   8.221  17.788  12.043 -0.1110 -0.1949 -0.1846
16024W        W32498  13.479   6.747   3.248 -0.2926 -0.0371  0.1308
16025W        W32499  15.362   1.614   1.466  0.0191 -0.2264 -0.1984
16026W        W32500   0.591   3.242   4.486 -0.0975 -0.0215 -0.2046
16027W        W32501   0.094   6.934   4.497 -0.0551  0.0320 -0.2257
16028W        W32502   9.734   8.071  13.504  0.1115  0.0302 -0.0558
16029W        W32503   6.018  16.444  11.477  0.0063 -0.1271  0.2159
16030W        W32504   8.413   6.107   0.669 -0.2178 -0.0657 -0.0756
16031W        W32505  18.099  17.934   4.122  0.0202 -0.0757  0.3334
16032W        W32506  12.446  15.408   3.141  0.0873  0.3189  0.0355
16033W        W32507  11.140  12.237   0.507  0.1611 -0.3486 -0.0386
16034W        W32508  10.523   1.644  11.273 -0.2001 -0.0407  0.4991
16035W        W32509   5.024  12.180   0.708  0.0852 -0.1533 -0.1304
16036W        W32510  16.464   7.571   4.264 -0.1382  0.3091 -0.1001
16037W        W32511  10.726   8.533  12.193  0.3321 -0.2846  0.3141
16038W        W32512   2.663   9.869  14.559  0.0314  0.0468  0.1974
16039W        W32513   2.595   9.689   1.286  0.0618  0.3197 -0.2001
16040W        W32514  15.381   5.067   3.653  0.2944 -0.0606 -0.0931
16041W        W32515  17.828  13.838  13.771  0.1286 -0.0511  0.1190
16042W        W32516  17.619  14.051  12.607  0.1004 -0.0668 -0.0779
16043W        W32517  17.951   7.547   5.024 -0.1118 -0.0278  0.0508
16044W        W32518  12.563   7.606   5.017 -0.2330 -0.1890 -0.2778
16045W        W32519  14.964   5.854   9.351 -0.1166 -0.1783 -0.0724
16046W        W32520  13.269   1.041  13.701  0.0260 -0.0390 -0.1696
16047W        W32521   0.329  18.610   3.030  0.1620 -0.5039 -0.0761
16048W        W32522   5.308  12.104  12.282  0.0792 -0.0038 -0.0891
16049W        W32523  13.705  13.790  13.295 -0.0083 -0.6172  0.3129
16050W        W32524  19.545  11.738   1.035 -0.3947  0.0720  0.0167
16051W        W32525  17.554   8.562  13.470 -0.1311  0.0401 -0.0396
16052W        W32526  16.153   4.088   0.234 -0.1589 -0.1306  0.1982
16053W        W32527  17.614  10.877  12.390 -0.3550  0.0770 -0.2558
16054W        W32528   7.619   9.586   1.298 -0.2997  0.0909  0.0059
16055W        W32529   8.041   7.681  14.095 -0.1980 -0.3239 -0.1017
16056W        W32530   8.707   7.508  10.967 -0.2204 -0.0054 -0.0731
16057W        W32531  14.806   9.765  12.920 -0.1471  0.1912  0.0024
16058W        W32532   4.110   8.004   1.838 -0.0539  0.0267 -0.0228
16059W        W32533  16.298  14.276   2.969 -0.2698 -0.0442 -0.0770
16060W        W32534   8.149  11.446  13.271  0.2333 -0.0970  0.0473
16061W        W32535  17.136  13.328   3.407  0.0696  0.0568  0.2740
16062W        W32536  10.968  14.242   2.074  0.1419  0.2194 -0.3281
16063W        W32537  16.769   4.098  14.367 -0.1554  0.0685 -0.2586
16064W        W32538   9.171  11.083  14.567 -0.1920  0.0550  0.0766
16065W        W32539  10.825  10.035   3.697  0.1718 -0.3992 -0.1610
16066W        W32540   0.228  18.816   9.178  0.2158  0.0699 -0.2226
16067W        W32541   5.897   1.802   9.867 -0.0060  0.1588  0.1069
16068W        W32542  17.935  17.705  13.946 -0.1336 -0.1453 -0.0397
16069W        W32543   2.827  14.231  13.844 -0.1773  0.0709  0.3012
16070W        W32544  15.067  12.200   5.158  0.0172  0.0025 -0.0375
16071W        W32545   3.530  13.881  11.857  0.5441  0.5302 -0.2894
16072W        W32546  14.723   7.711   3.473 -0.1307 -0.0774 -0.4284
16073W        W32547  12.130  16.016   0.721 -0.0690  0.3177 -0.3979
16074W        W32548  16.200   4.922  12.639  0.1395 -0.2185 -0.0159
16075W        W32549  17.783  13.137  14.427 -0.0717 -0.0672  0.0121
16076W        W32550   2.023   0.967  13.795 -0.2132 -0.3178 -0.1199
16077W        W32551   8.941  16.965  12.780  0.0296  0.0447  0.0903
16078W        W32552   6.854   6.166  11.458  0.1992 -0.2808  0.0451
16079W        W32553  10.692   5.971   2.950  0.0461 -0.1697  0.0100
16080W        W32554  12.524   0.739  12.741 -0.1692  0.2633 -0.3142
16081W        W32555   2.120  16.162   1.466 -0.1167  0.1430 -0.0012
16082W        W32556  17.436  13.254   4.751  0.3073  0.0474  0.0333
16083W        W32557  12.453  18.311   1.824 -0.1049 -0.2585 -0.1235
16084W        W32558   4.646   8.014  11.717 -0.1877 -0.1234 -0.2022
16085W        W32559   2.667   5.111  13.403 -0.1201 -0.0609 -0.1877
16086W        W32560   8.934   8.214   0.574 -0.3743  0.0402 -0.1837
16087W        W32561   3.643   3.798   3.842  0.1059 -0.2426 -0.0800
16088W        W32562  12.476  14.721  12.050  0.0146 -0.3696 -0.1694
16089W        W32563   3.239  17.238   1.218 -0.0153 -0.5107  0.2841
16090W        W32564   7.294  18.216   1.317  0.0465 -0.3818 -0.0185
16091W        W32565  16.720  14.925   2.245  0.0753 -0.1479 -0.2378
16092W        W32566   9.030   4.968  10.690 -0.0964 -0.3703 -0.0788
16093W        W32567  15.742   5.647   2.645  0.0703  0.3454  0.1913
16094W        W32568  14.522   4.015  10.412 -0.2854  0.4001 -0.2437
16095W        W32569   9.609   9.794   9.392 -0.1493 -0.0431 -0.0823
16096W        W32570  15.612   5.211  12.531  0.1339  0.0100 -0.1185
16097W        W32571   4.157  16.639  12.732 -0.1311  0.0523 -0.0926
16098W        W32572  12.659   5.787  10.403 -0.0969 -0.4752  0.3323
16099W        W32573   0.933  17.309  11.625  0.0392 -0.0161  0.0002
16100W        W32574   0.936  12.702   4.251 -0.0469 -0.6803 -0.1811
16101W        W32575   4.822  17.413   1.807  0.1061 -0.1807  0.1059
16102W        W32576   9.217   7.011  11.644 -0.1282  0.2793 -0.0328
16103W        W32577  16.667  11.266  12.626 -0.1056 -0.2925  0.0594
16104W        W32578   2.921  11.018   4.651  0.2846 -0.3577  0.0177
16105W        W32579  10.112  11.591  12.789  0.1140  0.2512  0.0437
16106W        W32580  13.109   9.332  14.267  0.4658  0.0675 -0.0133
16107W        W32581  16.335  16.308  14.427  0.2342  0.3467  0.2307
16108W        W32582  15.719   3.435   0.957 -0.0860  0.1780  0.0378
16109W        W32583   7.902  10.492  11.247  0.0835  0.1137 -0.0099
16110W        W32584  16.484  16.826  12.946 -0.2263  0.0816 -0.1711
16111W        W32585   6.311  13.599   4.032  0.1145  0.2606 -0.1388
16112W        W32586   3.050  18.608   3.804  0.1539 -0.2337 -0.1273
16113W        W32587  17.801  10.258  10.768 -0.2109 -0.2248 -0.0908
16114W        W32588   5.140  10.032   3.674 -0.0718 -0.1149 -0.1153
16115W        W32589  16.161   1.258   0.402  0.3959 -0.2830 -0.0270
16116W        W32590   3.784  16.104   2.697 -0.0961 -0.0257  0.3991
16117W        W32591   5.324   7.475   4.491 -0.0694 -0.2551 -0.2249
16118W        W32592   0.257  14.796   0.157 -0.2816  0.2209  0.0794
16119W        W32593   3.610  12.746  12.702 -0.2523 -0.1431 -0.3723
16120W        W32594   2.439  13.190  12.604  0.3623 -0.5310 -0.1137
16121W        W32595  10.728  13.486  12.041  0.3543 -0.0993  0.2966
16122W        W32596  12.967  14.838   2.032  0.0396  0.0037  0.0925
16123W        W32597   4.236   5.793   4.752  0.0010 -0.0467  0.0513
16124W        W32598  14.402  16.758   4.701 -0.1052 -0.0798  0.0800
16125W        W32599  15.803   8.085  12.837 -0.2085  0.0379  0.0336
16126W        W32600   2.959   2.427  11.689 -0.0162 -0.3353 -0.3143
16127W        W32601   4.011  13.399  12.934  0.4106 -0.3553 -0.3278
16128W        W32602   7.427  17.111   0.376  0.1888 -0.0431  0.2984
16129W        W32603   3.651  18.524   1.418  0.1491 -0.1212  0.1182
16130W        W32604  14.507   6.440   1.611 -0.1139 -0.1616  0.3824
16131W        W32605   8.845   3.599  13.484 -0.2508 -0.1624  0.1644
16132W        W32606  13.578  17.764   0.750  0.0568  0.0861  0.0536
16133W        W32607   1.811   2.088  10.194  0.0125 -0.1823 -0.0850
16134W        W32608  10.020  19.296  11.994 -0.0532 -0.1014 -0.1788
16135W        W32609   0.711   5.520  14.632 -0.0489 -0.4353  0.3660
16136W        W32610  11.947  10.063  13.022  0.0429 -0.0901  0.1143
16137W        W32611  10.098  16.387  10.544 -0.1128 -0.2337  0.3772
16138W        W32612  11.701   3.634   3.392  0.0341 -0.1725  0.0899
16139W        W32613  11.024   5.994  10.704 -0.0203 -0.1488  0.1073
16140W        W32614   8.837   6.056   3.306  0.1557  0.0564 -0.3446
16141W        W32615   9.348   3.677   4.132  0.0721  0.1743 -0.0366
16142W        W32616   0.619   0.679   1.607  0.0695 -0.2216 -0.1148
16143W        W32617  17.162   5.894  11.491  0.1303 -0.1947 -0.2382
16144W        W32618  12.763   8.306   3.062 -0.0862  0.2008 -0.0327
16145W        W32619   9.485  16.502  12.798 -0.1529 -0.0274 -0.0339
16146W        W32620  18.819   9.894   1.150  0.1678  0.1155 -0.0536
16147W        W32621   7.976  10.826  12.609  0.1147  0.0328  0.1140
16148W        W32622  17.033   4.978   9.548 -0.3709  0.4871  0.1015
16149W        W32623  11.650   8.797  12.380 -0.1557 -0.0072  0.0562
16150W        W32624  19.373  12.567   1.417  0.0084 -0.1427 -0.1802
16151W        W32625  16.460  13.779   1.619 -0.1459  0.1720 -0.1122
16152W        W32626  14.091   5.439   5.241 -0.1370 -0.0980  0.0072
16153W        W32627  10.660   1.798   3.755  0.0365  0.1182 -0.0454
16154W        W32628  19.537   0.622  12.236  0.1119  0.2550  0.0457
16155W        W32629  16.820   3.325   9.642  0.0952 -0.2665 -0.1201
16156W        W32630   6.259  19.285  11.541  0.2123  0.1169  0.3117
16157W        W32631   9.169  14.708   5.455  0.3014 -0.2857  0.0507
16158W        W32632  12.412   7.404   0.312  0.0263 -0.1694  0.4102
16159W        W32633   8.791   4.604  12.844 -0.3782  0.1253  0.1540
16160W        W32634   9.463  19.517   1.928 -0.1970  0.1428 -0.0349
16161W        W32635  11.641  10.523  12.699 -0.0239  0.2856 -0.3609
16162W        W32636   5.957   2.492   3.148  0.4093 -0.2557 -0.0016
16163W        W32637  14.720   9.941   0.728 -0.1355 -0.4361  0.0549
16164W        W32638   7.156  19.212   3.990  0.1144  0.0206 -0.0946
16165W        W32639   9.460  11.328   5.405 -0.0881  0.0972  0.1564
16166W        W32640   0.509  12.742   3.853 -0.1523  0.1096  0.0162
16167W        W32641   3.328   1.185  13.818 -0.2484 -0.1674 -0.3703
16168W        W32642  19.355   6.211   5.108  0.1904 -0.1773 -0.0135
16169W        W32643   8.795   1.504   3.675  0.0484  0.1039  0.1699
16170W        W32644  12.439   2.349  14.582 -0.1927  0.2799  0.0078
16171W        W32645   5.635  14.068   8.650  0.2927  0.3021  0.1269
16172W        W32646  17.991   8.061   5.242 -0.0501 -0.0545  0.1388
16173W        W32647  13.556   7.677   2.266 -0.1044 -0.0642 -0.1534
16174W        W32648  18.042   9.534   4.315 -0.1711  0.1066 -0.2065
16175W        W32649  12.043   1.139  11.235  0.2600  0.0620 -0.2156
16176W        W32650  16.567   1.044   3.333 -0.4484  0.2926 -0.1020
16177W        W32651  15.279  15.809   9.290 -0.1987  0.1581  0.1470
16178W        W32652  17.366  19.402   3.380 -0.1448 -0.1167 -0.0982
16179W        W32653  13.317   1.584  10.746 -0.1332 -0.0167  0.0553
16180W        W32654  11.559  18.804   4.393 -0.2316 -0.2234  0.2094
16181W        W32655   9.910   1.660   1.256 -0.1655 -0.0611  0.3543
16182W        W32656  12.077   0.945  12.894  0.2568 -0.1148 -0.1171
16183W        W32657  19.425  17.083   2.614  0.3261  0.2043 -0.0639
16184W        W32658  12.351  14.878   1.857  0.2149 -0.0524  0.2438
16185W        W32659   1.823  15.728   1.417  0.1461  0.0190 -0.2574
16186W        W32660   7.187  12.916   3.014  0.0642 -0.0186  0.1615
16187W        W32661  17.258  13.508   5.179  0.2521  0.1539  0.0793
16188W        W32662  10.561   1.384  12.628  0.0578 -0.0845 -0.4361
16189W        W32663  18.597  13.426   5.198 -0.2352 -0.1510  0.0899
16190W        W32664   5.527  13.328   1.322 -0.2675 -0.0944  0.0472
16191W        W32665   7.256   8.335  11.155 -0.1300 -0.0399 -0.0793
16192W        W32666  16.823  12.215  12.934 -0.3721  0.2400  0.0790
16193W        W32667  16.486   0.600   2.371 -0.0489  0.0838 -0.3349
16194W        W32668  18.777   5.994   0.647 -0.2192 -0.3791  0.1021
16195W        W32669  17.256  19.184  14.156 -0.0284  0.1312 -0.1169
16196W        W32670  10.062   4.158   2.862  0.1119  0.0920 -0.0098
16197W        W32671  18.309   4.566  10.826 -0.1446 -0.0391  0.2852
16198W        W32672   8.807  16.684   2.726  0.1119  0.1906 -0.1937
16199W        W32673   3.181   2.304   4.453  0.6285  0.3349  0.3076
16200W        W32674  13.894  16.320   1.136  0.0570 -0.0954 -0.0880
16201W        W32675   9.566   3.190   4.798 -0.4015 -0.0623 -0.0186
16202W        W32676  13.861   0.500   3.392 -0.2045 -0.2560  0.0260
16203W        W32677   6.597  17.100   0.038 -0.0047 -0.0248  0.1050
16204W        W32678  19.344  11.522  10.420  0.0664  0.0175 -0.1989
16205W        W32679  18.479  14.387   1.053 -0.2549 -0.1557 -0.0421
16206W        W32680  17.530  12.480   0.278 -0.1080  0.3373  0.1081
16207W        W32681   4.062   9.820  12.149 -0.2006 -0.0699 -0.5838
16208W        W32682   6.084   1.629  13.338 -0.1300 -0.0192  0.1809
16209W        W32683  16.801   8.336  14.013 -0.0851  0.0986 -0.2021
16210W        W32684  18.869   4.358  12.563 -0.0446  0.0178  0.2081
16211W        W32685   0.727   7.675   0.633  0.2427  0.1244  0.3339
16212W        W32686   6.255  16.166   2.168  0.3775  0.3534  0.1213
16213W        W32687  17.000  12.521  10.586  0.4202  0.0162 -0.1387
16214W        W32688   1.942   2.087  14.076  0.0614 -0.1085 -0.2623
16215W        W32689  14.685   7.190  11.616 -0.0267  0.3255  0.1528
16216W        W32690   0.362  17.477  11.596 -0.2792 -0.1109  0.0545
16217W        W32691  18.468   0.235  10.489 -0.0253  0.3289  0.0214
16218W        W32692   9.201  10.290  14.431 -0.0264 -0.0023  0.2289
16219W        W32693   8.911   6.465   0.970  0.1321 -0.1328  0.1399
16220W        W32694   3.442   3.016   4.634  0.0913 -0.1389  0.2627
16221W        W32695   8.580  17.764  10.880  0.2078 -0.3518  0.0298
16222W        W32696  14.018   9.793  14.359  0.0042  0.2170 -0.0526
16223W        W32697  12.270   3.086  10.595  0.0968 -0.0442 -0.3423
16224W        W32698   8.205  14.364  12.916  0.0760 -0.0090 -0.0527
16225W        W32699   4.912   6.469   0.602  0.0071 -0.0029 -0.1132
16226W        W32700  17.797   4.560  10.865 -0.1218 -0.0124  0.2058
16227W        W32701   9.471   6.717   3.638  0.1236 -0.1753 -0.2450
16228W        W32702  17.413  17.372   0.070  0.1345 -0.1872  0.1732
16229W        W32703  11.524  12.922   2.041 -0.0326 -0.0155 -0.0139
16230W        W32704  18.996   0.833   3.874  0.0961  0.0876 -0.0103
16231W        W32705   6.683   2.651   1.816  0.0353 -0.1224 -0.1491
16232W        W32706   1.007   9.396   4.678  0.0253  0.0142  0.1253
16233W        W32707  16.032   4.024  11.602 -0.3097 -0.0343  0.2983
16234W        W32708  11.743  13.478   2.064 -0.1548  0.2779  0.0157
16235W        W32709   9.420   0.143  13.773 -0.3272  0.2614  0.4171
16236W        W32710  14.109  13.268  10.874 -0.1258 -0.2314 -0.0460
16237W        W32711  17.913  15.445  14.596  0.3374 -0.3683 -0.0223
16238W        W32712  17.403  19.411   4.118 -0.0938 -0.1055  0.0591
16239W        W32713   8.677  10.356   1.543 -0.2537  0.0866 -0.1892
16240W        W32714  17.352  16.007  12.051 -0.0665  0.1484  0.1445
16241W        W32715  13.597   1.850  12.137  0.0435 -0.0543 -0.1221
16242W        W32716  12.353   8.121   1.172 -0.1291  0.3712 -0.1534
16243W        W32717  12.196   8.991  11.070  0.1934  0.1134 -0.0904
16244W        W32718  11.392   8.000  13.867 -0.0398 -0.0338 -0.1288
16245W        W32719  17.951  10.025   4.160  0.1960 -0.0472  0.1557
16246W        W32720   1.593   7.660   4.579  0.0994  0.1944  0.1373
16247W        W32721   7.082  14.457  12.393  0.0681 -0.1315 -0.0169
16248W        W32722   5.678  13.139   2.771  0.1582 -0.1678 -0.0645
16249W        W32723  16.953  17.819  13.865  0.3331 -0.2253  0.1246
16250W        W32724  10.426  14.838   9.500  0.0085  0.1308  0.2270
16251W        W32725  12.144   1.336   4.242 -0.3631 -0.0676 -0.1269
16252W        W32726  18.276  14.180   3.710 -0.3386 -0.1206 -0.0963
16253W        W32727  17.661   7.160  12.346 -0.1775  0.0576  0.0450
16254W        W32728   9.136   1.081   2.000  0.1400  0.1071 -0.0014
16255W        W32729  18.532  11.887   1.580  0.0161  0.2285 -0.0294
16256W        W32730   7.615  15.826   3.876 -0.1083  0.0319 -0.2854
16257W        W32731  14.177  13.944   0.222  0.1046  0.1155  0.2063
16258W        W32732  18.634  16.860  13.555  0.0608  0.1031 -0.4143
16259W        W32733   4.046   0.494  10.204  0.4700 -0.3047  0.3597
16260W        W32734   6.330  12.363   1.806  0.1676 -0.2818  0.0916
16261W        W32735  10.086  14.700   2.293 -0.2409 -0.0018 -0.2396
16262W        W32736  18.543  15.969   2.934 -0.2552 -0.1513 -0.1959
16263W        W32737  19.275  17.879   1.238  0.0440 -0.1877  0.0335
16264W        W32738  12.366   1.179   2.756  0.0415 -0.1258  0.1649
16265W        W32739   2.199   5.332   1.846  0.0277 -0.1300 -0.1553
16266W        W32740  12.438  12.050   0.922 -0.1225  0.0219  0.0094
16267W        W32741   4.903  12.879  12.334 -0.0048  0.1598  0.1377
16268W        W32742   4.599  18.956   3.431  0.1910 -0.3551  0.1391
16269W        W32743   5.125  13.090  11.526 -0.3647  0.3350  0.0041
16270W        W32744   2.147   4.246  10.833 -0.0847  0.0651 -0.2372
16271W        W32745  13.675   2.308   2.027  0.6146 -0.0799 -0.2241
16272W        W32746  12.659   7.179  13.467 -0.0663 -0.0272  0.0631
16273W        W32747   8.685  18.407   0.066  0.2438  0.0325  0.0895
16274W        W32748  13.254   8.241  11.292  0.1142  0.0895 -0.1208
16275W        W32749   4.888   6.764   1.517 -0.0178  0.2635 -0.0408
16276W        W32750   8.209  16.033  11.200 -0.0181 -0.2549 -0.0196
16277W        W32751   7.412   7.936  13.503  0.0304  0.3115  0.0163
16278W        W32752   8.664   1.582   4.331 -0.0696 -0.1007  0.2389
16279W        W32753   4.536  14.895   1.724 -0.1716 -0.1230  0.1229
16280W        W32754   3.921   9.623  13.168  0.2871  0.1340 -0.1678
16281W        W32755  19.367  10.336  10.231 -0.0470 -0.0583 -0.1194
16282W        W32756  10.385   5.536  11.758  0.0382 -0.0468  0.3658
16283W        W32757  18.321   8.118  13.176 -0.0053  0.2884 -0.4503
16284W        W32758   4.699  15.349   9.144  0.2398 -0.3088 -0.1418
16285W        W32759  17.435  15.205  10.619  0.1834  0.3103 -0.0312
16286W        W32760  15.790  12.912   4.311 -0.0781 -0.1229 -0.1481
16287W        W32761  16.685  18.320  11.522 -0.0049  0.0942  0.1625
16288W        W32762   1.408   3.670   5.577  0.0412  0.0107  0.0962
16289W        W32763  16.463  17.377   2.607  0.3673 -0.1028  0.0950
16290W        W32764   5.772  19.561  14.080  0.1468  0.2024 -0.2232
16291W        W32765   1.310  19.237   4.276  0.1642  0.0870 -0.4077
16292W        W32766  14.371  15.657   2.553  0.1700 -0.1096  0.1143
16293W        W32767  14.529   2.851   2.061  0.0490  0.0298 -0.1148
16294W        W32768  17.952  14.420  13.673 -0.0542 -0.0121  0.1197
16295W        W32769   6.881   3.057  12.535 -0.0466  0.0535  0.4797
16296W        W32770  19.443   0.235   4.962  0.2566 -0.1616  0.0953
16297W        W32771  17.359  11.472   1.133 -0.2889  0.1274 -0.0347
16298W        W32772  19.023   4.920  11.313 -0.0711 -0.0158  0.1179
16299W        W32773   1.279   0.616  10.615  0.5166 -0.0016 -0.2452
16300W        W32774   3.211  19.277   3.876 -0.1330  0.0490 -0.2021
16301W        W32775   0.321  17.277   3.368  0.2053 -0.2022 -0.2353
16302W        W32776   5.810   2.218  13.090  0.0609  0.0842  0.0262
16303W        W32777   8.592  12.201   1.188 -0.0069  0.3923 -0.0375
16304W        W32778  11.347  12.771  12.360 -0.0805  0.3539 -0.3755
16305W        W32779   9.222  11.046  11.366 -0.1037  0.1337  0.1031
16306W        W32780  18.457   4.448  12.153  0.1209 -0.0171  0.0241
16307W        W32781   3.335   7.361  12.866  0.1269  0.1458 -0.0916
16308W        W32782   5.037   1.154   3.471 -0.1641 -0.0774 -0.0576
16309W        W32783  13.405   2.493   0.011  0.1706 -0.0592  0.1319
16310W        W32784  10.870  17.639  13.613 -0.0824  0.2410 -0.0596
16311W        W32785   6.021  13.512   1.347  0.3515  0.2082  0.1281
16312W        W32786   4.026  13.561  14.092  0.0396 -0.1798 -0.0372
16313W        W32787   7.813  14.515  14.404  0.0072  0.1218 -0.0260
16314W        W32788   3.970  14.368  12.452  0.0194 -0.0566  0.2131
16315W        W32789   1.109   4.495  11.929  0.0790  0.1659  0.0277
16316W        W32790   4.570   2.574   1.066 -0.0045  0.1816 -0.0293
16317W        W32791   2.777  16.436   2.866  0.0524 -0.2753  0.2347
16318W        W32792   8.674  14.506   1.633 -0.1640 -0.2610  0.5228
16319W        W32793   1.080  11.544   3.521  0.2405 -0.1704  0.3736
16320W        W32794   7.918  12.308   2.531  0.1707  0.0281  0.0371
16321W        W32795   1.761   8.180   2.937  0.0470 -0.1625 -0.4435
16322W        W32796  17.310   7.606   4.808 -0.0887 -0.4484  0.2354
16323W        W32797  10.184   0.957   3.265  0.0886 -0.0412 -0.0279
16324W        W32798   1.420  14.378  10.446 -0.0553 -0.0076 -0.1581
16325W        W32799  16.041  11.822   3.623  0.0102 -0.1466 -0.1296
16326W        W32800  11.807  10.228   2.850  0.2014  0.1073  0.2231
16327W        W32801  13.025  14.742  12.108  0.0765  0.4297 -0.0260
16328W        W32802   4.265   5.793  11.752 -0.0925 -0.2758  0.0803
16329W        W32803   8.826  11.029   4.430 -0.1183  0.1320 -0.2977
16330W        W32804  11.075   5.489  12.331  0.0890  0.3568  0.0932
16331W        W32805   6.247  15.435  13.449 -0.1377 -0.0982  0.0080
16332W        W32806  16.206   3.539   1.065  0.1590  0.0740  0.0840
16333W        W32807   2.088   7.128   4.441 -0.1078 -0.1758  0.5169
16334W        W32808  16.689   3.667  13.576  0.0109  0.1224 -0.0798
16335W        W32809   0.879  17.587  14.000 -0.1879  0.0882  0.4010
16336W        W32810  18.331   1.274  10.535  0.0725  0.0614  0.0829
16337W        W32811  16.580  11.185  13.092 -0.3164  0.0814 -0.0716
16338W        W32812   1.081  15.125  10.734 -0.3815  0.0242 -0.1282
16339W        W32813  16.459   2.385   3.953  0.0277 -0.0498 -0.0707
16340W        W32814   5.993  14.087   9.414 -0.0381  0.1841  0.1442
16341W        W32815   9.421   3.697   2.143 -0.5218  0.0828 -0.0589
16342W        W32816   9.252   9.616  12.965  0.0248 -0.1638 -0.0246
16343W        W32817   6.122   1.176   3.103  0.0723 -0.1296  0.3248
16344W        W32818  17.363   1.430  13.512  0.1654  0.1303  0.1275
16345W        W32819   0.514  14.584   2.295  0.1653 -0.0132  0.0608
16346W        W32820  13.701  15.908  10.448 -0.0284  0.3087  0.1783
16347W        W32821   1.522   6.002   9.214  0.0611 -0.3327 -0.0612
16348W        W32822  17.232   9.431   2.582 -0.0623 -0.0883  0.0246
16349W        W32823   0.864  13.862   0.893 -0.0218 -0.1307  0.0433
16350W        W32824  18.953  18.832   4.169  0.0029  0.0291  0.0206
16351W        W32825   3.534  18.283  10.496 -0.2149  0.0964  0.3837
16352W        W32826  13.174  16.298   2.180  0.2981 -0.1943 -0.2201
16353W        W32827   6.050   6.294  12.987  0.1496 -0.1412  0.0938
16354W        W32828   5.370  16.680   3.007  0.2772 -0.0428 -0.1410
16355W        W32829  17.952   7.618   3.470 -0.4413  0.0161 -0.2447
16356W        W32830   2.677  16.634   2.252 -0.2093  0.0742  0.0344
16357W        W32831  15.910  17.508  10.400 -0.2378 -0.0314  0.3207
16358W        W32832  10.739  12.416  10.279 -0.0385 -0.0421  0.0042
16359W        W32833  16.546   5.496  14.195 -0.4918  0.0084  0.0580
16360W        W32834  14.630  10.584   2.310  0.3298  0.0127 -0.1666
16361W        W32835   1.879  13.440  12.002  0.3604  0.0187  0.0104
16362W        W32836   9.025  13.071  12.185 -0.2584 -0.2506 -0.4501
16363W        W32837   7.367   1.427   1.836  0.4352  0.0021 -0.1726
16364W        W32838   7.176  15.849  13.354 -0.0669  0.0462  0.1634
16365W        W32839  18.683   1.418   2.019 -0.2268 -0.1927  0.2479
16366W        W32840  15.560   4.334   3.074  0.1518 -0.0037 -0.2597
16367W        W32841   6.310  14.964   1.057 -0.4451 -0.3242  0.2392
16368W        W32842  11.854   8.361  14.610 -0.0589 -0.1933 -0.0279
16369W        W32843   8.773   2.364  11.038 -0.2990 -0.1362  0.1470
16370W        W32844   3.688   1.529  13.427  0.2343  0.1792  0.0089
16371W        W32845  15.473  10.421  14.323  0.0144  0.0605 -0.1435
16372W        W32846   9.870  18.668  11.918  0.1263  0.1381 -0.0758
16373W        W32847   3.302   7.946   1.148 -0.0931 -0.4614  0.1458
16374W        W32848   2.176  15.319  10.203  0.2197 -0.0402  0.0583
16375W        W32849   4.345   4.727   3.423 -0.2251  0.1002 -0.3125
16376W        W32850   0.660  12.920   0.581 -0.0126  0.4170  0.2659
16377W        W32851   0.396   2.722   5.051  0.0904 -0.0925  0.2644
16378W        W32852  18.113  13.106   4.432  0.1086 -0.0184  0.0068
16379W        W32853  16.897   4.112   5.025 -0.1115 -0.2303  0.0992
16380W        W32854  13.288  14.703   2.817 -0.2358  0.2650  0.1969
16381W        W32855   9.042  10.874   2.227 -0.1782  0.1935  0.0096
16382W        W32856  13.548  13.069  11.664 -0.1086 -0.0418  0.1920
16383W        W32857  17.868   1.229  10.755 -0.0575  0.1283 -0.2957
16384W        W32858  10.251   7.371   3.374 -0.0192 -0.2003 -0.1482
16385W        W32859  17.315  14.455  14.359  0.3550 -0.1649  0.1337
16386W        W32860   3.029  14.522  10.770  0.2759  0.1279 -0.0622
16387W        W32861  15.974   9.121  13.063  0.2139 -0.4109  0.0649
16388W        W32862  17.942  12.347   2.108  0.2296  0.1832  0.2740
16389W        W32863  15.497  18.882  11.398 -0.1042  0.2768 -0.2575
16390W        W32864   5.770   3.484  13.750 -0.2932 -0.1175 -0.0233
16391W        W32865  13.780   9.555   1.595 -0.3365  0.0392  0.1756
16392W        W32866   4.296   4.764  11.594 -0.2755 -0.1050  0.2229
16393W        W32867  12.180   6.791  13.424 -0.1474  0.2067  0.1563
16394W        W32868   3.860  11.160   3.787  0.0536 -0.0597 -0.1597
16395W        W32869   3.594  12.762   3.699  0.2252 -0.0546 -0.1768
16396W        W32870  11.254  15.782  11.553  0.1250  0.1109 -0.1797
16397W        W32871  13.012  14.646  13.867 -0.0596 -0.1431 -0.0582
16398W        W32872   9.984   7.564  11.122 -0.0500  0.0127 -0.1816
16399W        W32873   3.398  18.396   2.981  0.0735 -0.1087  0.3147
16400W        W32874  10.114   8.105   9.967 -0.2148 -0.0801  0.0480
16401W        W32875  15.948   4.653  14.150 -0.2383 -0.0367 -0.3231
16402W        W32876   8.923   3.086  13.521  0.2977  0.0468  0.0015
16403W        W32877   6.840  10.015   2.618 -0.1823 -0.2101  0.1335
16404W        W32878  15.622  13.769   0.237  0.1276  0.0668  0.1385
16405W        W32879   0.788   2.653   2.863 -0.5764 -0.0439  0.0269
16406W        W32880  14.849  12.286   0.385 -0.0184  0.0746 -0.1251
16407W        W32881  17.602  15.177   0.753  0.1808  0.2448  0.0485
16408W        W32882   4.419   4.765   0.025  0.0743  0.6042 -0.2295
16409W        W32883  19.259   5.473  13.970  0.0002  0.0172 -0.0397
16410W        W32884  13.026   8.545   4.918 -0.1361 -0.0136  0.1158
16411W        W32885   3.754   5.072  12.216  0.3016 -0.2578  0.1947
16412W        W32886   3.383  13.548   0.665  0.0835 -0.2133 -0.1168
16413W        W32887  18.427   1.457  13.573 -0.0652 -0.0430 -0.2569
16414W        W32888   5.198   0.174   1.601 -0.0721 -0.0246  0.3128
16415W        W32889   9.842  11.569   5.278  0.2778  0.2076  0.0197
16416W        W32890  14.051   3.775  12.629  0.0173 -0.0010  0.1230
16417W        W32891  14.688  11.316  12.739  0.0095  0.1995  0.2242
16418W        W32892   3.597  10.455  13.840 -0.0841 -0.0496 -0.0384
16419W        W32893  16.889   2.257  11.959  0.1082 -0.0204 -0.1912
16420W        W32894   5.514   2.970  10.706  0.2308  0.0724  0.0578
16421W        W32895  19.078  13.020   2.197  0.2576  0.1720 -0.0272
16422W        W32896  18.314  12.648   4.439 -0.0824  0.0261 -0.3797
16423W        W32897  12.869  17.347   0.346  0.2895 -0.0700 -0.0764
16424W        W32898   3.213  13.863  11.369  0.2497 -0.1552 -0.0337
16425W        W32899  13.634  15.870  11.404 -0.1590  0.1220  0.2413
16426W        W32900  10.674   0.507   2.495 -0.3853  0.1323 -0.0831
16427W        W32901   7.290  15.493   4.195 -0.4514  0.2821  0.0224
16428W        W32902   2.155  14.939  13.835 -0.3769 -0.4174 -0.0762
16429W        W32903   5.967  14.469   1.483  0.0480 -0.3121  0.1003
16430W        W32904   2.701   8.978   0.065  0.0960  0.3626 -0.2954
16431W        W32905   8.392  10.975   2.695  0.0071 -0.1001 -0.3589
16432W        W32906  14.704  15.000   4.476 -0.1264 -0.1606 -0.1014
16433W        W32907   4.002   3.622  14.454 -0.2989 -0.0388 -0.1637
16434W        W32908  17.655  15.192   3.472 -0.1765 -0.0744  0.1527
16435W        W32909  19.008   3.477  12.811 -0.0186 -0.1086 -0.1595
16436W        W32910   3.317  19.416  11.245 -0.1777  0.0648 -0.2842
16437W        W32911   6.144   2.279  12.719 -0.0751 -0.3193 -0.1924
16438W        W32912   2.625   5.762  12.832 -0.2460 -0.1147 -0.1119
16439W        W32913  16.615   5.774  11.720 -0.1402 -0.0139  0.4139
16440W        W32914  13.638   4.792  12.141 -0.0940  0.2179 -0.0227
16441W        W32915  18.889   8.819  14.083  0.2497 -0.1857  0.1831
16442W        W32916  14.067  11.694  14.455 -0.2951 -0.5350 -0.0673
16443W        W32917   7.567   4.850   3.432  0.0807  0.2414  0.1560
16444W        W32918  12.228  13.176  13.686 -0.0218 -0.1424 -0.0137
16445W        W32919   9.382   1.956  14.249 -0.3511 -0.0514 -0.2753
16446W        W32920   3.983  18.875   1.213 -0.2588 -0.3409  0.0076
16447W        W32921   3.696   4.976   1.970 -0.1638  0.1812  0.0818
16448W        W32922   4.434   3.793  13.772  0.1218 -0.3086  0.1860
16449W        W32923   2.431  18.035  11.024 -0.0885  0.2824 -0.0580
16450W        W32924  16.429  12.761  14.357 -0.1101 -0.3897 -0.2455
16451W        W32925   1.711  13.003  11.194  0.3125  0.0380  0.0621
16452W        W32926  18.753   0.721   3.123 -0.1746  0.1358 -0.1915
16453W        W32927  15.337  18.840  10.416 -0.4722  0.1772 -0.2053
16454W        W32928   8.267  18.559  12.574 -0.0650 -0.1916  0.1710
16455W        W32929   7.343   2.357   1.949 -0.3424 -0.2478 -0.0976
16456W        W32930   8.678   2.875   3.070 -0.1972 -0.0045  0.1417
16457W        W32931  19.028   2.896  10.963  0.0203  0.1616 -0.1772
16458W        W32932  17.864   3.050  12.582 -0.0642 -0.0050  0.0260
16459W        W32933  16.258   9.274  13.992  0.1055  0.2394  0.1960
16460W        W32934   9.189  17.501  13.335  0.0418 -0.2128 -0.0717
16461W        W32935   9.994   5.447  13.497 -0.0355  0.0804  0.3807
16462W        W32936   0.768  12.782  13.193 -0.0476 -0.1789 -0.1117
16463W        W32937   9.474   7.964   5.348  0.3027 -0.2395  0.4364
16464W        W32938  10.692   9.840   0.439  0.3101  0.1249 -0.4636
16465W        W32939   2.721  11.886  14.239 -0.2070  0.0133  0.5743
16466W        W32940   6.531   8.559   1.467 -0.0049 -0.1478  0.1354
16467W        W32941   5.289   9.650   1.210  0.0517 -0.2242  0.0114
16468W        W32942  17.186   3.011  13.799 -0.2574 -0.0343  0.2617
16469W        W32943   3.573   4.520  14.265 -0.0625 -0.2190  0.2801
16470W        W32944  17.030   0.894   3.223  0.3008 -0.2586  0.0656
16471W        W32945  13.223   1.460   2.754 -0.1665  0.2058 -0.0977
16472W        W32946   3.348   4.047   2.173  0.1880 -0.3367 -0.3242
16473W        W32947   3.666   8.364   1.039 -0.3931 -0.2759  0.0446
16474W        W32948   7.454   9.272  10.710  0.3053  0.0234  0.0806
16475W        W32949  12.051  13.920  10.233  0.1906  0.0823  0.2045
16476W        W32950  10.770  10.697  11.468  0.1267  0.1213  0.3252
16477W        W32951  11.373  11.816   4.597  0.0580  0.2330 -0.2367
16478W        W32952  12.042   3.900   1.930 -0.0864  0.1088  0.2201
16479W        W32953   6.494   7.702   1.454 -0.0618  0.0292  0.3729
16480W        W32954  14.656  13.094  14.212  0.0555  0.0713  0.0822
16481W        W32955   9.544  16.253   0.752  0.1589 -0.0226  0.2326
16482W        W32956  13.169   4.157  12.670 -0.1885  0.2743 -0.0044
16483W        W32957  17.847  15.437   3.097  0.0460 -0.2734 -0.2846
16484W        W32958  16.757   8.667  11.521  0.2621 -0.1107  0.3003
16485W        W32959   1.827  18.696  12.499 -0.0833  0.1562 -0.0025
16486W        W32960  19.086   4.393   4.027 -0.1682 -0.0385 -0.0269
16487W        W32961  16.879   7.034   4.250 -0.2022  0.0881  0.0389
16488W        W32962   6.560  15.443   1.213  0.1821 -0.1473  0.2375
16489W        W32963  15.381   8.365   0.382 -0.0100 -0.1021  0.0311
16490W        W32964   4.383  14.989   4.002 -0.0133  0.0337 -0.0252
16491W        W32965   2.670  12.153   3.707 -0.0267  0.1677 -0.0721
16492W        W32966   3.290   5.115   2.239  0.1615 -0.2730 -0.1849
16493W        W32967  10.358   1.557   9.378  0.3956  0.0249 -0.5264
16494W        W32968  15.964  12.683   2.376  0.0876  0.0263 -0.2734
16495W        W32969  18.157   0.326   4.834  0.3101  0.2024  0.0954
16496W        W32970  18.387  12.466  12.851 -0.3290  0.1577  0.0794
16497W        W32971   4.341   6.565  12.314 -0.2877  0.0743  0.1120
16498W        W32972  14.640   3.410  13.386  0.1290 -0.4021 -0.1755
16499W        W32973  13.323   5.863  13.188 -0.2247 -0.0876 -0.2448
16500W        W32974   6.032  19.343   9.593 -0.0830  0.0555  0.0865
16501W        W32975   3.303  10.349  11.731 -0.1258  0.0871 -0.6719
16502W        W32976  10.843  17.297  12.134  0.0817 -0.0858  0.0356
16503W        W32977  18.478  16.996  14.135  0.0109  0.1175  0.2758
16504W        W32978   9.893   3.703   1.815  0.2839 -0.2286  0.0158
16505W        W32979  10.014   2.547  14.268 -0.0395 -0.0857 -0.0336
16506W        W32980   5.263   6.280   0.878 -0.2276  0.3350  0.2940
16507W        W32981   1.913  10.736   3.773 -0.3608  0.0423  0.2484
16508W        W32982   4.766   9.162   2.484  0.0552 -0.1292  0.2809
16509W        W32983  14.271  10.655  12.762 -0.1429  0.1094  0.2339
16510W        W32984   0.216   7.860   0.503  0.1029 -0.0044  0.1839
16511W        W32985  15.522  13.811   3.966  0.0436  0.0975  0.0419
16512W        W32986  18.887  12.998  11.231  0.0834 -0.3068 -0.2297
16513W        W32987  11.027  11.143   0.827  0.1990 -0.4200 -0.0573
16514W        W32988   1.363   3.353   3.022 -0.2740 -0.2064  0.2304
16515W        W32989   4.288   4.301  13.279 -0.1267  0.0349  0.2547
16516W        W32990   9.153  19.421   4.094  0.1230 -0.1043  0.0369
16517W        W32991  12.070   4.019   4.948  0.2222  0.0010 -0.0739
16518W        W32992   0.763   3.935  10.342  0.2233 -0.1875  0.0843
16519W        W32993  14.457  10.568   3.035  0.0450 -0.1541 -0.2161
16520W        W32994  14.816   8.871   5.515  0.0259 -0.0473  0.0824
16521W        W32995   9.497   0.715  14.689  0.4104  0.1298 -0.0358
16522W        W32996   3.819   3.160  14.615  0.2172  0.2226 -0.0121
16523W        W32997  10.838  12.521   2.923  0.1131  0.0289 -0.1997
16524W        W32998  10.463   4.661  11.338  0.2522 -0.2772 -0.0737
16525W        W32999   5.615   6.953   1.197 -0.0040 -0.1868  0.0088
16526W        W33000   5.414  15.863   0.654 -0.0273 -0.1310  0.1340
16527W        W33001  15.886  13.713  10.926  0.0281  0.2246 -0.0685
16528W        W33002  14.248  18.840   3.760 -0.0314  0.1167  0.1715
16529W        W33003   3.715   0.541  11.768 -0.0810 -0.3038 -0.1876
16530W        W33004   2.585   2.527   0.465 -0.0210  0.1294 -0.0193
16531W        W33005   6.613   6.230  10.135 -0.2227 -0.0193  0.0112
16532W        W33006  16.111  13.646   2.616 -0.1272 -0.0791  0.0131
16533W        W33007   2.779   5.718  14.645 -0.2601 -0.1492 -0.0716
16534W        W33008  13.108  11.490   1.548 -0.2085  0.0050  0.1037
16535W        W33009  17.775   8.354  11.642  0.1285 -0.2436  0.0486
16536W        W33010  11.610   4.051  13.281 -0.1942 -0.1291 -0.0648
16537W        W33011   3.224  19.251   0.105  0.3645 -0.0497 -0.1671
16538W        W33012   9.710  11.089   4.270  0.1868  0.1418 -0.1281
16539W        W33013   5.005  16.169   1.466  0.1699  0.0992  0.0158
16540W        W33014  19.192   9.110  13.839  0.3286  0.1036 -0.0470
16541W        W33015  12.058  13.149   0.336 -0.0430  0.1270  0.2397
16542W        W33016  10.605  19.008   2.078 -0.3702 -0.1185 -0.0237
16543W        W33017  11.067  10.121  10.867 -0.4985 -0.2090 -0.1497
16544W        W33018   5.145  11.867   1.118  0.3128  0.1502 -0.4196
16545W        W33019   3.029   5.134   3.090 -0.0264  0.1585  0.0573
16546W        W33020  11.362  16.584   0.977  0.2763 -0.2363  0.3869
16547W        W33021  12.762  18.586   3.013 -0.0834 -0.2461  0.2456
16548W        W33022   1.403  12.100  13.072 -0.0990  0.1297  0.0241
16549W        W33023  12.666   7.812  12.136 -0.1093  0.1334 -0.0474
16550W        W33024  18.991   0.996  12.439 -0.1965  0.1802 -0.3959
16551W        W33025  12.759  14.983   1.547 -0.0285 -0.1365  0.1097
16552W        W33026   2.106   0.289  13.208 -0.1731 -0.2390 -0.0087
16553W        W33027   8.362   7.156   2.617 -0.0642  0.1249  0.1967
16554W        W33028  17.906   0.740  14.011  0.0288  0.1909  0.2592
16555W        W33029  11.414  18.559  13.761 -0.0010 -0.2299  0.1359
16556W        W33030   1.896   8.122   4.620 -0.1135  0.1620 -0.0594
16557W        W33031  17.723   8.505   5.263  0.0779 -0.3411  0.0042
16558W        W33032   9.462   1.069  13.254 -0.0034  0.0737 -0.2216
16559W        W33033  18.813   6.386   1.155 -0.0675 -0.0123 -0.2085
16560W        W33034  19.039  18.917  13.877 -0.1130 -0.2267  0.1061
16561W        W33035   7.626  14.265   3.958  0.1514  0.1512 -0.3763
16562W        W33036  12.891  13.582  10.476  0.3207 -0.1074  0.0076
16563W        W33037   7.629  18.696  14.170 -0.0010  0.2980 -0.0825
16564W        W33038   0.666   7.895   1.693  0.0613 -0.0805  0.0125
16565W        W33039  19.087   2.083   8.981 -0.0942 -0.0472  0.1935
16566W        W33040  15.494  12.922  12.251 -0.0833 -0.2080  0.0336
16567W        W33041   0.640  17.957  13.814 -0.0305 -0.0669  0.0025
16568W        W33042  12.590   5.377   1.962  0.3329  0.1169  0.4081
16569W        W33043   3.645  12.294  12.510  0.1487 -0.0247 -0.2404
16570W        W33044   3.291  10.576  12.832  0.0332 -0.2393 -0.1766
16571W        W33045   4.851   0.754  13.664  0.2549  0.0414  0.0376
16572W        W33046   3.714  10.731   3.525 -0.3863 -0.2047 -0.1363
16573W        W33047  15.233  17.934  14.657  0.3023  0.1473  0.0892
16574W        W33048   9.556   7.856   1.213 -0.1535  0.0119 -0.1818
16575W        W33049   4.975  18.719  14.353  0.5946  0.0788  0.0041
16576W        W33050  11.705  11.022  13.921  0.0327  0.2891  0.3219
16577W        W33051   5.044  11.148  13.076  0.1913 -0.0304 -0.0734
16578W        W33052   5.173   9.136  14.702  0.4562 -0.1320  0.4416
16579W        W33053  10.398   9.404  13.396 -0.0802  0.1115  0.0032
16580W        W33054   1.477   9.371   3.681 -0.6482  0.0478  0.0013
16581W        W33055  12.155  13.422  13.029 -0.0141  0.0539  0.0730
16582W        W33056  10.758   4.224   1.556 -0.2494  0.1605 -0.0054
16583W        W33057   3.729  17.071   1.298 -0.0105 -0.0015  0.3057
16584W        W33058   9.672  12.316  12.240  0.2873 -0.1096 -0.2574
16585W        W33059  15.130   7.096   3.099  0.0808  0.0192  0.2641
16586W        W33060  10.839  13.206   1.217  0.2201 -0.1905  0.0805
16587W        W33061   8.934   3.459  14.383  0.1462 -0.0922  0.0026
16588W        W33062  19.167   8.444  11.240 -0.3253  0.0225 -0.0989
16589W        W33063   1.763  18.744  14.025 -0.1506  0.0092  0.1387
16590W        W33064  17.876  15.878   2.292 -0.1334  0.0470 -0.1687
16591W        W33065  15.400   5.646  13.882 -0.0071  0.0022  0.2003
16592W        W33066  18.395   4.895   4.180 -0.0774 -0.1871 -0.0826
16593W        W33067   8.181  10.091  13.454 -0.0501  0.0468 -0.2702
16594W        W33068  16.355  19.531   1.079 -0.1965 -0.0294 -0.1447
16595W        W33069   9.532  14.859  10.832  0.2959  0.2388  0.2698
16596W        W33070   4.873  13.170   3.909  0.1281  0.0231 -0.1185
16597W        W33071   4.418  14.156   0.631  0.0530 -0.0046  0.1076
16598W        W33072   4.197   7.439   1.714 -0.0207 -0.0403  0.0652
16599W        W33073   1.253  13.040   1.814 -0.0616 -0.0925  0.0072
16600W        W33074  10.772   1.460  14.339 -0.0224  0.3376 -0.1389
16601W        W33075  10.017  10.907  10.940 -0.1468  0.1093 -0.0229
16602W        W33076  16.476  10.236  10.533  0.0119  0.1390  0.4030
16603W        W33077   0.149   9.946   5.527  0.0756  0.0911  0.3168
16604W        W33078   2.385  18.362   1.430 -0.2245 -0.0811  0.0631
16605W        W33079  12.671  11.833   1.825  0.1518  0.3422  0.2095
16606W        W33080   7.378   3.268   0.289  0.1424 -0.1076 -0.3137
16607W        W33081  10.272   3.358   1.996 -0.2453  0.1665 -0.0692
16608W        W33082   8.014   1.755   4.874  0.1165 -0.2181 -0.0044
16609W        W33083   9.331   2.096   1.822  0.0777  0.0951 -0.3950
16610W        W33084   5.381   9.475  12.693  0.0629 -0.2159 -0.0758
16611W        W33085   0.348   2.826  10.826  0.0637 -0.1449  0.0105
16612W        W33086   6.519   8.374   1.950 -0.4122 -0.0743 -0.2640
16613W        W33087  14.539  10.114   5.810  0.1777 -0.3543  0.0154
16614W        W33088   7.567  11.286   1.684 -0.1136 -0.0672  0.1718
16615W        W33089  18.215   7.196   5.196 -0.2868  0.3603 -0.2523
16616W        W33090   0.298   8.057  12.923 -0.0490  0.3077  0.2165
16617W        W33091   5.330  15.042   2.121  0.4111  0.1667  0.3469
16618W        W33092   2.597  18.154  11.495 -0.0427 -0.2668 -0.2906
16619W        W33093  11.730  18.484   5.725 -0.1317 -0.2161 -0.2812
16620W        W33094   2.100   4.573   1.011  0.2035 -0.3265  0.0420
16621W        W33095  17.418  12.525   3.422 -0.0739  0.1843  0.2244
16622W        W33096   4.710   7.853   1.152 -0.0400 -0.1705  0.2476
16623W        W33097   1.207  17.433  12.536 -0.1801 -0.1439  0.2176
16624W        W33098  13.684   3.891  13.978 -0.0956 -0.1142 -0.4081
16625W        W33099  13.818   1.009   0.472  0.0766  0.4121  0.0989
16626W        W33100   2.122   0.010   0.991  0.1508 -0.0687 -0.0603
16627W        W33101  13.241  13.548  13.009 -0.0631  0.1419 -0.3544
16628W        W33102  17.969   2.886  10.632  0.0291  0.0006 -0.0236
16629W        W33103   4.769   4.939   2.040 -0.0030  0.1453  0.0671
16630W        W33104   8.600   0.021  10.787 -0.0544  0.1833 -0.2391
16631W        W33105  11.956   8.431   3.817  0.0561  0.1081 -0.1289
16632W        W33106  15.123   9.137   2.320 -0.1151 -0.1859 -0.1491
16633W        W33107   9.877  13.842  12.852  0.1273 -0.5097 -0.1715
16634W        W33108   9.326  11.548   4.996  0.0089  0.0462  0.4338
16635W        W33109   5.841   2.744   2.745  0.2856 -0.2051  0.1351
16636W        W33110   0.297   3.251   3.787  0.0481 -0.1991 -0.0520
16637W        W33111   7.851   0.549  11.300 -0.0280  0.1820  0.1535
16638W        W33112  18.836  15.056  14.370  0.2196 -0.1367  0.0057
16639W        W33113  11.517   7.797   1.105  0.0453 -0.1747 -0.0535
16640W        W33114   0.381  18.924  10.893 -0.4466  0.0622  0.1128
16641W        W33115  15.513  15.483   3.989 -0.0363  0.0431 -0.2003
16642W        W33116   8.038   9.731  12.874  0.1220 -0.1892  0.2363
16643W        W33117  12.725  15.022   5.046  0.0515  0.0529 -0.2877
16644W        W33118  14.305   5.855   0.147 -0.1082 -0.1804  0.0896
16645W        W33119   5.971   4.838   1.727  0.0962 -0.3915  0.0039
16646W        W33120   3.113   3.847   4.342 -0.1530 -0.1488 -0.0222
16647W        W33121   3.505  14.574   2.630 -0.4731  0.0116 -0.1825
16648W        W33122   1.235  14.592   8.951  0.3611 -0.0757 -0.2320
16649W        W33123  13.723   4.287  11.968 -0.0678  0.0397 -0.1604
16650W        W33124  16.634  18.754   1.296 -0.1714 -0.3450  0.2662
16651W        W33125  18.817  12.923  14.132  0.1522  0.0387  0.0166
16652W        W33126  14.405  12.430   1.657  0.0094 -0.0146 -0.1984
16653W        W33127  14.142   9.864   3.844  0.2497  0.0877 -0.2828
16654W        W33128  15.390   4.525  10.549  0.1889 -0.0703  0.4014
16655W        W33129  14.038  18.681  11.562 -0.0385  0.1587 -0.2584
16656W        W33130   4.638   4.875   9.962  0.3292 -0.1573 -0.2791
16657W        W33131   1.912   0.527   1.219  0.0645  0.0093 -0.3982
16658W        W33132  11.336  11.296  11.759 -0.1687  0.1809  0.0128
16659W        W33133  17.459   5.301   1.949  0.1823 -0.0518 -0.1265
16660W        W33134  14.214  10.375   0.086 -0.0590 -0.0649 -0.2690
16661W        W33135  18.889   4.402  11.925 -0.3023  0.1004  0.2825
16662W        W33136  17.996  10.972  12.094  0.1949 -0.0653 -0.2286
16663W        W33137   0.309   1.123  11.092  0.0074  0.2338  0.0082
16664W        W33138   3.548  18.797  14.010 -0.2074  0.1871  0.1914
16665W        W33139   0.413   5.418  11.392  0.4399 -0.1879 -0.0832
16666W        W33140  15.624   3.733  11.544 -0.0397  0.2484 -0.0130
16667W        W33141   7.126  15.679  11.084 -0.1155 -0.0235  0.4166
16668W        W33142   6.042   0.544  11.877  0.1218  0.1363 -0.1663
16669W        W33143  12.289  14.771   0.558  0.2366  0.3595  0.3103
16670W        W33144  16.017  19.470   2.394  0.2280  0.1269  0.0838
16671W        W33145   8.523  18.496   9.083 -0.2029  0.2102  0.0966
16672W        W33146  11.896   5.452  11.917  0.0315 -0.0925 -0.3271
16673W        W33147  10.730  16.430  13.436 -0.1779  0.1306  0.0938
16674W        W33148   5.239   5.874  11.972  0.0945  0.2344 -0.3105
16675W        W33149  11.584  12.167   1.391 -0.1967 -0.1513  0.1269
16676W        W33150   3.148  18.379  12.906  0.1797  0.1447  0.1726
16677W        W33151  18.822   4.229   3.070  0.2759 -0.1775  0.1026
16678W        W33152  16.646   4.840   3.309 -0.1810  0.3477  0.4037
16679W        W33153  10.538  11.451   0.882  0.1110  0.2768 -0.3021
16680W        W33154  13.531   4.381  13.885  0.2134  0.2151 -0.0587
16681W        W33155   1.585   8.464   4.077  0.2799 -0.4174 -0.3280
16682W        W33156  17.742  17.446   0.420 -0.0782  0.0258  0.1815
16683W        W33157   9.484  18.017   5.159  0.1036 -0.0402 -0.1196
16684W        W33158  10.700  18.787  10.185 -0.2301  0.1688  0.0670
16685W        W33159   5.594  10.493   3.898 -0.2177 -0.1478 -0.1846
16686W        W33160  15.324   9.536   2.772  0.2567  0.1415  0.3264
16687W        W33161   8.393   7.470   2.236  0.0973 -0.0456 -0.0483
16688W        W33162   6.525  11.308   1.581  0.1479  0.2973 -0.0033
16689W        W33163   0.142   0.866   0.070  0.2363 -0.1424  0.0102
16690W        W33164   9.649  13.730  11.631 -0.2757  0.1648 -0.1686
16691W        W33165  10.002  11.389  13.638  0.0204 -0.1737  0.2913
16692W        W33166   6.760  17.510   3.990 -0.0917 -0.1383 -0.3877
16693W        W33167   8.890   4.820  11.391  0.3108 -0.0633  0.2772
16694W        W33168  19.468   0.345   4.381  0.0562 -0.0065  0.1480
16695W        W33169   6.283  15.790  12.035 -0.1061  0.1887 -0.0268
16696W        W33170  16.825   7.249  11.629 -0.2096 -0.1991 -0.1218
16697W        W33171  11.199  19.113   0.816  0.4507 -0.0711 -0.0107
16698W        W33172  13.728  18.269   5.345 -0.1770 -0.0346  0.0871
16699W        W33173  13.740   7.061   4.188  0.1666  0.1707  0.2709
16700W        W33174   2.350  14.079  11.294 -0.2920  0.0352 -0.1959
16701W        W33175   1.150  18.981   4.670 -0.1466  0.1037 -0.1658
16702W        W33176   7.790  14.324  13.391 -0.0732 -0.0962 -0.1657
16703W        W33177  15.822   2.946  10.157 -0.0698 -0.2967 -0.1168
16704W        W33178  12.804   0.207   4.111  0.0032  0.1054  0.0772
16705W        W33179  14.195  10.066   3.062  0.1190  0.2192  0.3166
16706W        W33180  15.182  18.510   2.827 -0.0026  0.1756 -0.1061
16707W        W33181  19.516   5.608  10.804  0.1194  0.0971 -0.0998
16708W        W33182   6.743  17.341   2.738 -0.3408 -0.0276 -0.0923
16709W        W33183  12.119   8.899   4.081  0.0175  0.1139 -0.1032
16710W        W33184   4.837   7.003   3.217  0.2570 -0.1562 -0.0437
16711W        W33185  19.289   5.788   2.375 -0.0363 -0.0105 -0.0898
16712W        W33186   5.058  12.102  10.245 -0.2456  0.1216  0.0481
16713W        W33187   7.003   7.378   9.578  0.2396 -0.0900  0.0325
16714W        W33188  10.405   6.459   5.082 -0.0723  0.1260 -0.5171
16715W        W33189   3.196   4.802   3.907  0.3760  0.1216 -0.2255
16716W        W33190   8.366   7.032   3.139  0.0584 -0.0105  0.1207
16717W        W33191   2.279   2.763   2.178 -0.1334  0.2234  0.2863
16718W        W33192   5.096  14.975  10.994  0.0131  0.0066  0.1019
16719W        W33193   5.617   8.817   2.530 -0.2906 -0.2559 -0.0204
16720W        W33194   8.095   5.127  11.421 -0.1430 -0.3452 -0.4221
16721W        W33195   5.193   9.808  14.120 -0.1447 -0.1330  0.4169
16722W        W33196  13.939  19.351   9.553 -0.3030 -0.0004  0.1974
16723W        W33197   0.381  16.943   2.419  0.0391 -0.2279  0.2843
16724W        W33198   7.217   2.901   1.080 -0.0495 -0.0811  0.3047
16725W        W33199   8.999   2.208   9.518 -0.2414  0.3758  0.0584
16726W        W33200  15.270   0.000  14.003  0.0437 -0.2477 -0.0050
16727W        W33201   2.043  18.328  13.876 -0.1747 -0.1057 -0.0231
16728W        W33202  17.314  15.196   3.818 -0.1323 -0.0749 -0.1740
16729W        W33203   2.117  10.383   1.236  0.2377 -0.0804  0.0015
16730W        W33204  12.136   9.849   2.831  0.1805 -0.0371  0.1639
16731W        W33205  17.831  13.957  14.571  0.0584 -0.1052 -0.1539
16732W        W33206   6.021   7.067  11.127  0.2025 -0.0247  0.1134
16733W        W33207  14.771   1.018  12.147  0.1411  0.3038  0.1602
16734W        W33208   6.164   8.086   1.684 -0.0422  0.2173  0.0927
16735W        W33209  15.651   1.220  12.802  0.0335 -0.0083 -0.1376
16736W        W33210  12.023  12.223   4.128  0.0811  0.4212  0.0331
16737W        W33211   3.010   2.166  14.099  0.1033  0.0054  0.1830
16738W        W33212   1.747   8.627   3.168 -0.1527 -0.1615  0.2006
16739W        W33213   9.663  13.763   4.599  0.2967 -0.2533 -0.0473
16740W        W33214  11.756  16.475  12.513 -0.0166 -0.0355  0.0030
16741W        W33215  13.977  13.326  12.490 -0.0591  0.3805  0.0578
16742W        W33216  16.580   3.293   4.245 -0.0347 -0.0824 -0.1466
16743W        W33217   3.677   8.337   2.158  0.3012  0.3186  0.0820
16744W        W33218   3.788  19.147  14.341  0.1239  0.1584  0.0196
16745W        W33219  10.694  17.366   0.683 -0.0453  0.1925 -0.0918
16746W        W33220  10.777  11.783   3.677 -0.3590  0.0761 -0.1187
16747W        W33221  19.208  11.610   1.547  0.3827  0.3507  0.2735
16748W        W33222  14.648  11.965   2.076 -0.3957  0.4192  0.2263
16749W        W33223  10.472   0.843   0.318  0.1865 -0.0593  0.1040
16750W        W33224  14.832   0.072  13.766 -0.1067 -0.0041  0.1057
16751W        W33225   6.684  12.856   3.049 -0.1481 -0.1610  0.0752
16752W        W33226   6.851  12.914   2.098  0.2248 -0.2240  0.2472
16753W        W33227  18.865  10.060  11.812 -0.2986  0.0881  0.0773
16754W        W33228   0.322  10.659  11.819  0.3751  0.2363  0.1100
16755W        W33229  12.751   9.091  12.505  0.1406  0.0088  0.3252
16756W        W33230   4.814   5.076   5.009 -0.2206 -0.0473 -0.0163
16757W        W33231   4.372  11.900  11.230  0.2815 -0.2387  0.0860
16758W        W33232  12.050  12.825  13.128 -0.0055  0.2175 -0.0897
16759W        W33233  16.069  16.874  11.502 -0.4535  0.1924 -0.0661
16760W        W33234   3.034   3.306   4.302 -0.0175 -0.4823 -0.4352
16761W        W33235   1.049   9.191  14.101 -0.4638  0.3496  0.0929
16762W        W33236   0.323  14.795   1.167  0.0155 -0.0569  0.1886
16763W        W33237   8.146  19.329   2.522  0.0774 -0.1513  0.4208
16764W        W33238  12.652  15.155  12.317  0.0125 -0.1737 -0.3196
16765W        W33239  17.788   6.494  14.446 -0.1838 -0.3360  0.0165
16766W        W33240   1.383   6.054  10.482 -0.1172  0.0724  0.0032
16767W        W33241  10.903  12.889  13.556  0.0924 -0.4662  0.0726
16768W        W33242   9.902   0.007  11.621 -0.2304 -0.2315  0.3261
16769W        W33243   6.084   6.584  11.372  0.0668 -0.0478 -0.1666
16770W        W33244   1.644   1.681  10.557  0.0241 -0.0032  0.0422
16771W        W33245  11.450  13.502  11.658 -0.0003 -0.2386 -0.1759
16772W        W33246  11.000  11.454   1.193  0.1372 -0.0090  0.1838
16773W        W33247   1.547  19.307  14.524  0.0529  0.1386  0.2535
16774W        W33248  15.007   3.110   2.677 -0.0038 -0.3185 -0.2616
16775W        W33249  12.922  16.620  11.111  0.1334 -0.1659 -0.1323
16776W        W33250   9.855   2.503   2.599 -0.1775 -0.4053 -0.1252
16777W        W33251   1.889   9.406  13.340  0.0729  0.3070  0.0748
16778W        W33252  13.684  16.045   4.745 -0.3914  0.0111  0.1576
16779W        W33253  16.172  14.027  13.975  0.0082  0.1009 -0.0137
16780W        W33254  19.262  18.259   5.261  0.2567  0.4575  0.1702
16781W        W33255   5.466  12.262   9.808 -0.3278  0.1666 -0.2907
16782W        W33256  10.715   8.037  12.473  0.1067 -0.0515 -0.0488
16783W        W33257   0.195   2.307   5.274  0.2909  0.1872  0.0485
16784W        W33258  19.489   2.861  14.411  0.3043 -0.1475  0.2970
16785W        W33259   4.197  16.741  13.652 -0.4995 -0.0642 -0.1390
16786W        W33260  19.434   7.653   5.522  0.1301 -0.3358  0.1915
16787W        W33261   3.469  14.956  10.450  0.1070  0.2191  0.1052
16788W        W33262   0.500   1.777  12.236  0.1294 -0.2508  0.2381
16789W        W33263   0.240  14.561  12.643  0.2270 -0.1788 -0.1684
16790W        W33264  16.176  11.504   4.472  0.0216 -0.2014 -0.0522
16791W        W33265  17.887   5.920   4.327  0.1844  0.2869  0.1142
16792W        W33266  15.734  17.749   4.212 -0.0139 -0.3311  0.1570
16793W        W33267   8.931   6.275  11.303  0.2498  0.3258 -0.0696
16794W        W33268  14.167   8.643  13.597 -0.0097 -0.3009 -0.0020
16795W        W33269   0.909  18.104   4.904 -0.0143 -0.2407 -0.0276
16796W        W33270  16.286   8.650   3.150  0.0613  0.1725  0.0539
16797W        W33271   3.080   0.167  10.331  0.2696 -0.1992  0.0919
16798W        W33272   1.012  12.065   2.121  0.3398  0.0616 -0.1635
16799W        W33273  13.516   8.993  13.472  0.3631 -0.2436  0.0502
16800W        W33274  11.797  13.459  11.189  0.2443 -0.0921  0.2051
16801W        W33275   8.050   9.866   0.083  0.1617 -0.1284  0.0216
16802W        W33276   2.776   2.958   1.963  0.0353 -0.3416 -0.0099
16803W        W33277   6.433   9.849  14.613 -0.3975 -0.0835 -0.0500
16804W        W33278   0.246   0.505   4.703 -0.4212 -0.0266 -0.0364
16805W        W33279  11.200  14.927  12.730 -0.0643  0.3207 -0.0780
16806W        W33280   3.848   9.480  14.390  0.2513  0.3247  0.1454
16807W        W33281  16.265  11.792   0.998 -0.0297 -0.2988  0.2998
16808W        W33282  16.965   6.527   3.622  0.1076 -0.6182  0.0300
16809W        W33283   5.017   7.734   2.077  0.2724  0.1086  0.0115
16810W        W33284  15.468  15.697  10.107  0.0938  0.1676  0.2450
16811W        W33285  10.514  10.462   1.115  0.2313  0.1476  0.1614
16812W        W33286  17.694  14.390  12.069  0.2816  0.0009  0.1771
16813W        W33287  12.043  14.576  13.863  0.0103  0.1667 -0.0029
16814W        W33288  11.428  18.352  13.302 -0.4772 -0.0623 -0.1809
16815W        W33289   7.102  18.798  13.687 -0.1070 -0.1847  0.2885
16816W        W33290  12.126  15.667   3.448 -0.2091  0.0034  0.0818
16817W        W33291  17.789   2.204  12.097  0.2839 -0.1003  0.0010
16818W        W33292   4.381  12.517   3.731  0.1431  0.4141  0.0680
16819W        W33293  11.923  15.992  13.076  0.3658 -0.3809  0.3043
16820W        W33294  14.886   3.070  14.074  0.0578 -0.0357 -0.1446
16821W        W33295  10.055  11.416  10.559 -0.0858 -0.0979  0.0678
16822W        W33296   1.424   6.887  10.180 -0.3966 -0.0071  0.2426
16823W        W33297   9.455   9.926  13.880  0.4692  0.2840 -0.2168
16824W        W33298   7.968   3.180  13.575  0.3010  0.3848 -0.2649
16825W        W33299   6.463  16.048  13.628  0.3404 -0.1965  0.1676
16826W        W33300   0.969   7.407  14.496  0.0069  0.2378  0.0953
16827W        W33301   4.624   9.201  10.339 -0.2002  0.0390 -0.2230
16828W        W33302  12.865  16.974  14.702 -0.0335  0.0198  0.0426
16829W        W33303  14.698  18.540  10.643 -0.0477 -0.4212  0.0318
16830W        W33304  18.977   7.714   4.737 -0.1905  0.1288 -0.0475
16831W        W33305   4.766   1.760  11.954  0.1432 -0.0830 -0.0446
16832W        W33306   3.384   8.583   0.740  0.0910  0.0786  0.2187
16833W        W33307  17.932  17.998   0.682  0.3628  0.1837 -0.3675
16834W        W33308   5.010   4.662  12.115  0.2652 -0.1688 -0.1507
16835W        W33309   3.818  19.149   0.726 -0.0318  0.1287  0.2921
16836W        W33310   8.861   1.407  13.775  0.3097 -0.0135  0.2334
16837W        W33311   1.592   8.383  11.555 -0.1350 -0.0925 -0.0718
16838W        W33312   9.161   9.205  10.155  0.3578 -0.3235 -0.1090
16839W        W33313   2.626   7.974   0.469  0.2856  0.1735 -0.1403
16840W        W33314  17.506   5.783  10.513 -0.0779  0.0732  0.0940
16841W        W33315   1.616  10.396  12.943 -0.2702  0.0285 -0.1009
16842W        W33316  15.567   2.013   3.502  0.1355 -0.2532 -0.1703
16843W        W33317   0.410   8.370   3.394 -0.0656 -0.0210  0.0335
16844W        W33318   8.407   0.733   3.606 -0.1061  0.3045  0.3463
16845W        W33319   6.434  11.240  12.019 -0.1011 -0.2501  0.3214
16846W        W33320  11.917   0.429  14.566  0.3501  0.0087  0.1943
16847W        W33321   2.983  10.653   3.719 -0.0507 -0.1229 -0.3921
16848W        W33322  15.138  13.409   1.032  0.3566  0.0974  0.1722
16849W        W33323   0.352   9.533  13.857  0.2779  0.1570 -0.0963
16850W        W33324  17.505   5.808   1.003 -0.1696  0.3598  0.1562
16851W        W33325  15.812   7.936  14.164  0.2363  0.1421 -0.1091
16852W        W33326  14.241   4.905   4.454 -0.1689 -0.2382  0.0021
16853W        W33327   9.222  15.892   3.950 -0.1641  0.0436  0.0569
16854W        W33328  17.013   5.663   2.814  0.0324 -0.3605  0.1374
16855W        W33329  15.136   7.139  14.119  0.1765  0.2340 -0.0328
16856W        W33330   7.433  10.325   2.689  0.1754  0.0970  0.1909
16857W        W33331   9.686  10.829   3.381 -0.2820 -0.2456  0.2145
16858W        W33332   6.685   6.362   4.269  0.0551 -0.0448  0.0356
16859W        W33333  17.171   8.538  13.176  0.2575 -0.1012 -0.2252
16860W        W33334   5.014   3.645   4.138 -0.1242 -0.0585  0.2096
16861W        W33335   2.943   0.181  12.757  0.2411 -0.3596 -0.1715
16862W        W33336  15.851  15.516   9.857  0.0194  0.0894  0.0834
16863W        W33337   1.455   5.502  14.713  0.2829  0.0472 -0.1710
16864W        W33338   8.374   2.655  11.360 -0.1306  0.1901  0.0842
16865W        W33339  11.973  11.055   0.847  0.2786  0.0010 -0.2054
16866W        W33340   1.540  11.796   2.742  0.2517  0.2801 -0.1183
16867W        W33341  11.316  16.773   4.150 -0.2063 -0.0959 -0.2708
16868W        W33342   5.887   7.782   1.912 -0.1210  0.4672 -0.2066
16869W        W33343  10.519   6.498  13.872  0.0307  0.2510  0.3687
16870W        W33344  15.938   6.242  10.304 -0.0229  0.0285 -0.2784
16871W        W33345   4.988   5.418  11.936  0.3679  0.3863 -0.1276
16872W        W33346   8.795   4.486   0.014 -0.1041  0.0544 -0.1999
16873W        W33347   9.296  16.825  13.198 -0.2053 -0.0747 -0.0205
16874W        W33348  19.477  11.006   5.469  0.1203  0.0878 -0.2850
16875W        W33349  18.404   3.618  13.928 -0.1088 -0.1848  0.1870
16876W        W33350  15.858   0.022   1.917 -0.2476 -0.0574  0.0175
16877W        W33351  15.993  12.321   5.020 -0.5002 -0.0544 -0.1863
16878W        W33352   6.889  11.639   3.957  0.3222 -0.1390  0.1017
16879W        W33353  16.569  13.813  11.299 -0.4330  0.3342  0.0775
16880W        W33354  17.500   6.765   2.000  0.1494 -0.0108 -0.7262
16881W        W33355  10.942  11.081   2.978  0.0666 -0.1372  0.3224
16882W        W33356   4.413   7.551   4.091  0.1652 -0.2647 -0.2565
16883W        W33357  11.266  14.353  14.284 -0.1189 -0.1357  0.2567
16884W        W33358  12.391  12.115  14.203  0.1684  0.2436  0.3047
16885W        W33359  19.458  18.725  10.895 -0.3561 -0.0866 -0.0261
16886W        W33360  14.115  17.265  14.170  0.1171  0.1251 -0.2714
16887W        W33361  18.768   5.733   2.421  0.0091  0.3577 -0.0593
16888W        W33362  11.003  10.314   2.392 -0.1801  0.1400 -0.1254
16889W        W33363   4.506  13.539   0.557 -0.2440 -0.3308 -0.3710
16890W        W33364  18.194   7.892  13.602  0.1804  0.3348 -0.0244
16891W        W33365  17.145   8.335   5.268  0.1900  0.1465  0.0996
16892W        W33366   9.745   2.890   5.232 -0.2207 -0.0232  0.0211
16893W        W33367   6.961  13.566  10.219  0.2833  0.2397  0.1720
16894W        W33368  12.890   5.203   1.625 -0.0386 -0.0061 -0.3080
16895W        W33369  16.765   5.243   1.165 -0.0317 -0.2183  0.2272
16896W        W33370   0.217   5.564   0.034  0.2272 -0.1476 -0.3324
16897W        W33371  16.355   5.820  11.274  0.2290  0.0553 -0.2156
16898W        W33372   1.759   7.992   4.170 -0.0039 -0.2534 -0.0518
16899W        W33373  17.041   4.012  11.916 -0.3552 -0.0047  0.1540
16900W        W33374   4.293  17.613  10.634 -0.1730  0.4179 -0.2413
16901W        W33375   5.974   9.639   5.179  0.1645 -0.3207 -0.0143
16902W        W33376  12.294   5.654  10.061 -0.3177  0.1934  0.0477
16903W        W33377  17.831  12.243  13.890 -0.0180 -0.1432  0.1944
16904W        W33378   5.216   6.125  12.424  0.0194  0.0586  0.1826
16905W        W33379   8.987   7.862  12.144 -0.0324 -0.0487  0.2218
16906W        W33380  14.225  11.087  12.496  0.2646 -0.1079  0.2255
16907W        W33381   1.807  13.099  14.320  0.1153  0.1574 -0.1126
16908W        W33382  16.988  12.663  13.033  0.1034  0.0484 -0.0269
16909W        W33383  14.182   2.676   1.153 -0.1271  0.0448  0.1859
16910W        W33384  17.938  11.339   5.636  0.1159 -0.2270 -0.5347
16911W        W33385   6.956   9.788  14.361 -0.1320 -0.0327  0.1360
16912W        W33386  13.513   3.744   4.605 -0.1895  0.3230 -0.0203
16913W        W33387  12.444   8.650  13.953 -0.2585 -0.0348  0.1045
16914W        W33388  10.554  14.868  10.857  0.2386 -0.0416  0.1196
16915W        W33389  15.532   4.720   2.776 -0.1720 -0.1339 -0.1904
16916W        W33390  13.108  10.159   0.659 -0.0379 -0.0703  0.2491
16917W        W33391   5.782  12.846   3.793 -0.4174 -0.0480 -0.0098
16918W        W33392   8.858  14.715   4.070 -0.0263 -0.0440 -0.1135
16919W        W33393  14.681   1.134  14.173  0.0827 -0.0090  0.2395
16920W        W33394   5.719   5.013  13.084 -0.1596  0.1264 -0.0640
16921W        W33395  19.069   0.776  12.025  0.0371 -0.0431 -0.0265
16922W        W33396   2.425  13.421  13.911  0.1924  0.0021 -0.2780
16923W        W33397   6.101   5.346   1.783 -0.3850 -0.0728 -0.2202
16924W        W33398   9.456   9.178   2.509 -0.1231  0.0421 -0.0842
16925W        W33399  16.176   0.882   4.338 -0.2206 -0.2202  0.1457
16926W        W33400  15.086  19.281   3.834 -0.2189 -0.0849  0.0891
16927W        W33401  18.730   7.013  14.261 -0.1486  0.0037 -0.0991
16928W        W33402  18.620  13.049   4.680  0.2864 -0.0026 -0.0698
16929W        W33403  11.005   5.209   2.841 -0.1897 -0.0459 -0.0444
16930W        W33404  13.210   9.438   1.429  0.1873 -0.0132 -0.1469
16931W        W33405  16.934  16.831  11.580 -0.3845  0.1731  0.0310
16932W        W33406  16.556   0.044   3.905  0.1268  0.1328  0.1325
16933W        W33407  17.693  16.134  10.835  0.0352  0.0007 -0.1560
16934W        W33408   2.116  12.229   1.117  0.1783  0.0504 -0.1016
16935W        W33409  17.502   3.145  10.779 -0.1293  0.1820 -0.1444
16936W        W33410  15.981   2.905  12.651  0.0623  0.0650 -0.0260
16937W        W33411  14.982  12.838   9.449  0.0682 -0.1512  0.0283
16938W        W33412  16.415  16.754  12.339 -0.0999  0.1680 -0.0493
16939W        W33413   8.533   3.681  11.020 -0.1599 -0.3026  0.1478
16940W        W33414   1.610  14.467   3.647 -0.1765  0.0118  0.0680
16941W        W33415   2.371   4.988  10.349 -0.0476 -0.1095  0.0939
16942W        W33416   5.377   5.479  10.700  0.0687  0.2949 -0.1010
16943W        W33417  10.933  19.516  10.805  0.0564  0.0749  0.1894
16944W        W33418   0.736  17.130  13.887  0.0444 -0.3643  0.0359
16945W        W33419   8.096   4.590   0.735  0.1403  0.0861 -0.1342
16946W        W33420  15.929  12.649  12.272 -0.4437 -0.2474 -0.0234
16947W        W33421   7.338   4.616  10.472  0.0475 -0.2400 -0.2848
16948W        W33422   0.867   5.282  13.535 -0.1573  0.0084 -0.0569
16949W        W33423   8.431   8.221  14.617  0.0724 -0.3369 -0.2333
16950W        W33424   3.528   6.961  12.343  0.2172 -0.0257  0.1665
16951W        W33425   1.118  12.592   3.833 -0.0342  0.0563  0.1926
16952W        W33426  10.289  11.163  13.301  0.1606 -0.0985  0.1813
16953W        W33427   9.356  19.514   0.434  0.1989 -0.0034 -0.0866
16954W        W33428  19.223  15.768  14.662  0.1211 -0.1402  0.0048
16955W        W33429   0.232   9.480  14.344  0.3445 -0.0779 -0.3052
16956W        W33430   1.719   1.618  14.580 -0.0837  0.1246 -0.1708
16957W        W33431  12.958   9.991   5.525  0.1760 -0.0449  0.1096
16958W        W33432  12.034  14.959   5.359  0.1871 -0.0303  0.3495
16959W        W33433   3.792  12.038  11.649  0.0116  0.2363 -0.1970
16960W        W33434  17.273  12.609  14.528 -0.1337 -0.2597  0.3474
16961W        W33435  19.485   3.090  12.700 -0.0324 -0.1661 -0.1626
16962W        W33436   5.468  14.862   0.673  0.1558  0.4063  0.2612
16963W        W33437   3.401  16.951   4.521  0.2717 -0.2836  0.0222
16964W        W33438  11.966   3.613   0.743 -0.2428  0.0346  0.1814
16965W        W33439  13.873  17.183   3.878  0.1160 -0.2714 -0.3822
16966W        W33440   8.400   9.743   3.411  0.0159  0.2618  0.0308
16967W        W33441   2.992   7.388  14.061 -0.1684 -0.1108  0.1210
16968W        W33442   5.161  15.636   1.365  0.1580 -0.0271 -0.2309
16969W        W33443   0.637   8.166   0.813 -0.1264 -0.1224  0.0684
16970W        W33444   0.432   3.487   5.465  0.0306  0.1346  0.1275
16971W        W33445   6.076  18.574   2.981 -0.1038 -0.2853  0.2058
16972W        W33446   6.738  16.632   0.212  0.2800  0.0308  0.2719
16973W        W33447  17.746   9.028   2.542  0.0106 -0.1722 -0.4468
16974W        W33448  12.217   2.356  12.473  0.0951 -0.0414  0.0351
16975W        W33449   8.714   6.638   3.329 -0.0322 -0.3507  0.0527
16976W        W33450   1.801  14.157  14.102  0.0552 -0.0063  0.1196
16977W        W33451   9.208  13.691   1.844  0.2406 -0.2654  0.0381
16978W        W33452   9.340   5.611  11.027 -0.0492 -0.1183  0.3712
16979W        W33453  18.402  12.951  10.344 -0.0130 -0.2192 -0.2243
16980W        W33454  14.566  10.073  11.022  0.2630 -0.0294  0.0463
16981W        W33455   0.470   5.921  13.621 -0.0890  0.0551  0.1358
16982W        W33456  15.847   2.269   0.306 -0.0155 -0.1023 -0.1804
16983W        W33457  18.479  14.158  12.647 -0.2073 -0.0158  0.4069
16984W        W33458  12.159   0.648   3.141 -0.0696 -0.1774  0.1339
16985W        W33459   8.893  13.114   3.906 -0.1555 -0.0654  0.0432
16986W        W33460  11.049   3.727  14.472  0.4699 -0.2529 -0.2654
16987W        W33461   4.803   9.511  13.967  0.2630  0.0135  0.0033
16988W        W33462   1.364  15.676  11.851 -0.2659  0.3242  0.2145
16989W        W33463  11.819  11.641  11.002 -0.1402 -0.1111  0.1282
16990W        W33464   4.882  12.580   0.542  0.1083 -0.0994  0.0337
16991W        W33465  18.710   1.215  11.334  0.1526 -0.1135  0.1651
16992W        W33466   6.066  18.515   1.663  0.2872  0.1703  0.2249
16993W        W33467  17.285   7.066  13.718 -0.1194 -0.0625 -0.1383
16994W        W33468   3.459  18.708   9.698 -0.3364  0.2911  0.2659
16995W        W33469   8.174  15.884  12.818 -0.3194 -0.0683 -0.2495
16996W        W33470   1.517   8.277  13.677 -0.2931 -0.1345 -0.1977
16997W        W33471  10.208   8.585   0.715  0.1678 -0.0120 -0.0603
16998W        W33472  16.248   2.650   0.514  0.2840  0.2054  0.0222
16999W        W33473   0.759  13.074   5.245  0.0645 -0.0664  0.0183
17000W        W33474   0.611  13.764  13.782 -0.2396  0.5214  0.2280
17001W        W33475  12.629   6.769   4.095  0.0918  0.3276 -0.0306
17002W        W33476  11.351  14.151   3.560 -0.0168  0.2915  0.1939
17003W        W33477  10.743  15.637   0.169  0.3350  0.5781 -0.1393
17004W        W33478  15.604   3.279  14.673  0.3581  0.5370 -0.0384
17005W        W33479  17.819  19.014   2.108  0.2234  0.1987  0.1433
17006W        W33480   6.324   6.143   5.140  0.2146 -0.2556 -0.4601
17007W        W33481   7.936  16.326  10.151 -0.2206  0.0012  0.3133
17008W        W33482  17.289  13.440  13.010  0.1062 -0.0510  0.2273
17009W        W33483   7.871  10.834   2.772 -0.1689  0.0789  0.3410
17010W        W33484  17.868   3.501  11.220  0.2221  0.0869  0.2249
17011W        W33485   4.101   3.920   0.210 -0.1634 -0.0140  0.0771
17012W        W33486  12.905  13.225   4.214  0.0803 -0.0454  0.2739
17013W        W33487   1.577  10.232   3.774  0.2802 -0.0448  0.0339
17014W        W33488  15.922  10.087  11.894  0.0669 -0.1112 -0.1322
17015W        W33489   9.148  19.080  11.838  0.1257 -0.4819 -0.3550
17016W        W33490   0.031   8.770  10.324 -0.2135  0.2404  0.1163
17017W        W33491  15.883  10.973   3.629 -0.0737  0.2773 -0.0118
17018W        W33492   7.145  16.570   3.865 -0.4128 -0.1798  0.0287
17019W        W33493  16.563   0.490  13.473 -0.2531 -0.3313  0.1224
17020W        W33494  11.915  18.408  13.597  0.0667  0.0174  0.0555
17021W        W33495   7.301  17.629   9.958  0.1184  0.5789  0.0658
17022W        W33496   1.535  11.121  11.580  0.1051 -0.0674 -0.4319
17023W        W33497  15.693   2.196   3.022 -0.1359  0.2186  0.0698
17024W        W33498   3.289   9.657  13.435  0.1174  0.1318  0.1427
17025W        W33499   8.393  10.582   3.578  0.4000  0.1378  0.1093
17026W        W33500  18.356  15.995   3.593  0.0610 -0.0587  0.2846
17027W        W33501   5.672  17.232  11.461 -0.2044  0.0641 -0.2174
17028W        W33502  13.412  13.241   2.754 -0.1632  0.0360  0.2925
17029W        W33503   5.298  19.350   2.893 -0.2432  0.1517 -0.1264
17030W        W33504   6.819   2.779   2.741 -0.1241 -0.0096 -0.0768
17031W        W33505   3.546   8.141   2.661 -0.0035 -0.3040  0.3066
17032W        W33506   8.893   6.732   4.733 -0.0509  0.3051  0.3202
17033W        W33507   9.638  14.011  13.332  0.3624 -0.3803 -0.1116
17034W        W33508   3.852  17.885   2.151 -0.0116 -0.1209 -0.0056
17035W        W33509  12.955   0.421  13.291  0.1666 -0.1533  0.0897
17036W        W33510  18.632  14.566  11.693  0.1220 -0.1725 -0.1752
17037W        W33511  11.692  10.935  12.374 -0.0564  0.1197  0.0032
17038W        W33512   9.871  11.057   1.644 -0.0671  0.0073 -0.0971
17039W        W33513  18.861  17.248   4.523 -0.0224 -0.1273  0.2158
17040W        W33514  16.025  11.186   1.963  0.1045 -0.0173  0.0097
17041W        W33515   5.232  13.772  10.535  0.2207 -0.2491 -0.1589
17042W        W33516   6.246   4.280   4.160  0.0953 -0.0259 -0.0570
17043W        W33517   8.377  10.467  13.130 -0.0590  0.1486  0.1121
17044W        W33518  17.340  10.472   1.021  0.3177 -0.2186 -0.4800
17045W        W33519   7.802   6.408  10.694  0.4197  0.3177  0.3060
17046W        W33520   5.975   1.220  14.468 -0.3823 -0.1022 -0.0384
17047W        W33521   9.345   3.301  12.278  0.2087 -0.3980 -0.0987
17048W        W33522  13.552  17.230  12.183 -0.0544  0.2443  0.0035
17049W        W33523   3.300   7.551   1.884  0.4139 -0.1990 -0.1453
17050W        W33524   8.872  15.905  12.126  0.0050 -0.1436 -0.1334
17051W        W33525   2.743  11.399  12.202  0.1176  0.0269  0.1382
17052W        W33526  16.315   5.218   1.915  0.0062  0.1774  0.1569
17053W        W33527  12.845   6.347   3.681  0.0068 -0.0610  0.1485
17054W        W33528   3.694  16.784  13.542 -0.2035 -0.0797 -0.3091
17055W        W33529   9.391  18.117   9.861  0.0127  0.1194  0.0097
17056W        W33530  16.918   1.943   3.312 -0.1120 -0.1615  0.4565
17057W        W33531  15.378   3.449   2.649 -0.2056  0.1991  0.0273
17058W        W33532  15.528  18.634   0.688  0.1320  0.3136  0.5123
17059W        W33533  12.781   6.445   1.727 -0.1283 -0.0840  0.0058
17060W        W33534   3.913   7.163   2.553  0.3587 -0.5423 -0.0037
17061W        W33535   9.285  16.725   4.566 -0.0727 -0.2321  0.0323
17062W        W33536  10.341  15.861   1.279 -0.2470  0.1132  0.4196
17063W        W33537   5.998  15.427  12.350  0.0586 -0.0416  0.0584
17064W        W33538   0.992  13.134  14.555  0.2798 -0.0081  0.1457
17065W        W33539   5.399   9.646   3.512 -0.3672 -0.1925 -0.3092
17066W        W33540   9.165   0.503   0.289  0.0743 -0.0187  0.0661
17067W        W33541   2.973  12.104   3.297  0.1988 -0.1740  0.2368
17068W        W33542  15.395  11.402   0.691  0.0536 -0.0286  0.1589
17069W        W33543   2.534   6.603   2.565  0.1512 -0.1379  0.1274
17070W        W33544  11.162   4.521  12.091  0.1341  0.4516 -0.0365
17071W        W33545  19.074  11.599   1.099 -0.1264 -0.3405  0.0230
17072W        W33546  19.010  13.387  10.880  0.0146  0.0814 -0.1230
17073W        W33547  13.525   5.644   0.111 -0.3255 -0.0382 -0.0283
17074W        W33548  15.565   4.280  11.435  0.1378  0.4314 -0.0262
17075W        W33549  15.746  10.998  13.214  0.2191 -0.1163  0.0557
17076W        W33550  14.776   0.290  13.181  0.1560  0.0733 -0.0233
17077W        W33551  11.464   6.652  12.802  0.0262 -0.3927  0.0222
17078W        W33552  11.274   3.316  11.977  0.0598  0.0189 -0.0363
17079W        W33553   0.974  10.894   9.989  0.0821 -0.4424 -0.1218
17080W        W33554  14.539  14.446   2.556  0.0282  0.3738  0.1368
17081W        W33555   2.824  12.063  12.913  0.0900 -0.3095 -0.0495
17082W        W33556   3.489   7.283  11.892  0.1947  0.2318 -0.0833
17083W        W33557  15.349  16.096   3.247 -0.3303  0.0277  0.1523
17084W        W33558   4.581   9.511   4.129  0.0228 -0.1624  0.0035
17085W        W33559  15.854  18.552   4.535  0.0735 -0.1080  0.3970
17086W        W33560  15.280  18.388  10.266  0.2646  0.1204 -0.0240
17087W        W33561  12.202   2.050  12.919 -0.2127 -0.0512  0.0027
17088W        W33562   8.934   9.957   3.860  0.0865 -0.0791 -0.1646
17089W        W33563   6.375  10.496   0.606  0.2274 -0.0708  0.3648
17090W        W33564   5.882  16.675   0.520 -0.1212 -0.1633  0.0155
17091W        W33565   0.651   3.192   0.877 -0.2170  0.3320 -0.0111
17092W        W33566   4.978  12.645  11.317 -0.5124  0.1647  0.1042
17093W        W33567  17.414  16.147  10.305  0.1087  0.0731 -0.1123
17094W        W33568  10.532  14.035  13.307 -0.0108  0.1985  0.0789
17095W        W33569  16.361  14.642  12.069  0.1835 -0.0834 -0.0596
17096W        W33570  10.431   2.041  12.919 -0.1020  0.1365 -0.0791
17097W        W33571   8.278   9.688  10.851  0.1151  0.0447 -0.1245
17098W        W33572   4.862  16.150   1.987 -0.1433 -0.0550 -0.3505
17099W        W33573  10.422  12.161   3.149 -0.1891  0.3461  0.0347
17100W        W33574   3.044   9.485   3.871 -0.2034  0.4537  0.1465
17101W        W33575   5.497  17.688  12.344  0.0676  0.1828  0.1003
17102W        W33576   1.065   6.635   3.900  0.2692 -0.0732  0.0478
17103W        W33577   0.003   6.652   2.295 -0.0079 -0.0280 -0.3457
17104W        W33578   5.890   9.712   4.321 -0.0836 -0.1507 -0.1085
17105W        W33579  13.335   0.703  10.235 -0.0381  0.1123 -0.0270
17106W        W33580  11.658  12.552  11.580 -0.0145  0.4864 -0.2291
17107W        W33581   0.222   0.062  14.288  0.0627 -0.2288 -0.3074
17108W        W33582  13.578  13.026   0.434 -0.1025  0.0745  0.2784
17109W        W33583  15.510   6.014  10.948 -0.1859 -0.1771 -0.1843
17110W        W33584  13.407  12.462  13.975 -0.0160 -0.1141 -0.2367
17111W        W33585   6.371   6.807   2.975 -0.0873  0.2797 -0.2171
17112W        W33586   9.702   8.218  11.523 -0.0956  0.1027 -0.0327
17113W        W33587   5.288  15.844  14.275 -0.0628 -0.0114 -0.3826
17114W        W33588   5.434  19.515   2.434  0.0330 -0.1662  0.0865
17115W        W33589   7.339  12.364   3.626  0.0396  0.1267  0.4437
17116W        W33590   0.354   5.464  13.472 -0.1001  0.0020 -0.2808
17117W        W33591  13.658   6.407  12.192 -0.2373  0.1183 -0.1290
17118W        W33592  13.487  18.129  10.964 -0.1047 -0.0802 -0.2754
17119W        W33593  17.315  12.042   1.944  0.3197  0.1759 -0.0175
17120W        W33594   2.438  12.666   4.124 -0.2097 -0.0009 -0.1349
17121W        W33595   5.670  14.630  11.089  0.2047  0.1731  0.1170
17122W        W33596  12.373  12.142  11.976  0.0007 -0.2028  0.0614
17123W        W33597  13.267  18.369   4.487 -0.0287 -0.2868 -0.2020
17124W        W33598  11.076  17.451   0.202 -0.2018  0.3892 -0.1091
17125W        W33599   3.135  11.415  12.995  0.0650 -0.2062  0.3285
17126W        W33600   6.934   6.730   3.947 -0.0802 -0.2209 -0.1939
17127W        W33601  15.165   1.785   1.894  0.1675  0.0053 -0.1944
17128W        W33602  16.840  12.018  12.055  0.0829  0.1285  0.0224
17129W        W33603  19.044   6.944   1.266 -0.1707  0.1821 -0.0258
17130W        W33604   9.420   6.246  11.502 -0.1540  0.3522  0.0740
17131W        W33605   1.033  10.090   3.514  0.1882  0.3668  0.1363
17132W        W33606  19.503   8.188  12.488  0.0676 -0.1953 -0.0726
17133W        W33607  17.653   8.271   4.365  0.0524  0.5624  0.2255
17134W        W33608   8.897  11.951   3.278 -0.0819 -0.0222  0.2588
17135W        W33609  12.963   5.518  12.055  0.0426 -0.0924 -0.2782
17136W        W33610   8.671  16.830  11.800  0.0839  0.1608  0.1400
17137W        W33611  13.687  19.350   0.464 -0.2612 -0.1416 -0.2011
17138W        W33612   2.099   6.381   5.310 -0.5144  0.0441  0.0292
17139W        W33613  11.997  11.099   2.608  0.1270 -0.1604  0.0808
17140W        W33614  16.775  19.243   1.060 -0.1983 -0.0244  0.3134
17141W        W33615  16.492  14.866   4.058  0.2513  0.1286  0.0555
17142W        W33616   6.051   0.496   0.249 -0.2052 -0.2013  0.2933
17143W        W33617   2.091  14.573   1.995 -0.0778 -0.1067 -0.2385
17144W        W33618   4.984   7.770  12.916 -0.2127  0.0814 -0.1120
17145W        W33619  19.413   7.500  13.204  0.1848 -0.1097 -0.0977
17146W        W33620  14.216   4.316  12.841  0.0189  0.1045 -0.0689
17147W        W33621  15.058  10.268  13.011 -0.0727 -0.0115  0.1499
17148W        W33622  11.245   5.950   2.901 -0.1575 -0.2474 -0.0829
17149W        W33623  16.442  17.070  13.785 -0.2042  0.1295 -0.1200
17150W        W33624  19.111  15.094   3.606  0.0256 -0.1923 -0.0485
17151W        W33625   8.632  17.051  12.274  0.0851 -0.0857 -0.2133
17152W        W33626  15.391   5.642   3.113 -0.1282  0.0926 -0.0460
17153W        W33627   5.595   8.522   0.624  0.0641 -0.1124  0.1324
17154W        W33628  18.655   3.296  14.264 -0.1591 -0.5333 -0.1263
17155W        W33629  16.331  10.201   4.569 -0.0795  0.1173  0.0037
17156W        W33630  12.891  19.483   9.041  0.0212 -0.0107  0.2206
17157W        W33631  10.045  12.326   5.095  0.0191  0.2811 -0.1321
17158W        W33632  10.676  11.926   5.250 -0.1862 -0.1327 -0.4597
17159W        W33633   4.644  14.473  14.306  0.0388 -0.2506  0.2648
17160W        W33634  14.405   1.420   3.721  0.0248  0.2206  0.0835
17161W        W33635  13.984  13.144   3.111 -0.2473  0.3657  0.1003
17162W        W33636   4.119   9.265  10.175  0.2198 -0.4350 -0.0768
17163W        W33637   2.524  11.015  13.957 -0.2958 -0.0097  0.0627
17164W        W33638  18.197   2.485   4.630  0.2013  0.2252 -0.1227
17165W        W33639   1.868   4.239   3.486 -0.0475 -0.1623  0.0996
17166W        W33640  12.817  18.505  10.810 -0.2215 -0.0228 -0.1407
17167W        W33641  11.923   5.636  12.558 -0.1168 -0.0196 -0.0126
17168W        W33642  15.821  11.387   3.392  0.0088  0.0592 -0.3618
17169W        W33643   9.774   6.547   1.958 -0.4828  0.2156 -0.0624
17170W        W33644  10.879   0.895  12.822  0.3129 -0.0170  0.0378
17171W        W33645  14.515   9.133   9.815  0.2019 -0.3905  0.0536
17172W        W33646  10.733  11.066   1.354  0.2911 -0.1786 -0.1746
17173W        W33647  11.607   4.216  14.535 -0.1129  0.0580  0.2762
17174W        W33648  16.128  16.419  13.012  0.2787  0.1613  0.3455
17175W        W33649  16.728  16.334  11.491 -0.0605  0.2546  0.2198
17176W        W33650   8.638  10.644   2.083 -0.1041  0.1807  0.2051
17177W        W33651   2.917   2.755  14.145  0.2965 -0.0246  0.3357
17178W        W33652   9.119  18.367  10.189  0.0959  0.0352 -0.0050
17179W        W33653  10.839  18.360   1.940  0.0931 -0.3501  0.0729
17180W        W33654  11.787  10.640   2.090 -0.2890 -0.0291 -0.0923
17181W        W33655  13.951  13.718  12.103  0.3424  0.1584 -0.2452
17182W        W33656   5.022   3.224  12.336 -0.1204 -0.3841 -0.2347
17183W        W33657  11.737  11.827  10.560 -0.1790 -0.0340 -0.0658
17184W        W33658   1.458  18.178   0.449  0.1815  0.1097  0.2524
17185W        W33659  13.340  12.836  14.719 -0.0837  0.2105 -0.3341
17186W        W33660  18.697   2.580   4.561  0.2082  0.0133 -0.2114
17187W        W33661  16.803   8.449   4.039 -0.0508  0.1548  0.0820
17188W        W33662  15.394   1.486  13.163 -0.3023  0.3064 -0.1304
17189W        W33663  14.664  14.833  11.659 -0.1155 -0.2162 -0.0550
17190W        W33664   2.708  11.539   1.304 -0.0226 -0.2676  0.0539
17191W        W33665   1.730   1.740   4.342  0.0040 -0.2488  0.3179
17192W        W33666   1.439   9.098   2.618 -0.0237  0.1794  0.2953
17193W        W33667  12.090  19.252   3.809  0.0921 -0.1416 -0.1990
17194W        W33668  12.935  17.367   4.376 -0.0385 -0.0289 -0.3911
17195W        W33669  15.077  15.232  12.264 -0.4002 -0.4668  0.1098
17196W        W33670  18.189   4.721   0.654 -0.0067  0.3572  0.0801
17197W        W33671  16.338   1.269   9.412  0.0791  0.2481 -0.0146
17198W        W33672  12.337  14.953  10.391  0.0071  0.1046 -0.5032
17199W        W33673   7.851   1.566   3.810 -0.0800  0.3666 -0.0822
17200W        W33674   9.875   3.174   3.509  0.3075 -0.0111  0.0766
17201W        W33675  13.528   9.819  14.554 -0.1043  0.0917  0.3425
17202W        W33676   0.719  17.206  12.544  0.1612  0.0345 -0.1800
17203W        W33677  16.736   4.728  12.333  0.0824  0.0044  0.1132
17204W        W33678   8.338   7.063  14.658  0.1576  0.0049 -0.0865
17205W        W33679   2.171   4.960   9.210 -0.0587 -0.1367  0.0771
17206W        W33680   3.428   9.146  12.068 -0.1247 -0.1509  0.2412
17207W        W33681   1.940   6.436   3.555 -0.0513  0.3353  0.0870
17208W        W33682   5.029  14.769  10.548  0.1945 -0.0101  0.3650
17209W        W33683   4.540   8.282   2.489 -0.1780  0.3572  0.0708
17210W        W33684  17.491   9.792   0.425  0.3127 -0.1202 -0.1000
17211W        W33685   2.994   7.489  10.301  0.2227 -0.1772  0.2782
17212W        W33686  14.967   4.878  13.081 -0.0540  0.0714  0.3580
17213W        W33687  13.558   5.772   1.915 -0.0587  0.0212  0.0226
17214W        W33688   7.688   6.971  13.136 -0.1816 -0.1501  0.0240
17215W        W33689   9.246   8.625  10.929  0.1595 -0.1686 -0.1036
17216W        W33690   6.425   5.477   1.430  0.2360 -0.1798  0.4796
17217W        W33691  13.838  12.261  13.710  0.1341  0.0765 -0.2565
17218W        W33692  16.374   7.320   5.180  0.1874  0.1460  0.0727
17219W        W33693   5.898  15.794   4.888 -0.0078 -0.1683 -0.0376
17220W        W33694  17.623  19.024   3.181 -0.4228 -0.0550 -0.1307
17221W        W33695   9.054   3.206   4.873  0.0610  0.0138 -0.0138
17222W        W33696   1.302  11.478   4.289 -0.1325 -0.1831  0.1297
17223W        W33697   9.178  11.842   9.489  0.0608 -0.3921  0.0100
17224W        W33698  14.984  14.630  13.034  0.3125 -0.0250 -0.0811
17225W        W33699  12.971   8.526   0.853  0.0677  0.0505  0.0256
17226W        W33700  16.383  19.391   1.999  0.4566 -0.3582 -0.0410
17227W        W33701   7.290   8.635   2.345 -0.0898  0.1663 -0.0862
17228W        W33702   5.180  15.543  13.864 -0.3523  0.1977  0.0055
17229W        W33703  13.297   4.901   4.039  0.0389 -0.1656  0.1698
17230W        W33704  12.062   6.168   3.161 -0.2504  0.0535  0.2898
17231W        W33705  10.499   5.266  13.515 -0.1863  0.2797  0.0280
17232W        W33706   7.302   3.563  13.144  0.1002 -0.3838 -0.2667
17233W        W33707  16.489   1.598   2.474  0.4415 -0.3518  0.0609
17234W        W33708   3.655   4.025  14.318  0.3105 -0.0867 -0.0949
17235W        W33709  14.138  10.685   2.349  0.4725  0.0541  0.0374
17236W        W33710  13.581  10.213   3.065  0.1778  0.0281 -0.1299
17237W        W33711  14.095   1.960  13.721  0.3801 -0.0259 -0.0064
17238W        W33712  15.931  17.647  10.903  0.0770 -0.0313  0.1635
17239W        W33713  14.385  15.875   2.985  0.0931 -0.0761  0.1948
17240W        W33714  12.509  10.829  13.149  0.2519 -0.1272  0.0970
17241W        W33715   1.363  18.758   3.023 -0.1603 -0.1660  0.1597
17242W        W33716   8.167   4.983  12.117 -0.1725  0.0779 -0.0870
17243W        W33717  17.472   0.257   2.438  0.0456 -0.1556 -0.1205
17244W        W33718   9.575  19.032  12.425 -0.0167 -0.0572  0.0735
17245W        W33719  15.081   8.729   2.799  0.2532  0.1660  0.0659
17246W        W33720  19.398  17.518  12.598  0.0516 -0.0845 -0.1220
17247W        W33721  14.695  13.322  11.752  0.3600 -0.0669  0.1321
17248W        W33722   5.600   1.613   1.040 -0.1916  0.0744  0.0199
17249W        W33723   2.047   4.738   2.098  0.0354 -0.2591  0.1593
17250W        W33724   5.991   7.642   4.061  0.0144 -0.1838 -0.0155
17251W        W33725   4.920   5.619   4.381 -0.1213 -0.2497  0.0391
17252W        W33726   8.779  12.399  10.160  0.3122  0.1283  0.2750
17253W        W33727  13.672  14.282   2.019 -0.1876 -0.0309  0.3172
17254W        W33728   9.533   7.756  13.898 -0.1491  0.3562 -0.0364
17255W        W33729   3.315   2.398   2.393  0.2103 -0.0340  0.0038
17256W        W33730   1.322  17.683   4.595  0.1664 -0.0490  0.0403
17257W        W33731  15.152  17.748  13.824  0.1148 -0.0719 -0.1819
17258W        W33732  14.140   8.529  14.558  0.1029  0.2117 -0.2946
17259W        W33733  16.061  12.014  10.341 -0.0526  0.1993  0.2424
17260W        W33734   3.343   5.983  14.176  0.0391  0.2777 -0.4040
17261W        W33735   8.027  10.777  12.076 -0.0102  0.0215 -0.2697
17262W        W33736   1.655  14.345   0.356 -0.1850  0.2660  0.0235
17263W        W33737   0.126   6.034  14.218 -0.1525  0.1856  0.0932
17264W        W33738   6.061   7.588   3.409  0.3029 -0.1053  0.0587
17265W        W33739  17.885  10.252  13.616  0.1408 -0.2538 -0.2419
17266W        W33740  18.394   1.867   2.787 -0.1565  0.0776  0.1934
17267W        W33741  17.759   0.756   3.916 -0.2550  0.1194  0.0623
17268W        W33742  13.076   0.583   0.432 -0.2590 -0.0822 -0.1594
17269W        W33743   5.287  12.775   2.697 -0.1576  0.2344 -0.1799
17270W        W33744   9.983  13.688   2.981 -0.1980 -0.1737 -0.2541
17271W        W33745  13.788   0.027   3.890 -0.1376 -0.2826  0.1574
17272W        W33746   8.821   3.197  12.572  0.0328  0.0123  0.0893
17273W        W33747   3.743   6.057  11.563 -0.0119  0.0326 -0.2396
17274W        W33748   2.347  18.769  14.071 -0.1483  0.1237  0.0788
17275W        W33749  14.996  13.384   2.745  0.0284  0.2028 -0.0780
17276W        W33750   1.741  16.069  12.712 -0.0793 -0.0991 -0.3582
17277W        W33751   9.578  18.261  14.536 -0.1904  0.0069 -0.3241
17278W        W33752   2.260  12.862   9.344 -0.1610  0.0826 -0.2520
17279W        W33753  11.545  11.324  12.649  0.2022  0.1008 -0.4500
17280W        W33754   8.780  14.252   0.768  0.0545  0.1454  0.2807
17281W        W33755   7.519   9.603   1.802  0.0495 -0.0023  0.2038
17282W        W33756   3.872   5.643  13.965 -0.1429 -0.2533 -0.0296
17283W        W33757  15.272   4.219   0.107  0.2728  0.1188  0.0113
17284W        W33758   9.005   5.609  14.699 -0.0172 -0.1516 -0.1657
17285W        W33759   1.512  13.255   0.088  0.0182  0.3631 -0.0218
17286W        W33760  14.198   2.909   0.351 -0.1709 -0.3611  0.1310
17287W        W33761  15.012  14.774  11.180 -0.2227 -0.1102 -0.3752
17288W        W33762   8.500  12.107   0.692  0.0327  0.2190 -0.0155
17289W        W33763   7.124  14.214   3.625 -0.2009 -0.1811 -0.0123
17290W        W33764  10.548  18.754  10.722  0.0746  0.0571 -0.0452
17291W        W33765   4.305   8.008  10.780 -0.0142  0.2755  0.3604
17292W        W33766  11.418  15.998  14.004  0.0749  0.0554  0.0806
17293W        W33767  12.663  15.458   0.012  0.2354  0.0523 -0.1934
17294W        W33768  14.315   4.208   2.055  0.1153 -0.0317  0.0459
17295W        W33769   3.965  17.488   1.117 -0.0537  0.1762  0.2479
17296W        W33770  11.261  15.064   0.718  0.2403  0.2484  0.0844
17297W        W33771  15.525  10.904   4.126  0.0896 -0.0656 -0.1436
17298W        W33772   0.434   0.468   1.126 -0.2348 -0.0812 -0.1137
17299W        W33773   8.862   4.175  12.193 -0.2147  0.2083  0.2312
17300W        W33774   3.319   3.608  11.853 -0.0712 -0.2885  0.0839
17301W        W33775  18.322   6.315   1.665  0.0099 -0.2270  0.1207
17302W        W33776   9.672   4.184  13.881 -0.1529  0.1195  0.1433
17303W        W33777   3.565   1.025  10.691 -0.0995  0.0228 -0.0795
17304W        W33778   7.460  12.142  12.343  0.0185  0.0439  0.0272
17305W        W33779  12.594  12.941   4.465  0.2226 -0.1313 -0.5286
17306W        W33780   2.291  12.906  12.168  0.1130  0.0390  0.2612
17307W        W33781   9.763  14.334   1.753 -0.2966 -0.0242 -0.1838
17308W        W33782  16.686  18.011   3.940 -0.0538 -0.0894  0.0046
17309W        W33783  10.758   8.784   0.098 -0.2088 -0.0628 -0.0035
17310W        W33784  17.999   9.760  10.668  0.0862  0.0190  0.0008
17311W        W33785   5.489  18.478  13.991  0.2760  0.3216 -0.0255
17312W        W33786  18.557  13.041   0.880  0.0257 -0.0264  0.0622
17313W        W33787   8.570   0.536  14.174  0.1599 -0.2959  0.2474
17314W        W33788  10.068  15.828  12.263  0.0612 -0.0673  0.2135
17315W        W33789   9.160   7.188  12.777  0.2316 -0.0813  0.2713
17316W        W33790  19.412  11.786  14.111 -0.0790 -0.3657 -0.0903
17317W        W33791   4.631   9.379  11.639 -0.2318  0.0401  0.3196
17318W        W33792   2.302   1.638   4.057 -0.0897 -0.1385  0.1300
17319W        W33793  13.730   1.968  12.883  0.0319  0.1323 -0.2287
17320W        W33794  15.788  10.484   4.351  0.0924  0.1321  0.4446
17321W        W33795   8.760  19.464  12.044 -0.1703 -0.1420 -0.0156
17322W        W33796   1.097  18.556   1.225 -0.1506 -0.1280  0.2220
17323W        W33797  10.220   9.203  12.788  0.2400 -0.0411  0.1079
17324W        W33798   5.092  11.353  10.628  0.2650  0.1563 -0.0642
17325W        W33799   6.169   6.749   0.292  0.0199 -0.1290 -0.0098
17326W        W33800  10.764  19.096  12.669 -0.2577  0.0332 -0.1266
17327W        W33801   4.716   3.868   2.298  0.1594 -0.0642 -0.1825
17328W        W33802  14.013   2.942   1.641  0.2232 -0.0069 -0.0624
17329W        W33803  17.063  14.428   0.562  0.1394  0.1176 -0.1222
17330W        W33804   3.705   4.449   1.942  0.0251  0.1176  0.0114
17331W        W33805   8.801  13.056  11.310 -0.0700 -0.1191  0.0649
17332W        W33806  13.960   7.522  11.738  0.5338 -0.2391 -0.0419
17333W        W33807  14.202   4.968   1.722 -0.1963 -0.1552  0.1439
17334W        W33808  14.658  19.266  13.389  0.1939 -0.2375  0.1082
17335W        W33809  13.324  11.817   2.652 -0.0233  0.0220 -0.1485
17336W        W33810   0.331  16.057  11.072  0.1963 -0.0199 -0.0918
17337W        W33811   0.181   4.559  12.391  0.1604  0.0042  0.0478
17338W        W33812   9.298  14.126   4.835  0.0157 -0.0367  0.3214
17339W        W33813   5.431   1.942   0.067 -0.1366  0.0582 -0.1632
17340W        W33814  12.215  11.653  14.155  0.0304  0.1913  0.2405
17341W        W33815   2.091   6.361   0.216 -0.3688  0.2718  0.3556
17342W        W33816   5.673  13.733  11.250  0.1648  0.3067 -0.0589
17343W        W33817   7.291  18.134   3.475 -0.4488 -0.0819  0.5040
17344W        W33818  14.484  17.726   1.308  0.0940 -0.1860  0.2277
17345W        W33819   4.158   3.292  12.048 -0.6314  0.2526  0.0074
17346W        W33820  13.421   5.905  14.274  0.3091  0.1866  0.2615
17347W        W33821  14.795   4.141  10.002 -0.1562 -0.2703 -0.2958
17348W        W33822   7.635  17.252   9.894 -0.1648 -0.0031 -0.2623
17349W        W33823   2.571  17.425   0.207 -0.0210  0.0781  0.2326
17350W        W33824   8.020  13.115  14.171 -0.1631 -0.3364 -0.1633
17351W        W33825  17.680   8.911   5.560  0.0786 -0.2763  0.3469
17352W        W33826  13.115   2.315   3.355  0.0799  0.2585  0.2430
17353W        W33827   7.619  11.708  12.163 -0.0844 -0.0510  0.1280
17354W        W33828  11.139  11.535  13.533 -0.3309 -0.1440 -0.0481
17355W        W33829   1.428   7.853  14.494  0.5381 -0.1429 -0.0745
17356W        W33830   7.352   7.259  14.521  0.0687 -0.1377  0.0779
17357W        W33831  14.454  12.997   0.820 -0.2308 -0.1571 -0.0788
17358W        W33832   9.975  15.861  13.343 -0.0360 -0.1555  0.0947
17359W        W33833  13.850  18.116   4.665  0.0365 -0.0577  0.3145
17360W        W33834   8.702  10.142  12.307  0.3420  0.0438 -0.3943
17361W        W33835  17.850   2.497  11.669 -0.2174 -0.1466 -0.0489
17362W        W33836   9.172   2.784   3.153 -0.0500  0.1344 -0.0224
17363W        W33837   3.960  17.086   1.723 -0.4427  0.0326  0.2314
17364W        W33838   8.713  13.574  10.989  0.0018  0.0967 -0.1054
17365W        W33839   6.032   9.164  10.804  0.3309  0.3727  0.1002
17366W        W33840   7.797  18.037   0.046 -0.0893  0.1533  0.0724
17367W        W33841  15.309   9.844  13.063  0.0004 -0.1974  0.1322
17368W        W33842   8.058  17.346   0.852 -0.4526 -0.0372  0.4130
17369W        W33843  13.948  13.537  14.392  0.2107 -0.0149 -0.1908
17370W        W33844  12.676  18.998   4.711  0.0455  0.1223  0.1926
17371W        W33845   6.784  14.991   1.204 -0.3102  0.1129  0.0453
17372W        W33846  11.173  16.468  14.383  0.0544 -0.0297  0.1960
17373W        W33847  17.003  15.459  11.199  0.0559 -0.0571  0.1363
17374W        W33848   4.305  19.492   0.951 -0.0099  0.0432 -0.0778
17375W        W33849   6.867   1.526   0.178 -0.4134 -0.0255 -0.0083
17376W        W33850   1.439  12.945   4.147  0.0443  0.0618 -0.2065
17377W        W33851  16.506   5.851   4.948 -0.0796 -0.0776  0.0624
17378W        W33852  15.381   8.761   4.164 -0.3318 -0.1494  0.1200
17379W        W33853   1.975  12.747   5.298 -0.2317  0.0482  0.0086
17380W        W33854  15.616  10.998  12.683  0.1121 -0.2944 -0.1628
17381W        W33855  10.928   9.653   5.486  0.2053  0.2019 -0.0694
17382W        W33856   2.522   2.366  11.374 -0.2240 -0.3059  0.0512
17383W        W33857   5.740   6.307   4.093  0.2468 -0.0780 -0.0264
17384W        W33858  16.300   5.328   2.835 -0.5519  0.1206  0.1112
17385W        W33859   0.402   7.973   4.300 -0.1398 -0.0893  0.1297
17386W        W33860  16.519   3.625   3.873  0.3056 -0.2608  0.1110
17387W        W33861   1.108  15.226  13.595  0.1553  0.1228 -0.1425
17388W        W33862   9.654   5.223   1.572 -0.2364  0.0905 -0.1026
17389W        W33863  10.000  18.443   4.331 -0.0258  0.0402 -0.2742
17390W        W33864   7.778  10.169   2.017 -0.0972  0.1711  0.2336
17391W        W33865   3.923   6.738   2.284  0.1588  0.2010 -0.1749
17392W        W33866  17.077   0.553   0.647 -0.1623  0.2397  0.0145
17393W        W33867  14.608   9.999   1.232  0.0052  0.0488 -0.0452
17394W        W33868  19.052  19.436  12.160  0.2291  0.0082  0.0122
17395W        W33869   1.586   7.210   4.213  0.0953  0.2814 -0.0476
17396W        W33870   4.079   0.827  10.537  0.1028  0.1359  0.1648
17397W        W33871   6.220   8.378  13.286  0.1181  0.2223 -0.1975
17398W        W33872   2.951  13.974  13.426 -0.2463  0.0119 -0.1141
17399W        W33873   0.145  11.272   3.101  0.0266 -0.1859  0.1473
17400W        W33874   8.340  19.048  13.547 -0.0981 -0.0972  0.0806
17401W        W33875   0.584   9.496   2.538 -0.1850  0.1831  0.0931
17402W        W33876  10.814  16.899   0.379 -0.4659  0.2839  0.0023
17403W        W33877   8.464  15.839   3.228 -0.2344 -0.0282 -0.1063
17404W        W33878   3.442  10.863   4.352  0.0880  0.0670 -0.3205
17405W        W33879   1.177   4.188   0.954  0.2466  0.4621 -0.2305
17406W        W33880   5.206  12.826  13.751  0.1577  0.0361 -0.1405
17407W        W33881   6.727   7.903  11.616  0.0233 -0.0910  0.1932
17408W        W33882   3.371  12.552   4.206 -0.1780  0.1761  0.0625
17409W        W33883  12.673   0.483  14.079 -0.1519 -0.0979  0.2399
17410W        W33884  15.953  18.132  14.392  0.2490 -0.0035  0.2000
17411W        W33885  17.917   8.297   4.750 -0.4228 -0.0774  0.5085
17412W        W33886  17.782   3.144   3.222  0.1405 -0.0858 -0.0179
17413W        W33887  11.542   0.457  13.417  0.0606  0.1245 -0.0129
17414W        W33888  15.974   9.545   2.114  0.1984 -0.4544  0.4199
17415W        W33889   8.077   7.097   1.628 -0.1538 -0.1770  0.2462
17416W        W33890  11.776   9.819   3.832  0.1203 -0.1505  0.4356
17417W        W33891  15.683  14.442   0.590  0.3495  0.2374 -0.0046
17418W        W33892  11.315  17.735  13.941  0.1177  0.1928  0.1861
17419W        W33893  16.521   1.521   0.090 -0.1832  0.0021  0.3218
17420W        W33894  13.736  15.676   3.936  0.2001  0.1197  0.0298
17421W        W33895  15.541   7.487   1.785 -0.1474  0.0019  0.4200
17422W        W33896   6.978   2.556   0.752 -0.2431  0.0099 -0.0324
17423W        W33897   4.051   3.793   0.838 -0.2661  0.1160  0.2397
17424W        W33898   8.508   4.520  12.190  0.2409 -0.1472 -0.2296
17425W        W33899   1.416  14.902   3.461 -0.1177  0.0015 -0.1429
17426W        W33900   5.253   3.116   3.301 -0.2246  0.0767 -0.0339
17427W        W33901  14.455  11.092  10.957 -0.1508 -0.0241 -0.1947
17428W        W33902   3.733  12.587  13.787  0.1445 -0.1891 -0.1390
17429W        W33903   7.542  14.922  14.210 -0.0124 -0.1173  0.4203
17430W        W33904   4.574   6.242  11.477 -0.2008 -0.0145 -0.0871
17431W        W33905   3.037   6.983  10.261 -0.4467 -0.2655  0.3865
17432W        W33906   9.886   9.887   2.911  0.1155  0.2552  0.0525
17433W        W33907  18.703   6.525   2.664 -0.3183 -0.0938 -0.0812
17434W        W33908  18.020  13.505   0.006 -0.0461 -0.0092 -0.2894
17435W        W33909   3.951   7.522  11.463  0.1780  0.0785  0.1164
17436W        W33910   5.461  11.871  14.172 -0.3890 -0.1909  0.3026
17437W        W33911   8.564   7.308   3.957 -0.0025 -0.1259 -0.2375
17438W        W33912  14.342   7.508  11.423 -0.0249 -0.1257  0.5070
17439W        W33913   8.377  16.405   4.889  0.0367  0.0784 -0.0624
17440W        W33914  12.491   3.411   3.343 -0.0392 -0.0119  0.0274
17441W        W33915  19.220   0.116  12.569 -0.0760  0.2196 -0.2080
17442W        W33916   7.062   9.397  11.094 -0.2905 -0.1531 -0.2945
17443W        W33917  10.726   4.815  13.844  0.1323  0.0596 -0.3429
17444W        W33918   9.183  13.185   4.809 -0.1438  0.2398 -0.1684
17445W        W33919   0.072  15.300   0.161 -0.1687  0.7158  0.1457
17446W        W33920  18.406   5.098  10.686 -0.0900 -0.1218 -0.0962
17447W        W33921  18.977  18.263   2.232  0.2482  0.1712  0.0835
17448W        W33922   8.940  16.289  10.401 -0.1048 -0.0128  0.0482
17449W        W33923   9.395  17.520   0.378 -0.2937 -0.0500  0.0984
17450W        W33924   7.841   4.759   9.976 -0.2028 -0.1349  0.1071
17451W        W33925  11.284  17.225   1.748  0.1581 -0.0576  0.0478
17452W        W33926   8.891  15.014   2.603 -0.0247  0.1893  0.1899
17453W        W33927  11.353   9.459  12.500  0.4660  0.1992 -0.1434
17454W        W33928   9.903   3.121   0.307 -0.0398 -0.2301  0.0943
17455W        W33929  11.607  16.360   2.191  0.1025  0.0329 -0.1856
17456W        W33930  16.459  18.088  13.677  0.0438 -0.2480 -0.1038
17457W        W33931  10.039  18.900  12.319 -0.2132  0.0878  0.2181
17458W        W33932  15.839  10.080   4.815  0.3432 -0.1297 -0.2982
17459W        W33933   8.326   0.793  10.659 -0.0917 -0.4299  0.2093
17460W        W33934   4.783   7.806   2.582 -0.2417 -0.1040 -0.0125
17461W        W33935  15.541  17.189  10.450 -0.1765  0.1629 -0.0977
17462W        W33936  14.921   1.481  10.890 -0.0391 -0.0851 -0.0908
17463W        W33937  14.791  12.050  10.759 -0.0857  0.1680 -0.0004
17464W        W33938  16.677   6.821  13.974 -0.0336 -0.2335  0.4884
17465W        W33939  16.551   9.583   1.164  0.1118 -0.1403 -0.1249
17466W        W33940   8.132   8.399   2.973 -0.1603 -0.2100 -0.0628
17467W        W33941  17.764   1.620   0.714  0.2200 -0.3221 -0.3382
17468W        W33942   9.938  18.537   0.702 -0.0387  0.1952  0.0062
17469W        W33943  14.365  18.467   4.081  0.0718  0.1726  0.1296
17470W        W33944  11.506   6.397   0.365 -0.3126  0.0922  0.3171
17471W        W33945   2.049   3.096   0.487 -0.0017 -0.2715 -0.0312
17472W        W33946   1.758   7.897  12.215  0.1670  0.2664  0.2674
17473W        W33947  13.209  12.471   0.745  0.0445  0.2829 -0.0705
17474W        W33948  12.964  10.418   5.017  0.0052 -0.1898 -0.0245
17475W        W33949   1.907   1.110  11.473  0.0998  0.1060 -0.2121
17476W        W33950   9.785   9.375   1.830 -0.2717  0.2954  0.1047
17477W        W33951   9.314   9.467   1.932  0.2711  0.0069  0.4006
17478W        W33952  11.379  10.155   5.966 -0.1105 -0.2454 -0.0151
17479W        W33953  12.136  17.009  11.029 -0.0460  0.0156  0.2922
17480W        W33954  17.828  14.028  13.031  0.0717 -0.2837 -0.3188
17481W        W33955   5.344   8.178   3.280  0.0932  0.1956  0.1603
17482W        W33956  18.186  17.386  14.225 -0.2274 -0.0502 -0.0414
17483W        W33957   9.715  19.302   2.994 -0.0305 -0.3091 -0.2765
17484W        W33958  12.090  13.211   4.163 -0.0724  0.2600  0.1735
17485W        W33959  15.462  10.481  11.333  0.0973 -0.1210  0.0099
17486W        W33960   4.646   2.310   3.948 -0.4298 -0.0935  0.1374
17487W        W33961   3.595  13.471  14.403  0.1209 -0.3520  0.0567
17488W        W33962  10.623  17.219   3.830 -0.1012  0.3426  0.3416
17489W        W33963  10.858  10.193   0.875  0.0363  0.3436 -0.0644
17490W        W33964  16.040  10.774  13.973 -0.2503  0.1579  0.1021
17491W        W33965  14.743   5.254  12.809  0.2024  0.1019  0.0131
17492W        W33966  14.230   6.827   5.671  0.7065 -0.1753 -0.0295
17493W        W33967   9.431  12.822  12.225  0.3498  0.2342 -0.1805
17494W        W33968   5.487   2.435   2.391  0.1877 -0.1142  0.1025
17495W        W33969   8.100   4.040  12.659 -0.5292 -0.1118  0.0817
17496W        W33970  17.148  15.031  11.678 -0.0114 -0.0471 -0.0776
17497W        W33971   1.575  12.020   1.290 -0.2343 -0.0482  0.0720
17498W        W33972   0.903  11.817  13.674 -0.1542  0.2556  0.3840
17499W        W33973  10.734  14.240  13.777  0.1228  0.2277 -0.1209
17500W        W33974  13.788  18.894   0.211 -0.2026 -0.2992 -0.0541
17501W        W33975  18.960  18.919   3.443 -0.0369  0.1359  0.0202
17502W        W33976   5.621  13.752  12.731  0.3135 -0.3194 -0.1621
17503W        W33977  16.747   7.120   0.978  0.2169  0.0977 -0.0906
17504W        W33978  18.238   6.544   2.926  0.0346 -0.0571  0.1190
17505W        W33979  12.560  11.711   0.404  0.0797  0.1270  0.0664
17506W        W33980  17.815   0.051   4.502 -0.0041  0.1287 -0.1060
17507W        W33981  12.473  16.633  14.608  0.6143 -0.1501 -0.1827
17508W        W33982   8.411  19.463   3.274 -0.3034 -0.2154  0.2072
17509W        W33983   3.588   7.587   3.401 -0.3503  0.0842  0.0078
17510W        W33984   5.671   4.414  14.296 -0.3766  0.1503  0.1103
17511W        W33985  18.010   6.173   0.742  0.1279 -0.3226 -0.1382
17512W        W33986   6.067  15.531  10.184 -0.0158 -0.1101  0.1899
17513W        W33987   9.025  18.195   1.533 -0.1608  0.0327  0.2510
17514W        W33988   4.559  14.138  11.635  0.1619 -0.2317 -0.2269
17515W        W33989   0.998  16.417   0.237  0.1369  0.0319  0.0993
17516W        W33990   1.026  19.389  14.137 -0.0562 -0.0756  0.0437
17517W        W33991   0.728   4.717   1.064 -0.1515 -0.1448 -0.1259
17518W        W33992  17.879  17.771   3.202 -0.0180  0.0823  0.2097
17519W        W33993  13.822  16.533   3.503  0.2017  0.0944 -0.0767
17520W        W33994  14.404  19.273  14.657  0.2388 -0.1602  0.1683
17521W        W33995   0.530   9.689   3.020 -0.0107  0.3652  0.2426
17522W        W33996   0.096  11.589  12.359  0.1305  0.0237  0.1528
17523W        W33997  17.481   5.553  11.322 -0.3152 -0.1554  0.0543
17524W        W33998   0.488   5.931   1.109  0.2515  0.0407 -0.4588
17525W        W33999   4.100   1.602   8.934 -0.2216 -0.1441 -0.0243
17526W        W34000   2.745   6.770   4.729  0.1059  0.2495 -0.0358
17527W        W34001   3.933  12.355   5.344 -0.0065  0.0564  0.3415
17528W        W34002  18.645   9.618   0.235  0.0038  0.0065  0.2676
17529W        W34003  12.749  10.914  13.679 -0.1568 -0.2406 -0.1486
17530W        W34004  13.238   1.955  14.196 -0.1738  0.2470 -0.0077
17531W        W34005   7.155   3.347  11.805 -0.1776  0.0560 -0.1381
17532W        W34006  15.850  13.509   3.527  0.0281 -0.1961  0.0064
17533W        W34007  15.427   1.616   5.199  0.1201 -0.2544 -0.0890
17534W        W34008   1.483   2.208  12.250  0.0335 -0.0671 -0.1976
17535W        W34009   7.577   2.990   4.647 -0.0855  0.0716  0.0549
17536W        W34010  19.118   3.197   5.210 -0.1407  0.0760  0.0881
17537W        W34011   9.224  10.348   0.490 -0.1948  0.0825  0.0227
17538W        W34012  10.778  19.356  11.268  0.1361  0.0502  0.0478
17539W        W34013   3.048   1.115   0.019  0.0340  0.2562 -0.0018
17540W        W34014   2.516   6.159  13.088  0.0042 -0.1362 -0.0961
17541W        W34015  10.967  13.581  11.520 -0.2600  0.2412 -0.3499
17542W        W34016   8.281  14.890  13.706 -0.0889  0.0582  0.0675
17543W        W34017  13.343  11.457  11.118  0.0967 -0.0177  0.1613
17544W        W34018  15.858  15.723   3.540  0.1659  0.2588  0.0760
17545W        W34019   3.114  10.087   4.777  0.0126  0.0843  0.0919
17546W        W34020  11.396  13.043  14.269 -0.0613 -0.0370 -0.2025
17547W        W34021  19.392  11.162  11.780  0.2765  0.0677  0.2297
17548W        W34022   8.476   6.470  11.666  0.1431 -0.0589  0.1934
17549W        W34023  13.387  12.614   1.888 -0.2177  0.1041  0.2185
17550W        W34024  13.823  16.033   1.557  0.1519  0.2063  0.1918
17551W        W34025   3.483   1.517  10.792  0.2355  0.3699 -0.0219
17552W        W34026  13.449  15.516   5.414  0.2311  0.1774  0.2341
17553W        W34027   3.678  14.075   4.972 -0.1016 -0.2097 -0.2114
17554W        W34028  16.076   0.048  10.353 -0.1815  0.0226 -0.2694
17555W        W34029  10.996   9.805  12.579 -0.3595  0.1700  0.0565
17556W        W34030   8.979  16.529   4.916  0.0812 -0.1180  0.2750
17557W        W34031   4.889  12.208   1.467 -0.2444  0.2468  0.1313
17558W        W34032   3.595   1.582  11.287  0.4786  0.3393 -0.3103
17559W        W34033   0.522  14.648  10.121 -0.3652 -0.1142 -0.0746
17560W        W34034  10.379  19.579  11.655 -0.0432  0.2571  0.3114
17561W        W34035   7.557  15.443   1.915 -0.1878  0.0701  0.0188
17562W        W34036   8.450  16.418  13.603  0.4755 -0.1276  0.1762
17563W        W34037  18.744   5.333   3.254 -0.0696 -0.0375 -0.0750
17564W        W34038   0.653   1.232  13.718  0.1297  0.3009 -0.0293
17565W        W34039   6.724   1.236   4.308  0.0567  0.0764 -0.2377
17566W        W34040   8.128  17.998  10.468  0.3727 -0.4831 -0.3136
17567W        W34041  18.433   3.201   0.990  0.1732  0.0160  0.1137
17568W        W34042  14.708  19.154   1.063  0.1323  0.0663 -0.3781
17569W        W34043   5.308  19.441   0.297  0.1829  0.0367 -0.1776
17570W        W34044   7.366   4.079   5.435  0.1123  0.1422 -0.1701
17571W        W34045   1.129   3.054  11.736  0.0956 -0.0760  0.2132
17572W        W34046   0.230   0.049  12.322 -0.0470  0.2360  0.0209
17573W        W34047   7.731  13.032  11.750 -0.2252 -0.2085  0.0056
17574W        W34048   3.247  11.498   3.323 -0.1162  0.1145 -0.2278
17575W        W34049  14.128   5.280   1.010  0.1894  0.1506  0.0182
17576W        W34050  11.844   4.003   4.489 -0.0252 -0.0480  0.3152
17577W        W34051  11.256   7.967  12.412 -0.2074 -0.2671 -0.1385
17578W        W34052  14.376   9.334  13.190 -0.3433 -0.1794  0.1168
17579W        W34053   2.069  10.845  13.670 -0.2049 -0.1908  0.0134
17580W        W34054   3.503  18.063  14.674  0.1671 -0.1072 -0.2237
17581W        W34055   3.595  18.831  11.363  0.3574 -0.0590 -0.1027
17582W        W34056   4.908   1.241  14.466  0.1555 -0.1940  0.0941
17583W        W34057   1.082   0.924   4.621  0.1656  0.0098  0.0729
17584W        W34058   3.484  11.357  14.548  0.3335  0.1508 -0.0003
17585W        W34059  13.754   4.109  10.806 -0.3074 -0.1722  0.0565
17586W        W34060   0.988   0.817  13.238  0.0052 -0.2315 -0.3373
17587W        W34061  15.926   4.717   5.882  0.1127  0.2008 -0.0652
17588W        W34062   7.884  18.927   0.188 -0.0890 -0.0191 -0.0017
17589W        W34063   7.313   5.059   2.173  0.0757 -0.3554  0.0632
17590W        W34064  18.310  15.617  10.242 -0.3531  0.1338  0.3751
17591W        W34065  17.022  13.454   2.314  0.1671 -0.0241 -0.1633
17592W        W34066   9.183   2.490  10.682 -0.0280 -0.0028 -0.1572
17593W        W34067  12.897   6.059  14.290 -0.0835 -0.1485 -0.1642
17594W        W34068   3.623   3.292   2.254  0.2598  0.3076  0.1763
17595W        W34069  12.866   1.204   0.075 -0.0243  0.1634  0.0817
17596W        W34070   6.429  11.936   0.127 -0.0005 -0.0171 -0.2004
17597W        W34071  14.379  10.128   2.626  0.2666 -0.1935 -0.0112
17598W        W34072   0.644   0.145   1.499  0.0941  0.1073  0.1128
17599W        W34073  14.003  16.707   3.064 -0.3568  0.0773  0.3427
17600W        W34074  10.803   8.461  10.524  0.2192  0.2436  0.0175
17601W        W34075   5.247   5.928   0.081  0.1470  0.4350 -0.0740
17602W        W34076   7.977  15.574   0.559  0.2394  0.0622  0.3302
17603W        W34077   1.682   6.745  12.049  0.1587 -0.1169  0.1219
17604W        W34078  14.958  10.128   4.210 -0.1219 -0.0873 -0.0240
17605W        W34079   8.273  14.344  14.602  0.1918 -0.1980  0.3481
17606W        W34080  19.317  14.213   3.362 -0.1502 -0.0283  0.4085
17607W        W34081   8.963  14.381   5.064 -0.0758 -0.2848  0.0012
17608W        W34082   1.310   3.784   2.757 -0.0560 -0.2343 -0.0351
17609W        W34083   5.765   2.123   5.850  0.3068 -0.3764  0.2080
17610W        W34084   3.814   3.298   4.874  0.1935 -0.0297  0.0370
17611W        W34085  13.987   5.228   3.713  0.5100  0.0125  0.1512
17612W        W34086  11.426  19.300  13.327  0.1624 -0.4326  0.1298
17613W        W34087   6.408  11.562  12.906  0.2645  0.4634 -0.1943
17614W        W34088   1.576   5.675  13.931  0.1879 -0.1474  0.2499
17615W        W34089   4.562  16.850   2.336 -0.0625 -0.0133 -0.0942
17616W        W34090  16.847   7.407   5.054  0.1141 -0.5703  0.0167
17617W        W34091   4.577  18.377  14.324  0.0452  0.0634  0.0558
17618W        W34092  11.272  13.592  10.495 -0.0641 -0.0294  0.0123
17619W        W34093   5.072  18.729   5.176 -0.0115 -0.0153 -0.0252
17620W        W34094   2.675  14.714   3.232 -0.2265 -0.1444  0.2715
17621W        W34095   2.417  14.535   0.693 -0.1222  0.2001 -0.1013
17622W        W34096   9.325  14.182  11.954 -0.1043  0.1645 -0.1625
17623W        W34097  13.590  10.690   3.263 -0.0032 -0.2204  0.0841
17624W        W34098   4.485   9.425   3.619 -0.0895 -0.0731  0.0019
17625W        W34099  17.804   2.937   2.352 -0.0717 -0.1030 -0.2170
17626W        W34100   4.617  13.000  10.707 -0.1208  0.0535  0.0152
17627W        W34101   5.172   2.062   1.831  0.0795 -0.1648  0.2151
17628W        W34102  13.818  14.206   4.689 -0.1544  0.2368 -0.1239
17629W        W34103  17.487  19.582  13.777  0.0395  0.1736 -0.1114
17630W        W34104  10.619   8.122   3.115 -0.0531  0.2763  0.4096
17631W        W34105  13.727   9.997  12.683  0.0837 -0.1448  0.3017
17632W        W34106   1.570  19.517   3.891 -0.2508  0.1710 -0.1723
17633W        W34107   1.285  12.300  10.567 -0.4429  0.1228 -0.0242
17634W        W34108   2.624   4.477  13.537  0.1908  0.0777 -0.0931
17635W        W34109  15.312  12.897   3.967  0.0370 -0.1827  0.1409
17636W        W34110  15.360  11.159   1.173 -0.0095  0.0772 -0.2329
17637W        W34111   8.484   4.911  11.728 -0.0871 -0.2883 -0.3528
17638W        W34112  11.150  16.141  10.681  0.1987 -0.0584  0.1060
17639W        W34113  17.175   0.716  12.004  0.2573 -0.0536  0.0587
17640W        W34114  12.320  10.496  10.082  0.2841 -0.2928 -0.3249
17641W        W34115  16.493   2.144   2.526 -0.1494 -0.0432 -0.1867
17642W        W34116   5.163  17.900   1.073 -0.1321 -0.2482  0.0157
17643W        W34117  19.541   1.442  11.332  0.2312 -0.1463 -0.0495
17644W        W34118  11.694  19.209  12.895 -0.0976  0.0534 -0.1771
17645W        W34119  15.960  18.032   2.992  0.0033  0.1475 -0.5422
17646W        W34120   8.592   2.595   9.585  0.0452 -0.2349  0.0787
17647W        W34121   4.891   5.102   2.605  0.2173  0.3325 -0.0180
17648W        W34122  19.085   3.459  11.943 -0.0067 -0.1898  0.0335
17649W        W34123   8.877   8.210   1.802  0.4050 -0.0434  0.0886
17650W        W34124  13.748  18.068   1.124 -0.2010  0.3446 -0.1113
17651W        W34125   3.871   9.133   9.778 -0.1324  0.1439  0.1907
17652W        W34126  10.118  13.932  11.612 -0.1865  0.1423 -0.2765
17653W        W34127   1.857  15.927   9.470 -0.1542  0.2390  0.2246
17654W        W34128   9.698  12.048   3.869 -0.0091  0.1224 -0.0344
17655W        W34129  11.121   1.415   2.084 -0.2701 -0.4287 -0.2118
17656W        W34130   1.774   8.541  12.073 -0.1917 -0.0623 -0.1599
17657W        W34131   2.555   9.343   3.983  0.6623 -0.1940  0.0730
17658W        W34132   9.729   1.696   1.726 -0.0468 -0.0672  0.1684
17659W        W34133   3.733   8.693   2.606  0.0370  0.1488 -0.2546
17660W        W34134  12.189   5.327   0.988  0.0013  0.1948 -0.1253
17661W        W34135  15.295   8.834   0.523 -0.0861  0.0112 -0.1265
17662W        W34136   6.446   2.543  11.946  0.0068  0.0730 -0.1203
17663W        W34137  12.181  16.247  13.412  0.1056 -0.0635 -0.3497
17664W        W34138   8.548   4.310   4.369  0.3337 -0.0153 -0.0962
17665W        W34139   1.435  19.314  13.166 -0.2099  0.2289 -0.0547
17666W        W34140  11.251  18.584  11.180  0.2229 -0.0827  0.3207
17667W        W34141   9.978   2.778   9.473  0.1855 -0.0989 -0.0655
17668W        W34142   0.924   7.780  13.524 -0.3364  0.1706 -0.0071
17669W        W34143   7.344  12.672   0.002 -0.2851  0.2094  0.0255
17670W        W34144   3.847  15.800   3.125  0.0875 -0.0796 -0.2821
17671W        W34145  15.854  11.657  13.431 -0.1379 -0.1200 -0.0839
17672W        W34146   7.123   7.238  14.044  0.1008  0.2878 -0.0809
17673W        W34147   0.377  13.910   0.785  0.2322 -0.0333 -0.2469
17674W        W34148  18.689  11.398  11.903 -0.0087 -0.1931 -0.2848
17675W        W34149   8.460   8.061   5.066  0.1736 -0.0347  0.2110
17676W        W34150  17.441   3.845   0.719 -0.0653 -0.1876  0.0048
17677W        W34151  13.732   8.440  12.851  0.3182 -0.1059  0.1396
17678W        W34152   0.541   9.512  13.317  0.1533  0.0146 -0.2705
17679W        W34153  15.771  11.768  13.964  0.0613  0.1205 -0.1484
17680W        W34154   2.936  15.758   0.304 -0.0160 -0.0857 -0.1114
17681W        W34155   0.982  14.713   2.522  0.0915  0.3610 -0.3925
17682W        W34156  14.365   3.828  10.912  0.0558  0.2309 -0.0520
17683W        W34157   4.137  12.311  10.335 -0.2049 -0.0500 -0.0067
17684W        W34158   7.461   4.078   1.458  0.0746  0.1154 -0.1567
17685W        W34159   6.310  14.533  11.164 -0.2726  0.3575  0.2147
17686W        W34160  10.024   9.019   1.501  0.1969  0.1813 -0.1192
17687W        W34161   0.927   4.709   1.567 -0.2183 -0.1050 -0.1921
17688W        W34162   7.387  19.388   2.857  0.1106  0.0819 -0.1741
17689W        W34163  17.458  14.603  11.647 -0.4082  0.1497  0.0269
17690W        W34164   1.287   9.343   1.420 -0.2349  0.0561 -0.2730
17691W        W34165  15.141  19.115   0.502  0.0120  0.1334 -0.2717
17692W        W34166  12.923   7.159   1.959  0.0570  0.3560  0.1905
17693W        W34167   6.229   6.286  12.310  0.0642 -0.2733  0.3288
17694W        W34168  12.212   3.025  14.008 -0.0648  0.3312 -0.0771
17695W        W34169  19.478  11.895   9.752 -0.0918  0.2987 -0.4620
17696W        W34170  18.502   7.994  14.001 -0.2599  0.1084 -0.1669
17697W        W34171   4.895   9.615   1.964 -0.0406 -0.2083 -0.2224
17698W        W34172  10.598   1.484   2.061  0.1298 -0.0695  0.0503
17699W        W34173   0.021   1.841  14.415  0.0245 -0.2124  0.0474
17700W        W34174   7.910  14.330   0.594  0.3218  0.0530 -0.1265
17701W        W34175   9.316   0.826   1.525  0.0612 -0.2872  0.3618
17702W        W34176  18.033  14.600   2.971 -0.4396  0.0595 -0.1610
17703W        W34177  10.274   9.658   0.245  0.2791 -0.0705 -0.2780
17704W        W34178   2.715   3.474  13.523 -0.0854 -0.0509 -0.3880
17705W        W34179  18.615  19.355   4.717 -0.0132  0.1142  0.0038
17706W        W34180  10.532  18.789  12.360  0.1410 -0.0901 -0.1106
17707W        W34181  13.229  17.380  11.855  0.0269  0.3018  0.2408
17708W        W34182  11.960   1.432  12.597  0.0740 -0.2133 -0.1697
17709W        W34183  12.479   1.519   0.939 -0.0140 -0.1162  0.2231
17710W        W34184   1.100  14.218  12.838 -0.1461  0.0606  0.3265
17711W        W34185  14.279   4.455   3.632 -0.4934  0.0057  0.0778
17712W        W34186   9.887   5.765   1.636 -0.1433  0.0153  0.0386
17713W        W34187  10.548  10.182   1.509  0.0810  0.1800 -0.0526
17714W        W34188  11.405   1.055   2.307 -0.2615  0.1499 -0.2789
17715W        W34189   0.159  11.125   4.046 -0.0279 -0.0541 -0.1478
17716W        W34190  10.010  16.358  12.971 -0.0771  0.0205  0.0927
17717W        W34191   3.209   3.507   2.111  0.2646 -0.0032  0.3945
17718W        W34192   4.253  14.368   9.773 -0.2142 -0.2828  0.2733
17719W        W34193  18.443   6.669   3.970 -0.0099 -0.3654 -0.0777
17720W        W34194  10.318   0.120  11.006 -0.1864 -0.1108 -0.0992
17721W        W34195  17.204   0.388   3.375 -0.0504  0.3106 -0.2018
17722W        W34196   2.391   8.519  10.368  0.3204 -0.0348  0.2136
17723W        W34197  16.161  17.159  13.305 -0.3867 -0.1287  0.5466
17724W        W34198  17.489  19.563   0.070 -0.0856  0.0614  0.1025
17725W        W34199  18.757   8.720   2.764 -0.2668 -0.2557 -0.2525
17726W        W34200   5.923  12.002   1.983 -0.1563  0.2225 -0.1919
17727W        W34201  17.075  10.843   2.393  0.0306 -0.2113  0.0831
17728W        W34202  12.389   7.846   3.175  0.2192  0.1248  0.1641
17729W        W34203   4.478  18.504  10.525 -0.2735 -0.0210  0.1008
17730W        W34204   7.291   0.543   3.465  0.1251 -0.0962  0.2492
17731W        W34205  13.925  18.182   0.700  0.2106 -0.4143  0.0493
17732W        W34206  13.088  13.263  12.041 -0.2108  0.1274  0.1290
17733W        W34207  12.342  18.058   0.093 -0.0823 -0.1409 -0.1101
17734W        W34208   4.719   1.934   2.486  0.2331 -0.1841 -0.0578
17735W        W34209  11.105   1.579  14.719 -0.0692  0.2759  0.1155
17736W        W34210   3.436   2.731  11.836  0.2417  0.0253  0.2154
17737W        W34211   4.896  12.911  12.879 -0.1948 -0.1114  0.0555
17738W        W34212  12.781   4.659   5.784  0.1721  0.2772  0.1679
17739W        W34213  16.091  15.000  10.622  0.1169 -0.0863  0.0343
17740W        W34214  12.717   7.434   5.530 -0.0739  0.3069 -0.3282
17741W        W34215   6.231  17.500   1.064  0.1692 -0.0316 -0.0074
17742W        W34216  16.518   4.930  11.306  0.2150 -0.1871 -0.0531
17743W        W34217  10.735  10.853   3.337  0.0185 -0.0507 -0.0918
17744W        W34218  13.864  11.272   0.609  0.1847 -0.2312  0.2488
17745W        W34219  14.906  13.011  12.929 -0.1189  0.1143 -0.0192
17746W        W34220  12.819  16.548   0.904  0.2888  0.0296 -0.1984
17747W        W34221   4.614   1.231   9.750 -0.1061  0.0784 -0.4357
17748W        W34222  12.769  16.273   3.741 -0.0357  0.0963 -0.2132
17749W        W34223  16.345   9.664  14.264 -0.0281 -0.0853  0.1286
17750W        W34224   4.498  13.464   9.857 -0.1034 -0.1202 -0.0921
17751W        W34225  14.571   6.833  10.846  0.2460 -0.0118  0.1278
17752W        W34226  13.655   0.727   2.679 -0.0658  0.0982  0.1593
17753W        W34227   5.515  18.833  10.232 -0.0598 -0.1205  0.2107
17754W        W34228  14.043   4.265  11.197  0.0107  0.1455  0.2373
17755W        W34229  15.260   1.419  12.512 -0.1222  0.1412 -0.0206
17756W        W34230  12.259  18.510   2.725 -0.2556 -0.2819  0.0093
17757W        W34231  15.475   9.246   4.062 -0.0059 -0.2883 -0.2017
17758W        W34232   6.562  15.137  13.786 -0.2444  0.2775 -0.2021
17759W        W34233  15.900  18.906  13.421  0.5761  0.0852 -0.2583
17760W        W34234  10.357  17.260  14.280  0.0825 -0.2603  0.1822
17761W        W34235   7.406  18.264  11.627  0.2025  0.0024 -0.1166
17762W        W34236  14.508   2.939  12.733  0.0069  0.4099 -0.0836
17763W        W34237   7.550   8.413  12.780  0.1366 -0.2813 -0.4005
17764W        W34238   9.492  19.054  11.004 -0.0981  0.0092 -0.0933
17765W        W34239  16.203   4.063   5.277 -0.0048  0.1009  0.1852
17766W        W34240  18.409  18.605   4.343  0.1029 -0.1783 -0.2388
17767W        W34241  16.743   2.610  13.582 -0.2762  0.3443 -0.0293
17768W        W34242  12.656  12.523  11.609  0.3279  0.1153  0.3966
17769W        W34243   1.956  12.964   0.677  0.0587  0.3043 -0.0930
17770W        W34244   4.845   9.834   2.860 -0.1306 -0.1617  0.0008
17771W        W34245   7.882  19.347   3.470  0.2291 -0.5624 -0.0965
17772W        W34246   8.481  14.283  10.950 -0.5021  0.4190  0.1887
17773W        W34247   1.081  18.973  14.624 -0.0573 -0.2590  0.0862
17774W        W34248  18.879   3.620   5.223  0.1162  0.1143  0.0089
17775W        W34249   6.183   8.504   3.824  0.0665  0.0298 -0.1757
17776W        W34250   0.367   2.668  14.411  0.0383 -0.2236  0.1304
17777W        W34251   7.207  16.135  12.368  0.1039  0.1181  0.3421
17778W        W34252  18.649  10.435  13.720 -0.0975  0.1371 -0.3218
17779W        W34253  15.936   9.689   0.489 -0.1315  0.0009 -0.0061
17780W        W34254  13.796  19.071   4.624  0.3070  0.2697  0.1319
17781W        W34255   6.010   0.325  13.685 -0.0615  0.1340  0.2783
17782W        W34256   7.875  13.580   2.705  0.0668 -0.0170 -0.1649
17783W        W34257   4.589   9.857  12.098 -0.1814  0.0317 -0.0554
17784W        W34258  15.870   3.685  12.122 -0.2555  0.0916 -0.2302
17785W        W34259   8.062  10.898  11.026 -0.1278  0.0715  0.1106
17786W        W34260  18.735  11.800  11.184 -0.4967 -0.0969  0.2756
17787W        W34261   5.292  15.881  12.668  0.1281  0.0957  0.2241
17788W        W34262   1.454   7.107  11.068  0.0244 -0.3630 -0.4446
17789W        W34263   0.641   5.566  12.051  0.0958  0.1063 -0.2854
17790W        W34264   4.753  15.386   9.809  0.3272 -0.1118 -0.3080
17791W        W34265   8.321   2.035   3.180  0.0872  0.2503  0.0108
17792W        W34266  18.663   9.236  13.838 -0.1195  0.3042 -0.0622
17793W        W34267   2.781  13.082   9.290  0.0908 -0.1550 -0.3951
17794W        W34268  15.441  19.172   1.948 -0.0722  0.2060  0.1482
17795W        W34269  14.538   0.911   1.148 -0.1396 -0.0762 -0.2550
17796W        W34270  14.125   5.869  10.843  0.0052 -0.1199  0.0258
17797W        W34271   2.962   1.748  11.989 -0.0656  0.1756  0.1723
17798W        W34272  14.198   0.006   3.562  0.3304 -0.0126  0.1128
17799W        W34273  13.323   8.187  12.665 -0.1146  0.0931 -0.2462
17800W        W34274  12.706   4.430   2.227  0.1616  0.1246 -0.0384
17801W        W34275   7.071   7.830   4.810 -0.1678  0.1146  0.0076
17802W        W34276   4.886   9.055  13.171 -0.0160 -0.1128 -0.1644
17803W        W34277  11.100  18.428  12.886 -0.2859 -0.1271 -0.1617
17804W        W34278  11.623  18.282  11.319 -0.0734  0.1514 -0.1016
17805W        W34279   0.063  16.974   1.322 -0.0879 -0.1084  0.1517
17806W        W34280   5.865   1.741  11.006  0.3010 -0.1645 -0.1496
17807W        W34281   0.612   5.076  12.463 -0.0110 -0.1200  0.2216
17808W        W34282   1.913  10.572  10.437 -0.3685  0.1598  0.0447
17809W        W34283   6.503   9.177  10.996  0.2069  0.1473  0.0755
17810W        W34284   5.947   5.411  11.595 -0.1990  0.3228  0.1452
17811W        W34285   6.972   3.486  12.727 -0.0345  0.0434 -0.0827
17812W        W34286  13.097   0.017   1.007  0.0737 -0.3144 -0.1236
17813W        W34287  19.140   7.864   1.736  0.1028 -0.0369  0.0043
17814W        W34288  19.219   1.350   3.851 -0.1639 -0.1762 -0.0279
17815W        W34289   4.579  12.434   2.848 -0.0819 -0.3688  0.2032
17816W        W34290  10.770   5.524   1.283 -0.5947  0.0476  0.0159
17817W        W34291   8.955  11.105   3.710  0.2641 -0.2192 -0.0757
17818W        W34292   0.331  13.500   2.495  0.0623 -0.0616  0.0978
17819W        W34293  12.351   2.064   1.028 -0.2341 -0.2727  0.0838
17820W        W34294   8.920  15.157   4.431  0.0906  0.3020  0.3121
17821W        W34295   2.873  13.547  10.926  0.2445  0.6687 -0.0804
17822W        W34296   6.753   2.077   0.774 -0.0769  0.1141  0.1106
17823W        W34297  14.859   7.448  14.591 -0.1713 -0.1148 -0.2309
17824W        W34298  12.530  17.000   1.956  0.3079  0.0339 -0.0400
17825W        W34299   1.759   4.228  13.437  0.4618  0.0281  0.0444
17826W        W34300  14.235   7.070  11.716  0.0028  0.4993 -0.0111
17827W        W34301  11.639  12.415  12.078 -0.4433  0.0556  0.1405
17828W        W34302   2.391  19.192  10.714 -0.1243  0.2591 -0.1385
17829W        W34303  11.067  13.586   0.176 -0.1680 -0.0418  0.2347
17830W        W34304   3.258   7.578  11.003  0.1256  0.1127 -0.2928
17831W        W34305  18.690  16.828  12.972 -0.1526 -0.0241 -0.1867
17832W        W34306   8.731  15.168  13.657 -0.2013 -0.2932 -0.2188
17833W        W34307  18.156   5.796  10.258  0.2508 -0.1317 -0.3797
17834W        W34308  15.323   0.358   5.094 -0.1289 -0.0954 -0.0955
17835W        W34309   9.697  15.739  11.927 -0.0517 -0.1684  0.1583
17836W        W34310  16.263   4.952  14.454 -0.0031  0.3991 -0.0845
17837W        W34311   7.220   0.723   0.263 -0.0949  0.2938  0.1420
17838W        W34312  16.467  13.182   4.408  0.1323 -0.0789 -0.0008
17839W        W34313   5.719  15.845  12.334  0.1668  0.1254  0.3881
17840W        W34314   1.578   1.153  13.818 -0.0442  0.0016  0.0779
17841W        W34315  11.306  11.376   0.361  0.1133  0.2401 -0.3659
17842W        W34316   6.230  11.369   3.233  0.2846  0.0981 -0.0524
17843W        W34317  13.013   2.172   2.592 -0.1556  0.1274 -0.0259
17844W        W34318  17.344   3.375   3.253 -0.1585  0.1122 -0.1125
17845W        W34319  14.726  15.372   2.309  0.0456  0.1766  0.2636
17846W        W34320   8.924   7.538  13.975  0.3277  0.3015 -0.2105
17847W        W34321  19.168   8.992  12.151 -0.3311  0.2377  0.2374
17848W        W34322   1.098   5.376  10.932  0.0188 -0.2848 -0.2642
17849W        W34323   8.991  12.625  10.560  0.2616 -0.0250  0.1879
17850W        W34324   5.371  15.550   1.942  0.2353  0.1172 -0.1310
17851W        W34325  19.574  13.415  12.320 -0.1208 -0.4561 -0.5474
17852W        W34326   8.056  15.591  12.045 -0.0178 -0.2707 -0.2695
17853W        W34327  19.038  10.285  14.521  0.2596  0.1207  0.0379
17854W        W34328   7.708   1.351  13.554  0.3399 -0.0974 -0.3264
17855W        W34329   5.836   2.147  10.676 -0.0650  0.0233  0.2189
17856W        W34330  17.125   7.030  12.428 -0.2979  0.1303  0.1749
17857W        W34331  11.932  11.089  11.890 -0.0914 -0.0986  0.4474
17858W        W34332   5.832   9.252   2.765  0.2380 -0.2672 -0.0838
17859W        W34333   9.050  13.008   2.945  0.1562 -0.1008 -0.0758
17860W        W34334  16.312   7.971  13.726 -0.1348 -0.0545  0.2542
17861W        W34335   7.536   4.407  13.251 -0.2414 -0.1075  0.0273
17862W        W34336   7.378   9.413   9.800  0.3529  0.2861  0.2112
17863W        W34337   7.710   1.950   0.464 -0.0994 -0.0545  0.0479
17864W        W34338   7.764  16.957   0.703 -0.3634  0.0059 -0.1033
17865W        W34339   1.057  16.431  11.632  0.0648 -0.0781 -0.0673
17866W        W34340  17.404  10.846   0.664  0.2118  0.2147 -0.2084
17867W        W34341  16.069  16.280  13.590 -0.0353  0.1854 -0.0342
17868W        W34342   6.053  10.834   2.478 -0.0194 -0.0621  0.4134
17869W        W34343  17.377   3.454   2.472 -0.2594  0.1508 -0.0411
17870W        W34344   1.441  16.967   4.150 -0.0413 -0.1831 -0.1168
17871W        W34345  13.391  13.591   0.328  0.0360  0.2500 -0.0876
17872W        W34346  15.587  14.428  13.787  0.0677  0.1114 -0.1680
17873W        W34347  18.357  11.955   0.086  0.3485 -0.2506 -0.3005
17874W        W34348   9.411  18.093  10.588 -0.1161  0.0961  0.0248
17875W        W34349  17.225  18.344   2.318  0.0932  0.1002 -0.0986
17876W        W34350  14.017   8.725  12.544 -0.2098  0.0150 -0.1147
17877W        W34351  13.093   0.912  13.161 -0.1620 -0.5956  0.1319
17878W        W34352   3.262   3.755   0.910 -0.3344 -0.2384  0.0737
17879W        W34353  15.106  11.195  11.841 -0.1474  0.1547  0.0734
17880W        W34354   2.635  14.031  14.560 -0.0444  0.0671 -0.0079
17881W        W34355   9.594  16.916   3.707  0.2084  0.2820 -0.3435
17882W        W34356   7.121  11.311   4.772 -0.0056 -0.0788 -0.3468
17883W        W34357  12.867   2.292  10.699  0.1398  0.0319 -0.1291
17884W        W34358  13.696   6.233   4.613  0.0706 -0.3471 -0.1588
17885W        W34359  12.976  15.015  14.624  0.1506 -0.4639 -0.1121
17886W        W34360   1.445  18.889  13.386 -0.0263 -0.0233 -0.0556
17887W        W34361  18.856   9.539   2.309 -0.2857  0.2075  0.2722
17888W        W34362   1.742   9.797  10.671 -0.2504 -0.0728 -0.3642
17889W        W34363   1.999  18.691   1.325 -0.1535  0.1666 -0.3219
17890W        W34364   0.763  16.207   3.337 -0.0106 -0.2383 -0.2284
17891W        W34365  11.732  16.314  13.573  0.1482 -0.2637 -0.4127
17892W        W34366  14.769   8.434  12.395 -0.1958 -0.1355  0.0744
17893W        W34367  18.979  10.050   2.971  0.1526 -0.0409  0.1041
17894W        W34368  10.911   3.566  12.135  0.0055 -0.1056 -0.0968
17895W        W34369   4.216   4.424   4.757 -0.1570 -0.0448 -0.1230
17896W        W34370  11.727  13.706   1.050 -0.0418 -0.0825 -0.2420
17897W        W34371  13.188  16.439   0.539  0.0735  0.2060 -0.4505
17898W        W34372  17.447   9.379  11.350 -0.0736 -0.1951  0.0313
17899W        W34373   9.123  16.919  14.009  0.2559  0.0037 -0.0538
17900W        W34374   5.186  10.028   3.119  0.0786  0.0658  0.3473
17901W        W34375   7.921  18.405  10.119  0.1253  0.2422 -0.1307
17902W        W34376   6.259   0.465  12.402  0.0328  0.0811  0.0481
17903W        W34377  16.811  16.924   1.759 -0.0096  0.0185  0.0457
17904W        W34378  11.869   9.751  12.506 -0.1228 -0.0370 -0.2753
17905W        W34379  10.243   9.399   1.207 -0.0329 -0.0406 -0.0506
17906W        W34380   7.598  14.892   0.663 -0.1108  0.1433 -0.2582
17907W        W34381   3.218  19.418   9.922  0.2298  0.1440 -0.4210
17908W        W34382   6.874   7.510  11.924 -0.0654  0.0352  0.3066
17909W        W34383   7.555   0.123   3.722 -0.0544  0.0014  0.0234
17910W        W34384   1.184   1.988   0.007  0.2065 -0.1755  0.2731
17911W        W34385  10.252   1.552  14.109  0.2246 -0.1613  0.0696
17912W        W34386  14.116  14.088   4.283 -0.1030  0.1796 -0.1598
17913W        W34387   8.806  19.054   3.941  0.1120  0.0116 -0.1164
17914W        W34388   4.976  12.457   4.508 -0.0543  0.1842 -0.1485
17915W        W34389  17.762  15.845   1.189  0.3872  0.1888 -0.0310
17916W        W34390  18.377  11.104   4.347 -0.4575 -0.0936 -0.0645
17917W        W34391   7.266  17.155  11.148 -0.1440 -0.1306  0.1901
17918W        W34392  16.385  12.937   2.456 -0.5838  0.1075  0.2678
17919W        W34393  13.418   0.793  11.174 -0.1908 -0.1683 -0.0872
17920W        W34394   0.146   0.811   4.363  0.2271 -0.1793 -0.1035
17921W        W34395  15.099  18.356   5.123  0.0175  0.0563 -0.0584
17922W        W34396  19.404  13.109  14.714  0.1419 -0.3093  0.3030
17923W        W34397  10.284   3.611   4.039 -0.0502 -0.1640  0.4376
17924W        W34398   9.316  16.165  10.737  0.0015  0.0427 -0.3842
17925W        W34399   1.345  14.999  11.817  0.1249 -0.3068  0.1068
17926W        W34400  14.843  16.913   2.948  0.0276  0.1456 -0.0495
17927W        W34401   0.641   3.993   4.042 -0.0936 -0.0143 -0.1102
17928W        W34402  10.114   8.752   5.340 -0.0934  0.3280  0.1601
17929W        W34403   1.834   6.633   2.283  0.1667 -0.3021 -0.2706
17930W        W34404  19.212   6.408  14.462  0.0190  0.1089  0.1207
17931W        W34405   3.772   2.604  14.561  0.0923 -0.1068 -0.2753
17932W        W34406   2.913  10.175   1.240  0.0856 -0.1441  0.0177
17933W        W34407   3.709   1.732   1.375  0.0856 -0.1478 -0.0141
17934W        W34408   8.666  10.008   1.935 -0.1979  0.0932  0.0113
17935W        W34409  15.440   7.413  11.969  0.4994  0.2387  0.1724
17936W        W34410  16.595   0.795  12.430 -0.0899 -0.1592  0.0269
17937W        W34411   5.622  12.189  10.280 -0.1510  0.1568 -0.2493
17938W        W34412  18.439  15.977   9.791  0.1323 -0.2853 -0.0046
17939W        W34413   2.959  17.547  13.221  0.0601 -0.2613  0.0610
17940W        W34414   4.351   9.660   0.235 -0.1618  0.1563 -0.0529
17941W        W34415   5.888   2.909   1.419  0.0784 -0.0337  0.1009
17942W        W34416  17.843  10.443   3.279 -0.0980  0.1182 -0.1134
17943W        W34417  14.522  16.524  14.538  0.4154 -0.0957  0.2727
17944W        W34418   5.634  14.724   3.675  0.4609 -0.0098 -0.2261
17945W        W34419  17.310   1.146  10.552 -0.1127 -0.1494  0.2232
17946W        W34420   9.690  12.671  13.820  0.1505 -0.2710 -0.2380
17947W        W34421  11.159   5.051   5.136  0.0397 -0.1444  0.0013
17948W        W34422   8.764   4.449   2.316  0.1067  0.0929 -0.1227
17949W        W34423   3.777  17.723   9.818  0.3543  0.1684 -0.1088
17950W        W34424   4.162  15.076   2.741  0.2342  0.0214  0.2341
17951W        W34425   3.501   7.252   3.853 -0.2906 -0.3230 -0.2479
17952W        W34426   8.010   9.208  14.660  0.0580 -0.3281 -0.1469
17953W        W34427   2.924  18.306   0.339  0.0438  0.0871  0.0275
17954W        W34428   4.760   3.066  14.402 -0.2313  0.0363  0.0433
17955W        W34429  14.665   9.657   5.984  0.2500 -0.1239 -0.3417
17956W        W34430   1.732  14.046  10.644 -0.3976  0.2343  0.0103
17957W        W34431   6.245  14.049   3.765  0.2869 -0.0512 -0.1232
17958W        W34432   1.033  11.547   2.494 -0.0012 -0.1629  0.0302
17959W        W34433   9.514  12.386  11.740 -0.0037 -0.3227  0.0877
17960W        W34434  10.561  15.671  14.453  0.0671  0.0161 -0.0618
17961W        W34435   8.912   8.540   3.547 -0.2955 -0.1419  0.2772
17962W        W34436  10.915  15.095   4.354  0.0597 -0.0555  0.2254
17963W        W34437  11.342   8.440  13.445  0.0175 -0.1931 -0.0519
17964W        W34438  15.269  17.322  14.673  0.0177  0.1375 -0.2340
17965W        W34439  13.350  11.203   3.118  0.2072  0.0563 -0.0645
17966W        W34440  14.268   5.916   4.628 -0.2749  0.0318  0.0763
17967W        W34441  16.018   5.294   0.331  0.0133  0.2181  0.3268
17968W        W34442  16.482  18.010  12.165 -0.3103  0.0555 -0.0329
17969W        W34443  11.587  12.408   3.231 -0.2047  0.3160 -0.4653
17970W        W34444   1.655   7.388   3.705  0.0165  0.2807  0.2151
17971W        W34445  13.312   7.941  14.056 -0.1803 -0.3215  0.1563
17972W        W34446   4.267  10.721  10.165 -0.0242 -0.3534  0.3534
17973W        W34447   5.687   8.920   4.953  0.2123 -0.1516  0.2323
17974W        W34448  17.862   3.670  13.876 -0.1499 -0.2764  0.2369
17975W        W34449  18.444   7.039   2.115 -0.5044  0.0194 -0.3363
17976W        W34450   1.902  12.229   2.261  0.0726  0.1246 -0.1378
17977W        W34451   4.182  13.949   4.033 -0.2394 -0.1782  0.0160
17978W        W34452   7.536   8.275   1.717  0.4961 -0.0543 -0.1492
17979W        W34453   3.709  19.282  13.122 -0.0609 -0.1910  0.3101
17980W        W34454   3.463   0.798  14.637 -0.0210  0.2167  0.1753
17981W        W34455  14.073   2.666   4.229  0.1616  0.1343  0.5226
17982W        W34456  16.539  14.002   2.553 -0.3792  0.3860  0.0337
17983W        W34457   2.183  11.924  10.953 -0.2548 -0.0278  0.0527
17984W        W34458  17.298  17.059   2.995  0.2122  0.0381  0.1652
17985W        W34459   3.346  14.446  13.151 -0.2320 -0.1318 -0.1145
17986W        W34460   1.237  13.792  12.654 -0.1855 -0.1887 -0.0303
17987W        W34461   6.662   1.028  14.553  0.2702  0.0084 -0.1352
17988W        W34462  10.951  18.503  12.003  0.5073  0.1350  0.0242
17989W        W34463   9.144   6.053   2.622 -0.1151 -0.1009 -0.2436
17990W        W34464   9.490   8.682   3.926 -0.0074 -0.1099 -0.3176
17991W        W34465   7.342   8.392   3.285  0.0963  0.2888  0.2784
17992W        W34466  19.249  10.364   0.538 -0.0552 -0.1076 -0.0914
17993W        W34467   2.662  19.555  11.725  0.0120 -0.1054  0.1429
17994W        W34468   8.239  11.475   1.694  0.0383 -0.4551  0.1939
17995W        W34469  11.568   8.898   2.684  0.1637  0.1001  0.1466
17996W        W34470   6.296  19.547   3.424 -0.1078 -0.5177  0.0157
17997W        W34471  10.769  19.295   5.021  0.0062  0.1144  0.1601
17998W        W34472   8.073  18.671  11.729  0.0665  0.0343 -0.4251
17999W        W34473   4.295   2.125  10.934  0.0342  0.0063 -0.0302
18000W        W34474  13.104   6.430  10.931  0.0936  0.0794  0.0823
18001W        W34475   1.708  14.536  11.726 -0.0852 -0.0367 -0.3281
18002W        W34476  10.079   9.541   5.574  0.2960 -0.1839  0.2237
18003W        W34477   0.647   3.347  11.730 -0.1450  0.0484 -0.0094
18004W        W34478  10.305   3.355   1.001  0.1415 -0.1503  0.0464
18005W        W34479  12.739   4.109   3.521  0.1196  0.0083  0.1132
18006W        W34480  11.488  18.110  11.853 -0.3025 -0.0586 -0.0004
18007W        W34481  12.487  17.390   4.594 -0.0165  0.0471  0.0526
18008W        W34482   5.442   5.748  13.779 -0.1788  0.1493  0.0031
18009W        W34483  17.201   1.228  11.062  0.0615  0.3902 -0.2331
18010W        W34484  16.296  13.215   3.899  0.0514 -0.1884 -0.2412
18011W        W34485   7.186   7.307  13.340 -0.0658  0.1026 -0.2588
18012W        W34486  13.628   6.397   1.575 -0.1301  0.1470 -0.3725
18013W        W34487  16.711  19.195   2.857  0.1576  0.0838 -0.1614
18014W        W34488  18.977   2.966   3.127 -0.2918  0.2137  0.0660
18015W        W34489   3.623  18.334   0.990 -0.0522 -0.1310 -0.1056
18016W        W34490   7.432  13.197  11.013 -0.1111 -0.0071  0.2079
18017W        W34491  10.308  16.357   3.282 -0.0847 -0.0621 -0.2282
18018W        W34492  16.768   7.912   3.117 -0.2896  0.1091 -0.0094
18019W        W34493   1.395   3.372   5.164 -0.1427 -0.1332  0.0952
18020W        W34494  14.736  18.443   1.540 -0.1473  0.1615 -0.2368
18021W        W34495   5.953   4.316  11.404 -0.0055  0.3718  0.2988
18022W        W34496   1.803   2.059   0.199  0.0130 -0.2002  0.0721
18023W        W34497   1.303   2.424   3.837  0.0396  0.0872 -0.2978
18024W        W34498   3.119   1.338   0.612  0.2329 -0.1106  0.2398
18025W        W34499  14.568  13.588   2.422 -0.0850  0.0513 -0.1983
18026W        W34500  15.661  15.687   2.677  0.2298 -0.1310  0.4255
18027W        W34501   7.667   7.232  14.112 -0.1473 -0.2348  0.0796
18028W        W34502   5.064  14.625  14.034 -0.1292  0.1104 -0.3757
18029W        W34503  16.929  18.054   9.288 -0.0088  0.1545  0.0274
18030W        W34504  17.587   1.555  10.425  0.0026 -0.1464 -0.2009
18031W        W34505  13.906   1.932   2.893  0.0351 -0.0335 -0.0967
18032W        W34506   2.592  14.283   9.657  0.1337 -0.1182 -0.4276
18033W        W34507  15.763  17.736   0.834  0.2666 -0.0521  0.2693
18034W        W34508  12.553  12.049  13.057 -0.0857 -0.2077 -0.0807
18035W        W34509   6.641   9.436   1.162 -0.1568 -0.0790  0.1872
18036W        W34510  17.510   1.037  11.974 -0.1488 -0.1407  0.1093
18037W        W34511   0.339   5.979  12.026  0.2034 -0.0986  0.3941
18038W        W34512   0.104   0.030  10.566  0.2691 -0.0897  0.1718
18039W        W34513  13.083   8.171   1.833  0.3273  0.1548  0.2085
18040W        W34514   5.882  11.427  12.958 -0.2925  0.1926  0.1090
18041W        W34515   6.090  19.319  14.599 -0.1409 -0.3757  0.4009
18042W        W34516  12.135   6.065  10.386 -0.0271  0.2575  0.1754
18043W        W34517   9.188  13.841   3.517 -0.0886 -0.0544 -0.1665
18044W        W34518  12.970   6.076   5.081  0.0062  0.0967  0.0353
18045W        W34519  10.098  17.738   4.002  0.2530 -0.0982  0.1907
18046W        W34520  14.961  11.566  14.022  0.1221 -0.0439 -0.0251
18047W        W34521   7.236  10.077   1.250 -0.2856  0.1577 -0.5731
18048W        W34522   4.972  19.543   3.926  0.0404 -0.0134  0.2374
18049W        W34523  10.428  16.423   4.547  0.1786  0.1218  0.3080
18050W        W34524   8.586  14.389  13.288  0.0239  0.0979 -0.1527
18051W        W34525   4.843   9.064  14.285  0.1870  0.1162  0.0045
18052W        W34526   0.568   1.303   3.828 -0.1294 -0.0014 -0.0408
18053W        W34527  14.983   6.943   9.344  0.1094  0.1524  0.0566
18054W        W34528   3.657   2.403  10.253  0.1819  0.0015 -0.0096
18055W        W34529  13.800   6.228  14.179  0.2996 -0.2604  0.1116
18056W        W34530  14.041   8.501   4.191 -0.0600  0.1438  0.0224
18057W        W34531   9.124   7.849   1.950  0.1643  0.2029  0.0058
18058W        W34532   5.747  10.873  11.090  0.1284 -0.4074 -0.0300
18059W        W34533   1.005  11.890  12.574 -0.2313  0.2859 -0.3766
18060W        W34534   6.870  16.208   3.636  0.0188  0.2368  0.2259
18061W        W34535  15.818   9.368   3.705 -0.0903  0.5249 -0.1282
18062W        W34536  12.440   4.577  13.499 -0.1204  0.1560 -0.1899
18063W        W34537   1.549  11.568  13.267 -0.0623 -0.2452 -0.1817
18064W        W34538   2.919  17.135  12.874  0.0172  0.0222  0.3056
18065W        W34539  17.775   4.116  11.725  0.3444  0.1136 -0.1747
18066W        W34540   8.240   1.955  14.160  0.1000  0.1696 -0.0442
18067W        W34541  19.173   8.878   0.653 -0.2948 -0.2631  0.0372
18068W        W34542  19.131   2.491  14.020 -0.0870 -0.0728 -0.0652
18069W        W34543   3.577   0.295  13.933  0.0877  0.2761 -0.1155
18070W        W34544   2.972  11.948   9.317  0.1062  0.0881 -0.3888
18071W        W34545   5.923   1.520   1.722  0.1163  0.2071  0.3036
18072W        W34546   2.534  19.494   4.069  0.1855 -0.0871 -0.1887
18073W        W34547  13.195  17.896   1.876 -0.2067  0.2025 -0.1438
18074W        W34548  15.328   8.642  13.284 -0.0593  0.1543  0.0310
18075W        W34549  13.313  10.140  13.350  0.0859  0.4167 -0.0229
18076W        W34550  12.440  13.024   4.963  0.1726  0.1622 -0.4064
18077W        W34551   2.912   0.617  11.302 -0.2535 -0.2890 -0.2262
18078W        W34552  13.035   3.405  11.301  0.0201  0.4097  0.1169
18079W        W34553   9.244  14.278   1.738  0.0970 -0.0397  0.0859
18080W        W34554   5.368   9.853   2.259 -0.0779  0.2955  0.0635
18081W        W34555   7.019  11.935  11.066 -0.2419 -0.0683  0.2527
18082W        W34556   9.529   5.456  13.302 -0.1224 -0.1764  0.0464
18083W        W34557   0.094  14.461   2.560  0.3790  0.1039  0.2474
18084W        W34558   7.245   9.769  11.345  0.3967 -0.3072  0.0907
18085W        W34559  14.018   2.684  10.477 -0.0175 -0.3114  0.0276
18086W        W34560  18.829   7.239   9.696 -0.1099  0.1279 -0.1113
18087W        W34561   7.963   1.277   0.752  0.1337  0.0822 -0.0207
18088W        W34562   3.211   1.509   3.825  0.0754 -0.0060 -0.0603
18089W        W34563  19.313   6.154   9.667  0.2656 -0.0179  0.0328
18090W        W34564   8.132   0.326  12.377  0.0357  0.2317 -0.0795
18091W        W34565  16.032   4.554   5.272 -0.1430  0.1921 -0.1501
18092W        W34566   3.820  10.199  10.410 -0.3162  0.1889  0.2729
18093W        W34567   3.204  18.842   2.281 -0.0711 -0.0043 -0.1115
18094W        W34568  18.521  19.142   3.669 -0.2529  0.1685 -0.0828
18095W        W34569   5.195   3.255   4.445  0.2322  0.2641  0.1764
18096W        W34570   2.091  14.881  11.832 -0.2274 -0.1180  0.1323
18097W        W34571   6.310   5.623   2.178 -0.0118  0.3428  0.0289
18098W        W34572  15.992   7.909   1.579 -0.1019 -0.3486 -0.0330
18099W        W34573   2.811   5.064  12.878  0.0388  0.0193 -0.2176
18100W        W34574  13.050  15.523   2.792  0.0816  0.0002  0.1375
18101W        W34575   2.178   4.327   1.863 -0.0715  0.3269  0.2868
18102W        W34576  10.031  12.303   2.302 -0.2520  0.0280  0.2321
18103W        W34577   0.052  17.347   2.270  0.2230  0.1684  0.1415
18104W        W34578  18.650  13.734   3.732  0.0569  0.4421  0.2823
18105W        W34579   1.329   3.655   4.771 -0.1136 -0.2846  0.2357
18106W        W34580  17.302   3.707   0.255 -0.1899  0.0184  0.0211
18107W        W34581   4.742   0.723  14.201  0.0312 -0.1039  0.0558
18108W        W34582   1.032  10.818   4.091  0.1292 -0.2917  0.0994
18109W        W34583  15.915  15.260  11.568 -0.0115 -0.0031 -0.0987
18110W        W34584   4.951   0.850   1.630  0.2257  0.0184 -0.1996
18111W        W34585   6.335   7.054  14.634  0.2627  0.0064  0.0289
18112W        W34586   4.002  10.907   1.488 -0.0615 -0.0647 -0.2125
18113W        W34587  11.600   0.301  11.849 -0.0551 -0.0531 -0.1144
18114W        W34588  13.318  19.309  12.322  0.2478  0.2333 -0.0682
18115W        W34589   7.282   9.076  12.982 -0.2011 -0.3496  0.1031
18116W        W34590   3.351  11.376  13.454 -0.0390 -0.2019 -0.1108
18117W        W34591  18.179  12.028   0.677  0.0321 -0.1342 -0.2587
18118W        W34592  16.621   8.213   2.686  0.0038 -0.2518 -0.0944
18119W        W34593  16.216   5.685   1.756 -0.1451 -0.0205 -0.1816
18120W        W34594  18.518  17.230   1.619 -0.0260 -0.2411  0.0033
18121W        W34595  10.027  19.448   4.601  0.0128  0.1009  0.1636
18122W        W34596   5.730  16.535  13.073  0.2089  0.0120  0.0489
18123W        W34597  11.907   7.236   2.000  0.3657 -0.2866  0.1142
18124W        W34598   6.366  18.363   2.050 -0.1865  0.2521  0.1090
18125W        W34599   1.635   6.930   1.940 -0.1845  0.2450 -0.2086
18126W        W34600  14.920  18.763  13.256 -0.0917  0.0725 -0.0224
18127W        W34601   7.809  12.117   0.633 -0.4702  0.4026 -0.0309
18128W        W34602  17.009  18.944   1.653  0.0205  0.1173  0.1852
18129W        W34603   6.858   6.954   2.760  0.0466  0.0325 -0.0118
18130W        W34604   0.001  11.284  13.918  0.1743 -0.3129  0.2550
18131W        W34605   0.210  15.721   3.946  0.0984  0.1594 -0.1862
18132W        W34606  14.064   4.840   1.241 -0.0693 -0.2546 -0.1743
18133W        W34607  19.238   8.493   2.815 -0.0488  0.2684  0.0162
18134W        W34608   3.927   5.471  11.964  0.0865 -0.1502  0.0811
18135W        W34609  19.173   6.965   0.776  0.0338 -0.2369 -0.1289
18136W        W34610   7.288   7.547   3.509 -0.0716  0.0054 -0.0163
18137W        W34611   7.292  10.713   3.003  0.1695 -0.3552  0.0148
18138W        W34612   4.306   5.082   2.219  0.0013 -0.1517  0.0975
18139W        W34613   3.665  11.677  13.773  0.2422 -0.1107 -0.0651
18140W        W34614   5.156   7.231   2.032 -0.1673  0.2181  0.0845
18141W        W34615   4.850   8.323   3.523  0.0277 -0.2662  0.4320
18142W        W34616   6.789  10.044  12.673 -0.1003 -0.0375 -0.2099
18143W        W34617  13.432  17.484   4.324 -0.0710  0.0991 -0.1541
18144W        W34618  19.558  17.670   0.783 -0.3651  0.0797 -0.2286
18145W        W34619   7.473   1.638  11.151  0.0893 -0.2370 -0.1793
18146W        W34620   8.986  17.459  14.003 -0.4363  0.2665 -0.1073
18147W        W34621  13.273  15.706  12.854  0.0533  0.1106 -0.0204
18148W        W34622   6.419   5.220  12.645 -0.1348  0.3388 -0.3003
18149W        W34623   9.802   7.565  12.035 -0.1634 -0.0232 -0.1659
18150W        W34624  13.739   3.187   2.481  0.0054 -0.3151 -0.2404
18151W        W34625   8.083   2.368   2.159 -0.0014 -0.0689 -0.1787
18152W        W34626   2.395  14.340  11.765 -0.0895  0.0257 -0.1348
18153W        W34627   9.886  17.448   5.506  0.0987  0.0592  0.0865
18154W        W34628  17.260   2.330  14.450  0.0857  0.2728  0.1440
18155W        W34629  16.999   5.731  12.040  0.1065  0.2164  0.4003
18156W        W34630  19.422  13.626  11.799 -0.2374 -0.3106 -0.1510
18157W        W34631  11.236   0.868   1.345 -0.4061  0.1637  0.4157
18158W        W34632   1.245   6.656  11.305 -0.0739  0.1143 -0.2278
18159W        W34633   0.376  13.273   3.818 -0.2251  0.1540 -0.2746
18160W        W34634   0.908  16.495   0.751  0.1344 -0.3460 -0.0024
18161W        W34635   2.420   3.963   0.866  0.0883  0.0000  0.1488
18162W        W34636  15.372   8.639  10.838  0.1441 -0.1761  0.3398
18163W        W34637  19.218  14.484   4.656 -0.0751 -0.1473 -0.1789
18164W        W34638   7.191  17.055  12.794  0.1544  0.2272 -0.0566
18165W        W34639   2.686   8.960  13.722 -0.0323 -0.2174 -0.0857
18166W        W34640  12.870   7.677   3.332 -0.5155 -0.0930  0.1592
18167W        W34641  10.058   9.962   3.788 -0.1951  0.0972 -0.0255
18168W        W34642   4.130  11.070   1.044 -0.1210  0.0283  0.1569
18169W        W34643  11.643  17.365  13.126  0.1963 -0.0171  0.0444
18170W        W34644  12.957   4.193  11.281  0.0646 -0.0410  0.0515
18171W        W34645   4.975   3.914   5.048  0.1348 -0.0740 -0.0116
18172W        W34646  17.454  16.987   5.235 -0.4650 -0.0189  0.3377
18173W        W34647   9.786  11.454   0.572 -0.4447  0.4729 -0.0193
18174W        W34648  10.047   5.503   3.200 -0.1582  0.0696  0.0569
18175W        W34649   5.852   8.284  11.727  0.0846  0.0532  0.0717
18176W        W34650   9.971   6.735  10.508  0.0224 -0.2014  0.3937
18177W        W34651  18.272   4.334   0.337 -0.0320 -0.2211 -0.1406
18178W        W34652  17.419   7.452  13.301 -0.1137  0.1144 -0.2348
18179W        W34653   1.917  16.900  12.752 -0.4655  0.4646 -0.1212
18180W        W34654  12.909  14.673  11.608  0.2222  0.2178 -0.1979
18181W        W34655  15.575  12.152   2.306  0.0422  0.1795  0.0041
18182W        W34656   8.345  11.062   1.172 -0.2615 -0.2618 -0.3521
18183W        W34657   5.376   0.590  11.180 -0.1093  0.2722  0.0546
18184W        W34658   8.384  10.913  14.027  0.0457  0.1175  0.0088
18185W        W34659  14.106   6.667  12.120 -0.0149 -0.2998 -0.4408
18186W        W34660   9.342  16.766   5.184  0.2524  0.0907 -0.6964
18187W        W34661   2.199   8.221  13.804 -0.3418  0.1934 -0.0030
18188W        W34662  16.711   6.193  11.402 -0.0333  0.0532  0.0354
18189W        W34663   8.515   8.960   5.122 -0.0723 -0.0191 -0.2152
18190W        W34664   6.714  14.672  14.278 -0.1440  0.1213  0.0245
18191W        W34665   4.553   4.077   3.889 -0.1597  0.4894  0.0727
18192W        W34666  12.369  12.154  11.463  0.2074  0.3949 -0.1993
18193W        W34667   3.278  19.163   4.680 -0.2475  0.0446 -0.1341
18194W        W34668   1.069   4.110  11.493  0.2227 -0.1817  0.1487
18195W        W34669   4.535  18.748   4.340 -0.2901 -0.0820  0.3929
18196W        W34670  14.411  10.422   4.502  0.3824 -0.1593 -0.1935
18197W        W34671  11.029   7.053  12.089  0.1561 -0.0878 -0.0958
18198W        W34672   0.050  14.267  11.085  0.2788 -0.1235  0.0604
18199W        W34673  15.488   4.721   1.900 -0.1465  0.1563  0.0621
18200W        W34674   7.570   7.252   4.848 -0.3652  0.0330 -0.0361
18201W        W34675   7.558  17.286   0.997  0.1452 -0.2112  0.4803
18202W        W34676  18.063  15.540   3.568 -0.0694 -0.1569  0.0735
18203W        W34677  11.903  16.221   3.608  0.3403  0.0616  0.3497
18204W        W34678   3.858   4.622   0.988  0.1239 -0.3535  0.0666
18205W        W34679   0.339  18.409  10.949 -0.0070  0.0126 -0.2454
18206W        W34680  17.856  18.995  10.182  0.3091  0.1065 -0.0204
18207W        W34681  14.634   2.110  11.040  0.2685  0.2241  0.1533
18208W        W34682  19.246  12.400  14.705  0.0711  0.0543  0.0545
18209W        W34683  12.852   1.635  12.716  0.2209 -0.0168  0.0932
18210W        W34684   2.446   6.328   4.961 -0.2031 -0.4633  0.2174
18211W        W34685  11.708   3.768  10.160 -0.2551 -0.0321 -0.0086
18212W        W34686   5.324  17.980  14.718  0.0543 -0.0694  0.4465
18213W        W34687  11.931   0.771  10.876 -0.1265 -0.0592 -0.3060
18214W        W34688  10.465   8.776   1.695  0.0283 -0.3096 -0.1741
18215W        W34689   2.404  18.922  13.232 -0.2960  0.2312  0.0731
18216W        W34690   3.862  17.114   3.752 -0.2993  0.0552 -0.2201
18217W        W34691  12.408  10.844   2.941  0.1449  0.1285  0.2318
18218W        W34692  15.086   4.491   2.168 -0.0405 -0.0280 -0.1778
18219W        W34693   2.466  12.546  12.915 -0.3402 -0.2379  0.0082
18220W        W34694  19.009  17.932   1.673  0.0448  0.0414 -0.0063
18221W        W34695   1.690   0.461  13.997  0.2178  0.0815 -0.0166
18222W        W34696  13.208   3.331   2.657 -0.0101  0.2820 -0.1776
18223W        W34697   0.885  17.182   2.440 -0.1106 -0.0521 -0.1847
18224W        W34698   1.539  13.795  11.673  0.0385 -0.0394 -0.0566
18225W        W34699   9.666  13.481  10.409  0.1606  0.2893 -0.0018
18226W        W34700   5.683   9.833  12.521  0.1371  0.1077  0.0094
18227W        W34701  10.526  10.903   2.665  0.0469  0.1620  0.4383
18228W        W34702  12.412  16.831   0.769  0.0434 -0.1543  0.1338
18229W        W34703   4.460  16.986   3.898 -0.1778  0.0671 -0.2269
18230W        W34704   4.436   6.996  12.062  0.0193 -0.0558 -0.1137
18231W        W34705  18.768  18.152  11.793  0.1334  0.0223 -0.0901
18232W        W34706   2.754   9.005  12.798  0.0398 -0.0958  0.0190
18233W        W34707  19.460  12.071   1.527  0.5502 -0.2996  0.1292
18234W        W34708   8.136  19.480  10.905 -0.2623  0.1038 -0.1495
18235W        W34709  18.724  13.888   5.096  0.1795 -0.2103  0.2325
18236W        W34710   0.012  16.733  10.664  0.2943  0.0281  0.2787
18237W        W34711  15.468   7.011   2.114  0.0815 -0.0623 -0.0537
18238W        W34712   7.320  12.837   0.581 -0.1260 -0.0287 -0.0076
18239W        W34713  16.848  17.652   0.718  0.0309  0.1327 -0.0894
18240W        W34714   8.358   5.263  14.705 -0.0209 -0.3763 -0.1316
18241W        W34715   0.957   6.167   4.220 -0.0056  0.0475 -0.0427
18242W        W34716   4.995   4.098  10.647  0.1663 -0.2328  0.0395
18243W        W34717  13.058  13.419  10.969 -0.1196  0.0408 -0.1056
18244W        W34718  15.912  14.897   0.589 -0.2509 -0.1998 -0.3583
18245W        W34719   0.548   4.632   2.854 -0.2362  0.1452  0.4415
18246W        W34720  10.914  13.538   1.836  0.0859  0.1889 -0.1284
18247W        W34721   6.771   8.645  11.706 -0.0620  0.2795  0.0743
18248W        W34722   1.705  16.640   2.515  0.0632 -0.0042 -0.0953
18249W        W34723   5.917  16.882  11.250  0.0485 -0.4600 -0.0513
18250W        W34724  11.375   3.536   2.639 -0.0587 -0.3152 -0.1386
18251W        W34725  15.411   6.819   4.266  0.2391  0.0258 -0.2431
18252W        W34726   5.425   2.066  10.942 -0.0400  0.0921 -0.3213
18253W        W34727   3.001  18.385   3.316  0.0692  0.4534  0.1704
18254W        W34728   8.209  17.155  13.127 -0.2896  0.2295  0.2315
18255W        W34729  17.198   2.398   3.385 -0.0917  0.3070  0.1108
18256W        W34730   0.350   6.780  11.509  0.1275 -0.1667  0.1673
18257W        W34731  18.287   1.656  10.843 -0.3453 -0.2042  0.0830
18258W        W34732  16.129   5.989   2.715 -0.1071  0.2571  0.0117
18259W        W34733  12.829  14.375  13.446  0.0946 -0.1842  0.2365
18260W        W34734  16.653   6.741  13.087 -0.1049 -0.0575 -0.0355
18261W        W34735  11.517  14.122   0.803 -0.2563  0.1398  0.0875
18262W        W34736  19.453  17.209  14.304 -0.1096 -0.3166 -0.2591
18263W        W34737   0.985  10.534   0.421 -0.2159  0.1985  0.1210
18264W        W34738  13.257  11.862   1.882 -0.1044 -0.1201  0.1620
18265W        W34739   2.432  17.901   9.978  0.1939 -0.0869 -0.2996
18266W        W34740  13.417  15.288   1.322  0.0614 -0.3653 -0.2252
18267W        W34741   5.294  13.007   3.134 -0.1334 -0.4364  0.0007
18268W        W34742   1.420   6.076   1.390 -0.1421 -0.0041 -0.0417
18269W        W34743   4.613  18.213  13.090  0.2533 -0.0562 -0.0945
18270W        W34744   7.807   6.890   3.875  0.0829 -0.0391 -0.0998
18271W        W34745  11.344  18.104   1.914 -0.2505  0.1553 -0.1684
18272W        W34746   9.145  13.180   1.789 -0.3355 -0.0662  0.3015
18273W        W34747   4.460   3.777  11.416 -0.0323 -0.1189  0.1356
18274W        W34748   8.757   4.846   5.170 -0.2684  0.2243 -0.3286
18275W        W34749   1.314   8.684  14.185  0.1255  0.2283 -0.0127
18276W        W34750  12.275   0.001  11.243 -0.1189  0.2086  0.2027
18277W        W34751   2.371  18.087  14.359 -0.2898  0.0550 -0.3357
18278W        W34752  16.735   0.075   2.270  0.0418 -0.1794  0.1108
18279W        W34753   4.617  15.835   1.241 -0.1776  0.2092 -0.2075
18280W        W34754  15.745   9.275   1.282 -0.1256  0.0332  0.1591
18281W        W34755  16.458  10.541  14.597 -0.0146  0.0426 -0.0258
18282W        W34756  18.447  18.985  11.536  0.2687 -0.1106  0.0116
18283W        W34757   1.784   1.678  12.617 -0.0717 -0.0701 -0.3955
18284W        W34758   8.533  12.884   2.936 -0.2607  0.3323 -0.1271
18285W        W34759   6.457  14.071   9.520  0.3569 -0.2728 -0.0025
18286W        W34760   7.520   2.019  12.985  0.3739 -0.1843  0.1017
18287W        W34761   1.785   1.104   0.023 -0.0565  0.1635  0.1788
18288W        W34762  11.022   2.422  12.160  0.0024 -0.0065  0.0879
18289W        W34763   8.116   1.417   1.314  0.1069  0.2772  0.1096
18290W        W34764   1.553   2.728  12.020 -0.1226 -0.0104  0.0234
18291W        W34765  10.221  10.992   4.545  0.4405  0.1132  0.2037
18292W        W34766   8.387   1.608  12.799  0.1875 -0.2156 -0.5415
18293W        W34767   5.658   7.962   1.493  0.1519 -0.1063  0.1989
18294W        W34768   5.006   7.690   0.670 -0.2576 -0.0663 -0.1213
18295W        W34769   4.509   5.994   2.124 -0.3148  0.0561  0.0234
18296W        W34770  14.108   3.848   3.404 -0.1826 -0.2086 -0.1045
18297W        W34771  12.114  11.001  14.206 -0.4490  0.2396 -0.1369
18298W        W34772   1.612  14.075  13.006 -0.3767 -0.0844  0.0866
18299W        W34773   3.253   0.248   9.646 -0.0195  0.0361  0.0100
18300W        W34774   6.260  16.877  13.158  0.1929  0.2405 -0.2644
18301W        W34775   5.465   4.528  11.493 -0.1520 -0.2859 -0.0110
18302W        W34776  13.803  14.908  10.560 -0.1535  0.2911 -0.0116
18303W        W34777   1.968  12.653  14.377  0.3618  0.2411  0.1273
18304W        W34778  11.823   0.883  14.316  0.0309  0.1510  0.1152
18305W        W34779   9.759  18.575  10.999 -0.2574  0.1734 -0.5738
18306W        W34780  14.930  12.142  13.722 -0.2942  0.0026 -0.0638
18307W        W34781   6.667   7.063  11.105  0.2579 -0.0636  0.0159
18308W        W34782  13.755  18.546   4.849  0.1285  0.0519  0.2646
18309W        W34783  11.846   8.418  13.336 -0.4044  0.3052 -0.0607
18310W        W34784   2.958   3.642   3.938 -0.1101  0.2839 -0.1160
18311W        W34785   5.953  14.816  14.536 -0.0988 -0.1403  0.2824
18312W        W34786   3.528  17.083  12.149 -0.1846 -0.0689 -0.0848
18313W        W34787  18.709   7.358   2.655 -0.1194 -0.0293  0.1787
18314W        W34788   3.919   0.872  12.745 -0.4138  0.0406  0.0627
18315W        W34789   7.360  10.672   3.547 -0.1266  0.2133 -0.0312
18316W        W34790   5.978   3.783  11.452  0.0194  0.5283  0.2189
18317W        W34791  12.448  18.231   3.205 -0.1976  0.1785 -0.1349
18318W        W34792  15.622  15.342  10.788  0.3646 -0.1712  0.2490
18319W        W34793   2.182  10.928   3.351  0.0071  0.1135 -0.0400
18320W        W34794  15.655   0.344  10.298  0.1524 -0.1778  0.1547
18321W        W34795  18.808  12.565  11.533  0.0991 -0.0402 -0.2122
18322W        W34796  14.157  11.959  11.998 -0.0431 -0.0753  0.2022
18323W        W34797  13.906  11.213  13.188 -0.0643  0.0795  0.1203
18324W        W34798   1.997   0.828   2.225  0.1720 -0.1257  0.0948
18325W        W34799   7.447  16.797   4.209 -0.0139  0.1554 -0.0125
18326W        W34800   1.913   5.793  14.273 -0.1191  0.1041 -0.0479
18327W        W34801  19.338   3.206   1.132 -0.1578  0.3059  0.2854
18328W        W34802  15.861   6.780  10.395  0.1830  0.0088 -0.0323
18329W        W34803  16.756   5.173   4.944 -0.3288 -0.1231 -0.2580
18330W        W34804  10.374   2.607   0.846  0.2254 -0.1101  0.2610
18331W        W34805   9.148  10.226  13.052 -0.1616  0.2962  0.0528
18332W        W34806  19.513  17.852  12.172 -0.3055 -0.1594 -0.1622
18333W        W34807  16.736   9.991  12.607 -0.1057  0.2059  0.0687
18334W        W34808   6.903  12.593  14.518  0.2324 -0.3087 -0.3340
18335W        W34809  10.134   4.672   4.963  0.0645  0.1099 -0.0816
18336W        W34810   6.541   0.421  10.568 -0.0388  0.1092 -0.1551
18337W        W34811  12.468  15.799  11.279  0.1197  0.0285  0.0924
18338W        W34812  15.429   6.052   3.905 -0.0045  0.0511  0.0082
18339W        W34813   9.020  10.390   2.036  0.0630 -0.0652  0.2844
18340W        W34814   2.504  11.277  13.461  0.2177  0.0450  0.0428
18341W        W34815  17.926   1.618   1.536  0.0503  0.0564 -0.0560
18342W        W34816   8.293  19.413   1.115  0.1886  0.2835 -0.1120
18343W        W34817  10.284   5.462   1.286 -0.0435 -0.1342 -0.0922
18344W        W34818  13.230   2.050  13.579  0.1885 -0.2537  0.1690
18345W        W34819   9.432   0.841  10.125  0.2980  0.1619 -0.0373
18346W        W34820  13.055  16.322  10.708  0.1411  0.2165  0.1762
18347W        W34821  19.108   4.460  10.839 -0.1355  0.0082 -0.0843
18348W        W34822   7.252  11.571   3.002  0.0982 -0.1602  0.3257
18349W        W34823  14.655  15.281   4.901 -0.1256 -0.0137 -0.0449
18350W        W34824  12.586   4.143  11.624  0.1474  0.0330 -0.0832
18351W        W34825  19.073   6.525   2.998  0.3996 -0.0896  0.4406
18352W        W34826  14.078  14.767   3.702  0.0444  0.0543  0.1859
18353W        W34827  11.377   9.378   0.839  0.0858 -0.0338  0.5287
18354W        W34828  10.824   3.611   4.251 -0.1123  0.2449  0.0971
18355W        W34829  17.648  18.989   5.202  0.0666  0.1882 -0.1098
18356W        W34830   6.971   1.773  13.980 -0.0655  0.1076  0.3518
18357W        W34831   6.624  12.412   2.212 -0.0267  0.1964 -0.0624
18358W        W34832  13.702   4.336  12.997 -0.0997 -0.0949  0.0689
18359W        W34833   2.928   2.049  10.760  0.0655 -0.0926  0.0885
18360W        W34834  15.479   8.366  14.266 -0.0228 -0.0767 -0.2261
18361W        W34835  16.374  14.802   3.543 -0.0536 -0.4251 -0.1662
18362W        W34836  19.431   6.042   4.616  0.0759  0.1520 -0.4622
18363W        W34837   3.382   0.729   2.191 -0.0368  0.2291  0.1907
18364W        W34838  12.995  12.278   1.769  0.1436  0.1211 -0.2575
18365W        W34839   8.890   2.899   0.407  0.0864  0.1041 -0.1164
18366W        W34840  11.871  18.846  11.787  0.1042  0.0092  0.0174
18367W        W34841  12.501   6.411   3.253 -0.0663 -0.1577  0.3965
18368W        W34842   6.885   8.044   0.790 -0.0024  0.0742  0.2067
18369W        W34843  14.139  16.182   3.799  0.2003  0.5273 -0.0997
18370W        W34844   0.444  13.280   1.940  0.4543  0.1305 -0.4024
18371W        W34845   9.836  18.042  10.945  0.1821  0.0452 -0.0118
18372W        W34846   8.123   4.525  11.834  0.3750  0.0248 -0.3382
18373W        W34847  19.056   5.772  10.969 -0.2547 -0.3441  0.2594
18374W        W34848   5.372  15.120   1.602  0.0137 -0.0846 -0.0540
18375W        W34849   3.285   4.601   4.960  0.1532 -0.1566 -0.0774
18376W        W34850   2.273   5.597   4.531  0.2590  0.0606  0.2243
18377W        W34851  17.146  16.756   9.789  0.0432  0.4155  0.0669
18378W        W34852   6.739   2.239  13.408 -0.1756 -0.1386  0.4985
18379W        W34853   6.681   0.860  13.324 -0.2180 -0.1049  0.1159
18380W        W34854   1.321  14.707  10.833  0.3860  0.1281 -0.0020
18381W        W34855   9.679   9.958  12.711  0.3654  0.1308  0.1906
18382W        W34856   5.003  15.047   0.648 -0.0070  0.1319 -0.0129
18383W        W34857  12.190  10.689   3.441 -0.1149 -0.1079  0.3287
18384W        W34858  16.068   1.829   0.043  0.3473 -0.0754  0.2278
18385W        W34859  15.205   2.784  11.384 -0.0017  0.0479  0.2769
18386W        W34860  10.415  18.759  11.866  0.0464 -0.0378 -0.0851
18387W        W34861   9.969  17.142   5.060 -0.2004  0.1145 -0.2384
18388W        W34862   9.676   6.015   2.710 -0.2365  0.2300 -0.0541
18389W        W34863   9.248  10.395  13.500  0.3780 -0.0436  0.2701
18390W        W34864   3.914  18.872   9.640 -0.0344  0.0241  0.2666
18391W        W34865  12.345   9.282  11.594  0.1213  0.0547  0.3804
18392W        W34866   4.853  19.132  14.113  0.2540  0.1614  0.0638
18393W        W34867   3.957  14.589   2.882 -0.0808 -0.0639 -0.0737
18394W        W34868  10.102   1.211  12.638  0.0123  0.0721 -0.1447
18395W        W34869  13.277  17.035   1.517 -0.4247  0.0684  0.1687
18396W        W34870  19.323   9.101   1.075 -0.1751 -0.0678 -0.3659
18397W        W34871   4.916  19.340   3.470  0.0275 -0.0510 -0.4007
18398W        W34872  17.204  13.679   0.236 -0.0782 -0.1633 -0.3184
18399W        W34873  14.268  10.140  12.547 -0.3044 -0.0548 -0.0531
18400W        W34874  15.088  10.984   0.630 -0.3673  0.1579  0.2074
18401W        W34875   6.481  18.892  12.827 -0.0930 -0.0834  0.2264
18402W        W34876  15.729   1.996  11.009  0.1813 -0.1552 -0.0789
18403W        W34877  12.091  11.817   0.455  0.0314  0.0901  0.2714
18404W        W34878   2.364  16.110  12.199  0.1669 -0.0808 -0.1638
18405W        W34879  10.054  15.838   3.004  0.2498 -0.0042  0.1602
18406W        W34880   0.593   0.609  12.368 -0.0325 -0.1357 -0.2811
18407W        W34881   6.398  12.626   2.682  0.4407 -0.2296 -0.1171
18408W        W34882  10.682   1.069   2.458 -0.1128  0.1082 -0.3360
18409W        W34883   2.191  10.427  11.232  0.0974  0.1240 -0.1729
18410W        W34884   6.011  15.862  13.412  0.1668  0.0901 -0.1560
18411W        W34885  17.875   5.446  10.630  0.1145 -0.0219  0.0412
18412W        W34886  12.424  19.084  12.510 -0.1371  0.3647  0.0529
18413W        W34887   9.033  19.356  10.871 -0.0633  0.1299  0.1351
18414W        W34888   7.735  17.677  12.205  0.0528 -0.0880  0.3396
18415W        W34889   2.988   9.339   5.468  0.0965 -0.3430 -0.0075
18416W        W34890  18.917   8.901  12.508 -0.1269  0.0963 -0.2330
18417W        W34891   5.453   8.450   4.227 -0.1231  0.0860  0.1332
18418W        W34892   5.635  15.749  13.856 -0.1820 -0.0065 -0.0119
18419W        W34893   7.820   4.142  12.153 -0.1293  0.0381 -0.0351
18420W        W34894   5.583  13.043   9.995  0.1219 -0.1965 -0.1568
18421W        W34895  11.650  10.364   3.329  0.1005  0.0507 -0.0230
18422W        W34896   4.364   0.026   4.604 -0.1040  0.4239 -0.0140
18423W        W34897   3.773  10.623   1.851 -0.0893 -0.0129  0.0311
18424W        W34898   9.235  13.370  10.588 -0.2935 -0.1212 -0.1150
18425W        W34899  16.103   2.276   2.070  0.2915  0.1198 -0.0717
18426W        W34900   5.051  14.497   0.668  0.4300 -0.1817 -0.0767
18427W        W34901   9.148   3.742  12.315  0.1857 -0.1889 -0.2895
18428W        W34902  17.019   0.141   4.329  0.2475  0.3074  0.5074
18429W        W34903  18.334   1.722  13.075  0.0604  0.2646  0.2198
18430W        W34904  11.636  15.635  14.420 -0.2868 -0.1884 -0.1085
18431W        W34905  17.599  19.518   2.794  0.1308  0.3726  0.1922
18432W        W34906  16.088   7.871  11.863 -0.1557 -0.1990 -0.1117
18433W        W34907   0.001   6.602   0.685 -0.1915 -0.1589 -0.1782
18434W        W34908   8.879  19.490   3.054 -0.4729  0.1728 -0.0041
18435W        W34909  17.319   8.703  10.644  0.1609  0.1017 -0.2972
18436W        W34910  11.735  14.189   4.756 -0.0261  0.0400 -0.2070
18437W        W34911   8.675   6.072  14.235 -0.2814  0.0870  0.2489
18438W        W34912  17.248  12.533   0.748 -0.0131  0.1034  0.1803
18439W        W34913   6.107  15.135   0.253  0.2145 -0.0575 -0.2128
18440W        W34914   3.133  10.675   0.975  0.0320 -0.2332  0.0516
18441W        W34915   6.798   6.037   5.114  0.2304  0.5654 -0.0433
18442W        W34916  14.805   8.690   3.228  0.1685  0.1967  0.5508
18443W        W34917  12.655  15.074  10.744  0.0164 -0.3084 -0.1026
18444W        W34918  16.248   5.974   4.051  0.0369  0.0128  0.1440
18445W        W34919   7.595   7.540  13.157  0.4736 -0.0562 -0.3919
18446W        W34920   2.732  15.371  10.829  0.0164  0.3319 -0.0786
18447W        W34921   6.205  16.511   4.746  0.1205 -0.2342  0.1343
18448W        W34922  10.436   4.212   1.149 -0.0432  0.2095  0.1149
18449W        W34923  11.471   3.394  13.999  0.0345  0.1112 -0.1194
18450W        W34924   1.058  18.777  11.180  0.3193  0.0872  0.1567
18451W        W34925   0.132  18.410  11.552  0.0567 -0.2370  0.2162
18452W        W34926  10.182   4.306   0.715 -0.0593 -0.1858 -0.0646
18453W        W34927   3.496   0.824  14.126 -0.0024  0.1134  0.4186
18454W        W34928   3.808  11.867   2.646 -0.2665  0.0759 -0.1307
18455W        W34929  14.622   3.518  11.738  0.4073  0.1649  0.0508
18456W        W34930   0.209  13.488   3.144 -0.0485  0.0784 -0.1470
18457W        W34931   4.968   8.351  13.712 -0.3680 -0.1074 -0.1050
18458W        W34932  17.462  18.610  14.373 -0.0116  0.1589 -0.2371
18459W        W34933  12.220  17.941  13.275 -0.0189 -0.2250 -0.2618
18460W        W34934  18.827  18.320   0.902 -0.1110 -0.3103  0.3151
18461W        W34935  16.190  18.041  12.865  0.0986  0.0023  0.3294
18462W        W34936  17.737  16.492  13.964 -0.0417  0.1579  0.0336
18463W        W34937   7.228  14.454  10.842  0.1057  0.1137 -0.0650
18464W        W34938  17.099  19.355   2.432  0.2700  0.1144 -0.0948
18465W        W34939   0.046  13.006  14.100  0.0331  0.1341  0.1880
18466W        W34940   2.460  10.294   3.069  0.4119  0.0927 -0.0814
18467W        W34941   3.430  16.106   2.306  0.1580 -0.3246  0.3399
18468W        W34942   1.754   3.112  11.080  0.0341  0.0134  0.0135
18469W        W34943   5.455   7.438   5.016  0.0810 -0.0775  0.2579
18470W        W34944   6.913  18.237   2.119  0.1668  0.0438 -0.0919
18471W        W34945   3.865  16.573  14.008 -0.0403 -0.0092  0.0261
18472W        W34946  18.587   0.326   0.654  0.1613 -0.0773 -0.1133
18473W        W34947   7.759  14.064   3.554 -0.0350 -0.0422 -0.3055
18474W        W34948   0.733  19.293   2.214  0.0288  0.2260 -0.1483
18475W        W34949   4.899  15.918   0.762  0.2576  0.1537  0.0214
18476W        W34950  16.653   7.952   0.839  0.1804 -0.2794 -0.0932
18477W        W34951  19.546  15.667   1.904 -0.3584 -0.1625 -0.0857
18478W        W34952   3.434   5.480   1.212 -0.3353  0.1326 -0.2228
18479W        W34953   6.717   2.190  11.717  0.0280 -0.0594  0.3195
18480W        W34954   6.682   2.943   0.939 -0.2363 -0.0100  0.2036
18481W        W34955   6.616  18.450  13.482  0.1642 -0.0080  0.1011
18482W        W34956   5.973  10.648  13.766  0.2315 -0.1142  0.2004
18483W        W34957   9.675   3.513  13.566 -0.0119 -0.0406 -0.0031
18484W        W34958  10.669   5.363  14.083 -0.2550  0.0937  0.1954
18485W        W34959   5.066  17.329  14.116  0.0895 -0.1225 -0.2517
18486W        W34960   1.347   4.371   3.046 -0.0268 -0.1202  0.3265
18487W        W34961  17.687  19.076  11.373 -0.1376 -0.3187  0.2802
18488W        W34962   8.913   3.565   4.372 -0.2322  0.2398 -0.1747
18489W        W34963  19.175  12.151   1.067 -0.1978 -0.1861  0.1248
18490W        W34964  10.013  12.227  10.930  0.1212  0.1752  0.0915
18491W        W34965   9.804  15.829   0.838 -0.0188 -0.1065 -0.1381
18492W        W34966  12.855  12.925  12.419 -0.1690  0.0035  0.0980
18493W        W34967  12.449   9.699   1.637 -0.3001 -0.3655  0.0963
18494W        W34968  19.203   6.085  14.097  0.2508  0.1842 -0.2364
18495W        W34969  15.295   2.620   2.038  0.3395  0.0548  0.1264
18496W        W34970  13.530  17.968   4.270 -0.1451  0.0016 -0.1689
18497W        W34971  17.998   7.730  10.912 -0.0738 -0.1112 -0.3248
18498W        W34972   4.102  17.166  10.389  0.2218 -0.3366  0.1237
18499W        W34973   3.783  14.306  11.961  0.1192 -0.3345 -0.1282
18500W        W34974   7.397   6.278  13.831  0.2271  0.1895 -0.0646
18501W        W34975   3.946  18.099   1.320  0.1478  0.1349 -0.1570
18502W        W34976  10.419   9.580   3.753  0.0509  0.2026  0.1290
18503W        W34977   8.235   2.979  10.514 -0.0842  0.3635 -0.1506
18504W        W34978   3.933   2.226   1.080  0.1926 -0.0511 -0.0758
18505W        W34979   0.164   4.679  14.410  0.1650  0.1779 -0.0823
18506W        W34980   4.474   7.295   3.625  0.0954  0.1400  0.1190
18507W        W34981   9.893   8.450   0.384  0.2074 -0.1878 -0.1272
18508W        W34982   4.587   7.121   0.063  0.1622 -0.1196 -0.0067
18509W        W34983   2.048   9.543  12.589  0.4175 -0.1458 -0.0792
18510W        W34984  18.602   9.166   1.059 -0.1738  0.0814  0.2420
18511W        W34985  15.208  13.308  12.529 -0.3434 -0.0046  0.0380
18512W        W34986  14.334   8.347   2.247  0.2184 -0.1725  0.2456
18513W        W34987  11.320  11.857  13.874  0.1769 -0.1422 -0.1485
18514W        W34988  12.151  11.661  11.746 -0.2276  0.3446 -0.2635
18515W        W34989  14.567   6.963   5.228 -0.2026  0.0441 -0.4160
18516W        W34990   1.761  10.109  11.403  0.2988 -0.1065  0.1276
18517W        W34991   8.292  15.203  11.907  0.3328  0.0601 -0.0290
18518W        W34992  13.316  18.286  10.499 -0.2098  0.0060 -0.2815
18519W        W34993  18.960   6.665   3.473 -0.3324  0.2426  0.5449
18520W        W34994  10.226   8.421  13.617  0.1387 -0.1588 -0.0193
18521W        W34995  18.787   3.856  10.173 -0.1943 -0.0729  0.0039
18522W        W34996  12.681  13.753  13.180 -0.1759 -0.1646  0.1726
18523W        W34997  16.584   6.208  12.849 -0.0177 -0.0511 -0.1666
18524W        W34998   2.631  18.928  10.278 -0.0226 -0.0150 -0.0390
18525W        W34999  14.190   3.034  13.343 -0.0971 -0.0521 -0.2507
18526W        W35000  19.559   2.782  13.911  0.1910  0.0491 -0.3353
18527W        W35001  15.024  11.094   4.157  0.0303  0.1332  0.2841
18528W        W35002   6.729  13.823   0.003 -0.0297 -0.2424  0.2928
18529W        W35003   0.351   7.290   1.244  0.1561  0.1285 -0.1447
18530W        W35004   1.373  14.122  13.475  0.1696  0.0139 -0.1508
18531W        W35005  11.656  17.168   3.917  0.1028 -0.1468  0.2432
18532W        W35006   3.480  17.272   9.580  0.1540  0.0443 -0.0784
18533W        W35007  12.791   1.235  12.197 -0.3987 -0.2073  0.3724
18534W        W35008   5.880  16.189   1.755 -0.0124 -0.0489 -0.1357
18535W        W35009  13.215   0.491   0.924  0.1546  0.1570  0.0995
18536W        W35010   6.984  11.579  12.975  0.1728 -0.0703  0.1113
18537W        W35011   4.151   4.682   4.011 -0.0821  0.3617  0.1231
18538W        W35012   8.264   8.570  11.492  0.0685 -0.2380 -0.0761
18539W        W35013  10.026  15.145   2.865 -0.3719  0.0565  0.3208
18540W        W35014   2.160  13.878   1.246 -0.1475 -0.1572  0.4059
18541W        W35015  12.707   3.706   0.345 -0.0140 -0.1278 -0.0812
18542W        W35016   3.054  16.744  13.302 -0.0101 -0.2269  0.0561
18543W        W35017   1.695   2.353  11.795 -0.1933 -0.0659 -0.1726
18544W        W35018  13.268  14.815   1.604 -0.1097  0.2321  0.0682
18545W        W35019  16.877  17.288   5.122  0.0721 -0.1185  0.2637
18546W        W35020   9.236   8.148   1.488 -0.0038 -0.1400 -0.1202
18547W        W35021  11.779   6.353   2.171 -0.0975  0.1715  0.1731
18548W        W35022  17.674   3.185   3.725  0.1780  0.2252  0.0648
18549W        W35023   9.789   7.585   3.477  0.0946  0.1415  0.3350
18550W        W35024  14.135  19.217  12.873 -0.0710 -0.1136 -0.0350
18551W        W35025  10.996   0.961   6.004 -0.1940  0.1584 -0.2010
18552W        W35026   3.245  17.742   2.390 -0.1673  0.1368 -0.1372
18553W        W35027  16.091   6.464  12.708 -0.1395 -0.0214 -0.1638
18554W        W35028   4.231   5.179  13.783  0.2968 -0.2020  0.1183
18555W        W35029  14.384  13.291  12.206 -0.1010  0.0937  0.1303
18556W        W35030   0.153  18.151   3.125 -0.3499  0.1079  0.1352
18557W        W35031   6.253  11.186  14.321 -0.0972  0.0413 -0.0749
18558W        W35032  13.769   0.877  13.738  0.1096 -0.0143 -0.0272
18559W        W35033  17.853  19.410  13.055  0.5509 -0.1927 -0.0649
18560W        W35034   3.858  14.253   1.847 -0.3640  0.0910  0.0640
18561W        W35035   5.204   9.126  12.317 -0.0976 -0.0327 -0.0325
18562W        W35036   2.147  13.920  13.884 -0.1502 -0.2513  0.3566
18563W        W35037   6.612  19.331  12.659  0.2114  0.1543 -0.0624
18564W        W35038  18.452   9.665  14.061  0.0920  0.3495  0.2797
18565W        W35039   6.130   6.773   1.345  0.5374  0.3628  0.1125
18566W        W35040  11.114  12.586   3.425 -0.1843 -0.0194 -0.1687
18567W        W35041  14.348   7.346   4.820  0.0057  0.1733 -0.0119
18568W        W35042  18.767  14.983   2.532 -0.3259 -0.2734 -0.2431
18569W        W35043  12.772  10.537   1.953  0.0707 -0.1052  0.0458
18570W        W35044  14.975   9.923   2.714 -0.1790 -0.0955 -0.3173
18571W        W35045  18.759  14.095  13.393 -0.2337  0.1273 -0.0499
18572W        W35046  17.083   6.587  12.703  0.0726 -0.0161 -0.0922
18573W        W35047   4.913  17.873  11.540  0.0102  0.1578 -0.1373
18574W        W35048  16.813   3.792   1.798 -0.0297  0.1682 -0.0466
18575W        W35049  17.453  10.128   0.090  0.0962 -0.1148  0.2234
18576W        W35050  16.159  17.639  13.184 -0.0648  0.0697 -0.0369
18577W        W35051   8.471   9.236  10.999  0.1003 -0.0412 -0.2056
18578W        W35052   8.069   4.237   9.963  0.0088 -0.2185 -0.3950
18579W        W35053   7.304   1.072   1.452 -0.1333 -0.0235  0.1447
18580W        W35054   1.526   2.550  14.392  0.3892 -0.1930 -0.3480
18581W        W35055   4.721   9.851   3.836 -0.3611  0.1279  0.0013
18582W        W35056  10.833  16.980   1.434  0.2114 -0.0742 -0.0653
18583W        W35057   6.030  19.167   9.061  0.1275 -0.0226  0.2652
18584W        W35058   7.615   4.528   0.513  0.0020 -0.1722  0.3734
18585W        W35059  15.280  16.134  11.506  0.1944  0.1083 -0.0916
18586W        W35060  15.014   6.104  14.621 -0.2455  0.0240  0.2687
18587W        W35061   4.441   0.523  10.590  0.0807  0.0894  0.1500
18588W        W35062   1.304   2.160   4.292  0.2278 -0.0148  0.1002
18589W        W35063  17.897  12.876  10.090 -0.1988  0.1314 -0.5410
18590W        W35064   1.428   3.156   4.688  0.2735 -0.1615  0.0167
18591W        W35065   1.848  19.244   4.246  0.0642 -0.2470  0.1941
18592W        W35066   0.579  15.796  14.349 -0.0344 -0.1666 -0.1903
18593W        W35067   9.049   4.995  11.775 -0.0598  0.0837 -0.0956
18594W        W35068   3.319   6.861   2.057 -0.2714  0.2327  0.0080
18595W        W35069  16.050   4.196  13.852  0.0889 -0.0225 -0.1725
18596W        W35070  11.782   8.030   4.172  0.1227 -0.1052  0.1565
18597W        W35071   5.152  14.352  14.479  0.2870 -0.0822  0.0843
18598W        W35072   5.291  17.956  10.741  0.1025  0.0095 -0.0557
18599W        W35073   2.380  10.509  12.115  0.1452 -0.0700 -0.2319
18600W        W35074   4.485  11.091   2.820 -0.1448 -0.2161  0.3290
18601W        W35075   2.215  13.002   3.745  0.1952 -0.1704  0.1613
18602W        W35076  17.609   5.051  11.425  0.4414 -0.0192  0.2169
18603W        W35077   6.712   5.545   5.081  0.1831 -0.0550  0.1933
18604W        W35078   3.759  13.637   4.012  0.0202 -0.1137  0.0275
18605W        W35079   9.882  14.557   2.751  0.1617  0.2238  0.2509
18606W        W35080  19.383   3.216   3.536  0.0661 -0.1631  0.1399
18607W        W35081  17.880   2.202   4.337  0.0177  0.1823  0.0374
18608W        W35082  11.364   1.736  11.716  0.0481  0.0525  0.5496
18609W        W35083   6.405   2.494  11.326  0.1255 -0.0635 -0.1071
18610W        W35084  16.377   5.429   9.116 -0.1283  0.0879  0.3192
18611W        W35085   6.371  16.795   4.363 -0.2682  0.0586  0.2467
18612W        W35086   8.083  10.188   3.527 -0.0420  0.0997 -0.1026
18613W        W35087  10.846  10.272   4.264 -0.2455 -0.5757 -0.2190
18614W        W35088   7.600  12.534   3.204  0.0716 -0.1214  0.1032
18615W        W35089  10.582   7.584   3.892  0.1727 -0.1078  0.0517
18616W        W35090   7.210  18.704   1.307 -0.0010 -0.1963 -0.0284
18617W        W35091   2.151   2.022   3.053  0.1576 -0.0070 -0.4682
18618W        W35092   8.224  17.835  14.719 -0.0602  0.3087 -0.0203
18619W        W35093   3.193   1.664   2.091  0.2168  0.1236  0.2208
18620W        W35094   4.305  19.131  13.003 -0.2647 -0.1366  0.1850
18621W        W35095  16.042   0.720   1.736 -0.1803 -0.4151 -0.1643
18622W        W35096  13.970  11.427   1.038 -0.1839  0.5303  0.0777
18623W        W35097   9.129  16.531  14.325 -0.3589  0.1322  0.0375
18624W        W35098  11.539   4.561  12.385 -0.1796  0.2224 -0.2065
18625W        W35099   8.011   2.968  11.160 -0.2236  0.0958  0.1895
18626W        W35100  10.148  15.538   2.659  0.1583 -0.1484 -0.2690
18627W        W35101  16.515  16.989   3.359  0.4220  0.0698 -0.3753
18628W        W35102  19.383  13.892   1.939 -0.1346  0.2455 -0.0607
18629W        W35103  18.916  16.719  12.190 -0.1981 -0.2344  0.2072
18630W        W35104  12.699  17.806   1.839  0.1807 -0.0828  0.2998
18631W        W35105   6.653   5.672  11.250  0.1291  0.1125  0.0093
18632W        W35106   6.464   6.416   3.825 -0.1199 -0.3445 -0.0159
18633W        W35107   0.553  14.537  13.066  0.2200  0.0708  0.0606
18634W        W35108  10.117   3.630  12.672 -0.1375 -0.0408 -0.0850
18635W        W35109  12.284   3.709  12.574  0.0217  0.1129 -0.4509
18636W        W35110  13.938   7.384   5.137  0.2782  0.0252  0.4477
18637W        W35111  13.781   0.193   0.239  0.1090  0.0268  0.1430
18638W        W35112  13.861   5.725   1.476 -0.1656 -0.2157  0.0135
18639W        W35113  17.936  14.318   0.342 -0.1292  0.3740 -0.3192
18640W        W35114   1.611   9.949   4.203  0.0582  0.1974  0.2161
18641W        W35115   2.293  13.199  14.450 -0.1725  0.1778  0.0204
18642W        W35116   0.511  15.315  12.051  0.0132  0.0596  0.2778
18643W        W35117  17.797   6.836  11.818  0.0814  0.0143  0.1061
18644W        W35118  10.251  14.763  14.407  0.2411 -0.0069  0.0882
18645W        W35119  11.899  16.907  14.136  0.1380  0.0254  0.3683
18646W        W35120  17.242   6.219  11.976  0.0148  0.1464 -0.0092
18647W        W35121   7.415  12.599  13.401  0.1290 -0.0210  0.1364
18648W        W35122  16.477   1.950   2.069  0.1148  0.3677  0.2113
18649W        W35123   9.592   5.271  12.308 -0.0494  0.0763  0.2172
18650W        W35124  14.451   1.388   4.910  0.1170 -0.0116 -0.2028
18651W        W35125   4.913   6.815   4.996  0.0434 -0.2078 -0.0589
18652W        W35126   4.763   4.242   4.722  0.1202 -0.0703 -0.1954
18653W        W35127  12.668   6.316  13.890 -0.0939  0.0700  0.2521
18654W        W35128   4.161  17.927   3.862  0.1270 -0.0057  0.0073
18655W        W35129  19.568   6.636  11.097  0.0884 -0.2340  0.1802
18656W        W35130   5.952   0.128  11.520  0.0117 -0.0382 -0.2326
18657W        W35131  15.207   5.480  13.038 -0.0046  0.1871 -0.1756
18658W        W35132  17.348   6.141  13.386  0.0279  0.1067  0.0621
18659W        W35133  13.456  17.107  10.103 -0.3511 -0.0017  0.0101
18660W        W35134   4.389   5.668  13.877 -0.2413 -0.0509  0.4426
18661W        W35135  16.602   3.987   2.725 -0.3943 -0.2853 -0.0709
18662W        W35136   8.788   5.285  13.133  0.3387  0.0551 -0.0439
18663W        W35137  11.741   1.547  12.169 -0.1819  0.1678 -0.1092
18664W        W35138  18.639  15.115   1.587  0.0227  0.0050 -0.0687
18665W        W35139  13.793  16.485  11.694  0.1021  0.1603 -0.1331
18666W        W35140  12.897   1.313   0.804 -0.0509  0.4709 -0.2022
18667W        W35141   7.020  14.020  13.388 -0.1932  0.4249  0.1305
18668W        W35142  11.456   4.689  14.467 -0.0066 -0.0156  0.0054
18669W        W35143   0.607  18.502   1.906  0.1490  0.1658 -0.0127
18670W        W35144  14.197  11.013   0.283  0.3289 -0.0882  0.0386
18671W        W35145  10.908  13.929  11.183 -0.1886 -0.0691  0.1701
18672W        W35146  18.634  15.220  11.017  0.1144 -0.1578  0.1653
18673W        W35147   5.248  13.626  11.693  0.2837  0.4971  0.3206
18674W        W35148  11.022   4.907   0.618  0.6807  0.2562  0.0153
18675W        W35149   2.654  16.039   0.570  0.1367 -0.0157  0.1350
18676W        W35150   7.407   7.025   0.536  0.3547  0.2150  0.1195
18677W        W35151  12.459   1.776  11.792 -0.0344 -0.1193 -0.1073
18678W        W35152  13.378  12.562  13.139 -0.4444 -0.3759  0.3216
18679W        W35153   2.548  19.562   5.542  0.2544  0.2172  0.2015
18680W        W35154   6.552   0.284   2.912  0.0797 -0.4053  0.2676
18681W        W35155  11.293  15.299   1.315 -0.1541  0.2403 -0.2765
18682W        W35156   7.515  17.763  11.650 -0.0922  0.0184 -0.0717
18683W        W35157  16.808  19.357   3.331  0.2993 -0.1410 -0.0247
18684W        W35158   2.512  12.710  14.473 -0.1072 -0.4094  0.1679
18685W        W35159  18.223   5.478   0.152  0.1401 -0.0180  0.2871
18686W        W35160  10.660   1.485  12.148 -0.3322 -0.2622 -0.2253
18687W        W35161  11.163   9.554  13.025 -0.3531  0.5521 -0.1958
18688W        W35162   5.347   4.587   5.685  0.3126  0.1655  0.0790
18689W        W35163   3.227   6.781   5.516  0.3355 -0.2302  0.1521
18690W        W35164   4.860   2.532   9.598 -0.3506  0.2079  0.1952
18691W        W35165   4.751  12.469  14.111  0.0921 -0.0348 -0.2483
18692W        W35166   5.068  11.782  13.575 -0.0682 -0.0287 -0.3056
18693W        W35167  17.432  15.248   4.354  0.3915 -0.1745  0.0946
18694W        W35168  13.294   6.471  14.042 -0.0953 -0.1861  0.0801
18695W        W35169   7.044   9.045   3.563 -0.1020  0.1576  0.1707
18696W        W35170  14.157   5.585   3.997  0.0978  0.0640  0.2554
18697W        W35171   4.871  11.191  14.277 -0.0047  0.2824  0.1669
18698W        W35172  15.735   8.079   0.758 -0.1450  0.5669  0.0042
18699W        W35173   6.762   4.847   4.553  0.3945 -0.2772  0.3181
18700W        W35174  10.705   9.800   4.146 -0.2081 -0.0367  0.1859
18701W        W35175   0.984   0.081   4.235  0.2922 -0.1351 -0.2503
18702W        W35176  10.475  15.000  12.911  0.2969  0.0362 -0.2311
18703W        W35177  16.688  15.522  14.010 -0.0803 -0.1459 -0.0442
18704W        W35178   0.326   4.843  10.520 -0.0824  0.0798 -0.3005
18705W        W35179   3.961  18.772  11.984  0.2207  0.1699  0.1348
18706W        W35180  11.600  18.029   3.384 -0.0509  0.0946  0.2391
18707W        W35181  17.696   7.803   0.408  0.2953 -0.0259 -0.0912
18708W        W35182  10.063  19.402  10.655 -0.0596 -0.0363 -0.2191
18709W        W35183  10.064   2.938  12.088 -0.1985 -0.0555  0.2540
18710W        W35184   1.480  11.494  11.231 -0.2289  0.0666  0.0589
18711W        W35185  13.470  10.702  11.716 -0.0922  0.2939 -0.0892
18712W        W35186   2.600   4.085   5.050  0.3199 -0.1339 -0.4342
18713W        W35187  15.957  13.132   2.636 -0.2251 -0.2912 -0.2515
18714W        W35188  13.207   2.454  11.586 -0.0588  0.0386 -0.0311
18715W        W35189   7.061  10.270   3.146 -0.0587 -0.0299 -0.1316
18716W        W35190  10.132   6.225  14.665  0.0389  0.1267 -0.0951
18717W        W35191  15.869   2.773   0.115  0.1650 -0.0797  0.1281
18718W        W35192   1.402   3.740   0.805  0.0235  0.2615 -0.1770
18719W        W35193  10.406   7.597  14.134 -0.1024 -0.0779 -0.1284
18720W        W35194  12.438  10.299   0.849 -0.0535  0.1213  0.2798
18721W        W35195   2.537  13.872   2.606  0.1013 -0.1171 -0.2090
18722W        W35196   2.293   6.996   4.868 -0.2862 -0.2211  0.1372
18723W        W35197  15.667  14.209   3.693 -0.0164  0.1938  0.1023
18724W        W35198   3.048   7.652   2.247 -0.0588  0.3000  0.0517
18725W        W35199   2.901   9.247  14.341 -0.1648  0.1882 -0.2574
18726W        W35200   6.041  17.796  11.023 -0.0158  0.0175 -0.3150
18727W        W35201   7.128  10.840   0.523  0.0762  0.2973 -0.1400
18728W        W35202   1.068  12.798   0.879  0.2720 -0.0794  0.1040
18729W        W35203   3.754  11.516  12.150  0.1368  0.0896 -0.2101
18730W        W35204  16.642   1.860   1.460  0.3522  0.4731  0.0987
18731W        W35205  16.081   9.443   0.062  0.0197 -0.2322 -0.1714
18732W        W35206   1.468  10.702  10.653  0.0770 -0.0607 -0.3334
18733W        W35207  13.730   9.108  12.315 -0.0879  0.0521 -0.1801
18734W        W35208  11.835  13.187   3.099  0.2176 -0.1244 -0.2146
18735W        W35209  17.812  14.946  11.455  0.0463  0.0619  0.1856
18736W        W35210  12.600   6.650  12.387  0.1499 -0.1796 -0.0105
18737W        W35211  14.845   0.469   1.225  0.3127  0.3225  0.3076
18738W        W35212   7.214   5.678   1.325  0.1006  0.3885  0.1706
18739W        W35213   9.834   1.471   2.182 -0.0243 -0.1104  0.0343
18740W        W35214   8.084   9.522   0.520  0.2366 -0.0179 -0.0300
18741W        W35215   1.287  10.816   1.199 -0.4162  0.0618  0.1812
18742W        W35216  18.040   8.558   4.338 -0.1823  0.0620  0.3205
18743W        W35217   0.745   6.249   0.618 -0.0555  0.1005 -0.0745
18744W        W35218   5.436   4.401  11.010  0.2346  0.1719 -0.0942
18745W        W35219  15.485  12.310   4.484  0.1641 -0.2804  0.1376
18746W        W35220  10.912   9.249   4.221 -0.0628  0.0252  0.0438
18747W        W35221   4.753  15.671  10.245 -0.1870 -0.1061  0.1785
18748W        W35222  13.282   8.171   4.116 -0.0625 -0.0690  0.1285
18749W        W35223  13.551  14.273  12.775  0.1366  0.1614  0.0957
18750W        W35224  13.656  18.081   0.312  0.1367  0.2694 -0.1886
18751W        W35225  13.982   8.945  10.781  0.2415  0.2106 -0.0525
18752W        W35226   2.866   4.680  10.458 -0.1227  0.4994 -0.0385
18753W        W35227   3.272  17.476   4.678  0.0379 -0.1009  0.2372
18754W        W35228  14.498  11.096  11.470 -0.2547  0.0004 -0.0164
18755W        W35229   7.508  11.479  10.300 -0.0852  0.1499 -0.2065
18756W        W35230   7.005  13.916   2.362 -0.1076  0.2574  0.0170
18757W        W35231   9.894   5.701  13.023  0.0369 -0.2104 -0.0560
18758W        W35232   0.230  19.438   4.364  0.0446  0.0097 -0.2615
18759W        W35233   6.029   4.111   4.828 -0.1507 -0.1132 -0.1896
18760W        W35234  17.422   4.670   0.309 -0.0861  0.1472 -0.1296
18761W        W35235  18.337  18.366   0.704 -0.0979 -0.3528  0.2067
18762W        W35236  10.589  13.936   3.810 -0.1856  0.3226  0.3941
18763W        W35237   0.995   0.202   0.272  0.0327 -0.2092  0.0154
18764W        W35238   9.315  11.724   4.521 -0.0839  0.1759  0.0224
18765W        W35239  13.467   9.035   3.847  0.2771 -0.1502  0.1908
18766W        W35240   7.335   3.888   0.491  0.0028  0.1392  0.3229
18767W        W35241   7.588  12.353  12.823  0.4120  0.0904 -0.0809
18768W        W35242   9.449  16.993  12.627  0.3700  0.1465  0.0714
18769W        W35243  16.972   9.984   5.131 -0.1869 -0.1998  0.1779
18770W        W35244   9.760  18.134  10.221  0.3123  0.0079  0.1087
18771W        W35245   6.673   2.289  12.709  0.0029  0.2504  0.0524
18772W        W35246   2.139  11.626  10.392 -0.0873 -0.4935 -0.1570
18773W        W35247   8.656   1.069   0.512 -0.4743  0.0538 -0.0825
18774W        W35248  13.571   9.309  11.887  0.2453  0.6515  0.4372
18775W        W35249   8.679   0.559   0.030  0.0982  0.1029 -0.0270
18776W        W35250  18.594  10.567   3.680 -0.1122  0.1131 -0.1213
18777W        W35251   7.934  11.830   4.701  0.0620 -0.0120 -0.1829
18778W        W35252  15.415  17.720  10.581 -0.5051 -0.1366  0.0511
18779W        W35253  13.002   1.464  13.295 -0.0148  0.1305  0.2274
18780W        W35254   7.888   9.902  11.962 -0.0054 -0.0468  0.0423
18781W        W35255   5.132   7.285   3.458  0.1956  0.2871 -0.1282
18782W        W35256  12.591   4.535   0.408  0.0656  0.1395 -0.0547
18783W        W35257   4.948   8.197   2.195 -0.0964  0.1300 -0.3090
18784W        W35258  16.637  17.443  11.085 -0.0911 -0.0899  0.2632
18785W        W35259  14.415  16.471   2.274 -0.2509 -0.1073  0.4878
18786W        W35260   1.329  18.834  12.182  0.0552 -0.1724 -0.3291
18787W        W35261  14.142   8.311  13.193  0.0165  0.0601  0.2781
18788W        W35262   3.359  15.958   4.000  0.1428  0.1207  0.3070
18789W        W35263   1.849   0.678   3.388  0.1362 -0.1429 -0.3118
18790W        W35264  10.839   2.771  10.619  0.0345 -0.2071 -0.1849
18791W        W35265  11.326   4.087   3.465  0.2022 -0.1645 -0.0597
18792W        W35266  12.024   8.900   5.095 -0.1686  0.1982 -0.2819
18793W        W35267  19.302  17.022   3.535 -0.1143 -0.3640  0.2304
18794W        W35268   7.493   2.302  10.553  0.0625  0.1623  0.3118
18795W        W35269   7.853  11.369   0.081 -0.3851  0.0898 -0.1047
18796W        W35270  16.384  13.319  11.480  0.2267 -0.0486  0.0935
18797W        W35271   6.718  18.342  10.451 -0.1499 -0.2684  0.0879
18798W        W35272  19.551   4.864   2.661 -0.0611 -0.1116  0.1807
18799W        W35273  16.841   4.110   3.205 -0.0332  0.1270  0.1966
18800W        W35274   3.367  17.954  10.899 -0.1108  0.1662 -0.0126
18801W        W35275  13.437   0.394   4.664 -0.1302 -0.1716 -0.0921
18802W        W35276   3.945  16.320  13.484 -0.2572 -0.4584 -0.0612
18803W        W35277  10.954  12.100  12.142  0.1099 -0.0230 -0.0954
18804W        W35278   2.926   1.777   0.984  0.0535 -0.0368 -0.0043
18805W        W35279   8.214  11.962   1.476  0.3851 -0.0355  0.0820
18806W        W35280  12.240   3.835   3.324 -0.0286 -0.0776  0.0216
18807W        W35281  12.598   7.784  13.316 -0.0811 -0.1036  0.0201
18808W        W35282   2.979   0.929   4.391  0.2026  0.1266 -0.2189
18809W        W35283  17.589   6.995  13.304  0.1048 -0.0917  0.1092
18810W        W35284  17.879  13.013  10.610 -0.1860  0.0152 -0.2916
18811W        W35285  15.209   0.468  13.982  0.0021  0.0741 -0.1841
18812W        W35286   7.773   8.617   3.321 -0.0608 -0.0851  0.3041
18813W        W35287   5.539  12.533   3.043 -0.1122 -0.2172  0.0330
18814W        W35288  17.384  17.978  13.555  0.0714 -0.1240 -0.5358
18815W        W35289  11.362   3.543  12.469 -0.1254 -0.2087  0.2427
18816W        W35290  13.454  10.331   3.665 -0.1023 -0.1324  0.2350
18817W        W35291  18.353  16.762   4.019  0.3959  0.0277 -0.0340
18818W        W35292   6.563   6.108   0.786  0.3178 -0.0814 -0.2423
18819W        W35293   2.722   0.380   1.006  0.0080  0.3008 -0.1190
18820W        W35294   4.058   1.852  13.514 -0.1066 -0.0517 -0.0001
18821W        W35295  15.424   9.673   3.247  0.2974 -0.1419 -0.0913
18822W        W35296   9.669  18.520  12.380 -0.0306  0.0921 -0.3157
18823W        W35297  17.771  10.671  11.327  0.0379  0.1509  0.2093
18824W        W35298  13.056   7.355   1.004 -0.1396 -0.3231 -0.1020
18825W        W35299  15.077  17.913   2.314 -0.1823  0.2482 -0.1007
18826W        W35300   1.349  11.804  10.782 -0.0158 -0.2995 -0.2514
18827W        W35301  13.144   4.216   3.177  0.0167 -0.1025 -0.1339
18828W        W35302   9.644   8.428  12.517  0.2012 -0.4449  0.3229
18829W        W35303   6.653  13.816   2.711 -0.0828  0.1930  0.4315
18830W        W35304  10.004   6.990  12.816  0.3581 -0.0039 -0.0857
18831W        W35305  12.146   0.136  11.718  0.3126 -0.1427  0.1083
18832W        W35306   5.562   4.789   9.598 -0.1278  0.1126  0.3622
18833W        W35307   2.599  10.536   0.106 -0.0138  0.1586  0.0179
18834W        W35308  11.702   7.653   5.322 -0.0784  0.1795  0.7708
18835W        W35309  13.098  10.603   2.305  0.0658 -0.0130  0.2074
18836W        W35310   2.695   2.873  12.309  0.0800  0.0709 -0.0230
18837W        W35311  11.335  12.254  12.503  0.1116 -0.1126  0.1333
18838W        W35312   2.148  12.752  10.367 -0.0045 -0.2728  0.1470
18839W        W35313   8.691  12.637   1.934 -0.1813 -0.3657  0.0951
18840W        W35314  12.500  12.513  13.277 -0.1846  0.4175 -0.1119
18841W        W35315   8.811  15.354   2.231  0.0518  0.1686  0.1337
18842W        W35316   3.327  10.069  14.541 -0.0233 -0.2607  0.0675
18843W        W35317   9.920  16.905  10.557 -0.0555  0.1693 -0.2392
18844W        W35318  16.615   5.554   2.176  0.2989  0.3183  0.0538
18845W        W35319   5.531  11.390  11.729 -0.0757  0.3107  0.3434
18846W        W35320  16.657  13.187   2.094  0.2174 -0.0207  0.0375
18847W        W35321  13.657  13.471   3.679  0.2144 -0.0309 -0.0379
18848W        W35322   7.010   0.689   4.543  0.0784 -0.0376  0.0926
18849W        W35323   1.289  18.596   0.124 -0.0251  0.1848  0.2113
18850W        W35324   7.961  15.151   1.602 -0.3297  0.0016 -0.0711
18851W        W35325  16.817   6.863   2.936  0.1106  0.0116  0.1443
18852W        W35326   4.740   1.519  10.692 -0.0224 -0.0452 -0.2807
18853W        W35327  13.307   7.047   0.601  0.2200  0.0745 -0.2686
18854W        W35328   4.313  15.589   9.974  0.1312 -0.0517  0.1185
18855W        W35329   4.183   9.452  11.296 -0.0402  0.0880 -0.1636
18856W        W35330   5.071  18.137   3.585 -0.0555  0.0144  0.1085
18857W        W35331  13.389  15.048   0.657 -0.1163 -0.3000 -0.1390
18858W        W35332   7.828  10.357  11.833 -0.1538 -0.0908 -0.1838
18859W        W35333  11.581  18.823  13.342 -0.1807 -0.1865  0.4202
18860W        W35334  17.948   0.815   0.263 -0.1796  0.2264  0.0034
18861W        W35335   8.404   7.236  11.910  0.0687 -0.0687  0.4715
18862W        W35336   8.299   4.139   3.985 -0.1544 -0.3389  0.1641
18863W        W35337  11.690  16.834   2.551 -0.1252 -0.0797  0.2454
18864W        W35338   8.878  18.216   2.066  0.0840 -0.0438 -0.0344
18865W        W35339  17.790   7.903   3.984 -0.0631 -0.0709  0.1253
18866W        W35340  18.941  12.166   2.057 -0.0858 -0.2129  0.0554
18867W        W35341   4.527   9.251  13.654  0.2139 -0.1070  0.1180
18868W        W35342  19.291  10.207   3.333  0.1269  0.1875  0.1961
18869W        W35343   9.076  12.902  12.676  0.1084  0.0817 -0.1935
18870W        W35344  16.697  15.028   2.772 -0.1226 -0.0331 -0.0576
18871W        W35345   8.956  17.809   3.718 -0.1592 -0.1845 -0.0186
18872W        W35346   8.318  19.351  14.420 -0.3939  0.0818 -0.2557
18873W        W35347   4.158   2.658   1.968 -0.3795  0.0872 -0.2591
18874W        W35348  17.113  11.813   4.746  0.1438  0.4686 -0.0037
18875W        W35349   8.474  11.744  10.809  0.1587 -0.0116 -0.0809
18876W        W35350  12.862   8.134  12.471  0.1292 -0.0982 -0.0981
18877W        W35351  11.901  16.159   4.152  0.0814 -0.1194 -0.0949
18878W        W35352   0.330  18.430   0.155 -0.2002 -0.1430 -0.0972
18879W        W35353  18.725   1.617  10.552 -0.0924  0.1600  0.1010
18880W        W35354   2.742   9.434   2.742 -0.0572  0.0714 -0.1085
18881W        W35355   6.881  12.389   1.732  0.0951  0.1760 -0.0613
18882W        W35356  12.864   3.953   2.205  0.0991 -0.0222 -0.2450
18883W        W35357  11.050  18.309   9.285 -0.2923 -0.1108  0.0534
18884W        W35358  15.612   3.195   3.338 -0.1076 -0.3442 -0.1017
18885W        W35359  13.824  19.401  10.058  0.1599  0.0395  0.0107
18886W        W35360  12.766   2.098  11.495  0.2441  0.0514  0.1820
18887W        W35361   7.874   1.329  11.150 -0.0940 -0.2256 -0.1169
18888W        W35362   1.035   9.600  11.116  0.0664  0.1216  0.1780
18889W        W35363   8.268  17.181  12.635 -0.0327 -0.0667  0.1058
18890W        W35364   5.041  17.865  13.759  0.0436 -0.1455  0.3204
18891W        W35365   7.431  15.751  14.242  0.0082 -0.0929 -0.2766
18892W        W35366  15.826  18.473  12.587 -0.1554 -0.1550 -0.1407
18893W        W35367   7.046   4.158  13.954  0.0498  0.2698 -0.5559
18894W        W35368   9.549  13.703   4.044 -0.2011  0.1230  0.0870
18895W        W35369   8.658  10.556   2.540 -0.2602  0.1028 -0.2740
18896W        W35370   7.914   2.478   1.323 -0.0018 -0.1548 -0.0434
18897W        W35371   8.841  11.277  13.772  0.0458 -0.0020 -0.0033
18898W        W35372  10.457   4.149  13.854 -0.0351 -0.5122 -0.1799
18899W        W35373  13.362   3.179  12.091  0.1216 -0.1352  0.0498
18900W        W35374  13.779  11.270  13.652 -0.0733 -0.0648  0.2751
18901W        W35375  11.126   4.059   1.144  0.1884  0.4086 -0.1535
18902W        W35376  12.588   2.768   5.176  0.1092  0.0679  0.1380
18903W        W35377  16.524  11.253  12.061  0.1272 -0.2791  0.2993
18904W        W35378   2.513  10.354   0.889  0.0756  0.1353 -0.0059
18905W        W35379   0.899  11.552   0.798 -0.1847 -0.0473 -0.2056
18906W        W35380   3.556   7.068   5.182  0.0102 -0.2685  0.0197
18907W        W35381  17.479  12.298   4.533 -0.0254  0.1584  0.0713
18908W        W35382  10.196  10.042  11.484 -0.2966  0.0807 -0.1236
18909W        W35383  13.901   8.717   5.185 -0.1140 -0.1281  0.2224
18910W        W35384   1.580   6.785   0.709 -0.0635  0.0152  0.0206
18911W        W35385   4.098  10.210  11.135 -0.0395 -0.0248  0.0706
18912W        W35386  15.851  13.542  11.405 -0.0181  0.0879  0.3634
18913W        W35387   2.652   9.358  10.302  0.0950 -0.0323 -0.0772
18914W        W35388  17.648  17.479  11.065  0.0072 -0.0800  0.0164
18915W        W35389  15.166   0.944  13.957  0.2892  0.1294  0.0188
18916W        W35390   1.768  11.589   3.949  0.6277  0.2183 -0.0582
18917W        W35391   4.512   1.367   0.254 -0.1281 -0.0578  0.1272
18918W        W35392  15.165  16.335  13.334 -0.2861  0.1222  0.0850
18919W        W35393  17.100   8.520  13.649 -0.1277  0.0675  0.1135
18920W        W35394   7.536  14.937   2.463  0.2578  0.0645 -0.2602
18921W        W35395  14.754   1.575  13.324 -0.1803 -0.2075 -0.2229
18922W        W35396   2.694   8.303   1.011 -0.1513 -0.0762 -0.0515
18923W        W35397  13.635  13.426   1.410  0.4621  0.1939 -0.2103
18924W        W35398  11.705   2.376  12.160 -0.0737  0.0449  0.1842
18925W        W35399  18.909  13.949   9.179 -0.1594 -0.2230 -0.0948
18926W        W35400   7.904   4.542   3.162  0.1135  0.4380 -0.1009
18927W        W35401  18.947   4.703   2.179 -0.2134 -0.3455 -0.0398
18928W        W35402   7.134  10.968  13.291  0.0619  0.2902  0.1651
18929W        W35403  11.461   1.902   1.250 -0.2512 -0.2932  0.3673
18930W        W35404  10.464   6.404   3.127  0.1756  0.2617 -0.1996
18931W        W35405  15.410   7.849  13.305 -0.0989 -0.0136  0.2807
18932W        W35406   5.275   9.519   0.672 -0.0999 -0.1277 -0.1473
18933W        W35407  17.842   4.172   3.337 -0.0611 -0.2985  0.0098
18934W        W35408  12.826   5.109   4.923 -0.1774  0.1326  0.1112
18935W        W35409  16.501   3.373   1.970 -0.0023  0.1575 -0.1873
18936W        W35410  11.666  12.507  13.217 -0.1294  0.2068  0.1542
18937W        W35411  10.795  15.334  13.732  0.0289  0.1938 -0.2815
18938W        W35412  17.650   4.490  14.471  0.3613 -0.0267  0.0137
18939W        W35413  19.012   5.106  11.860 -0.0621  0.0227  0.0175
18940W        W35414   3.948   2.056   4.749  0.2647 -0.0132 -0.1342
18941W        W35415   5.586   1.113   1.117 -0.1746  0.0068  0.4576
18942W        W35416  16.824   2.078  13.673 -0.2162 -0.0520  0.3944
18943W        W35417  16.379  15.482  13.132 -0.2962  0.1507  0.0556
18944W        W35418   3.527  13.869  12.351 -0.1438  0.3679  0.1755
18945W        W35419  19.346   1.813   3.722 -0.2282 -0.2987 -0.0949
18946W        W35420  12.847   4.265  13.541  0.0165 -0.0724 -0.0239
18947W        W35421   4.699  17.766   2.799 -0.0616  0.4245 -0.2960
18948W        W35422  15.994  13.324   1.673 -0.5184  0.3463  0.0338
18949W        W35423   2.023  15.428  10.845  0.1972  0.4795 -0.0265
18950W        W35424   5.696  11.457   3.177 -0.2210 -0.0716  0.1027
18951W        W35425  18.983   3.265   1.438 -0.1779  0.0552 -0.2644
18952W        W35426  13.662  16.086  13.825  0.2385  0.1603  0.0137
18953W        W35427  15.701   3.552  10.588  0.0940 -0.1617  0.1911
18954W        W35428  18.954   9.275   5.173 -0.1471  0.1313 -0.2673
18955W        W35429   5.415  17.146   9.958 -0.0614  0.1333 -0.2233
18956W        W35430  15.460   1.153   1.182  0.2611  0.3516 -0.3514
18957W        W35431  15.384   8.503   1.425  0.0498  0.2450 -0.0421
18958W        W35432   5.824   8.022   3.272  0.0060  0.2476 -0.1005
18959W        W35433   5.485   5.301   0.121 -0.0983 -0.0903 -0.0176
18960W        W35434  18.121   1.489   3.787 -0.1168 -0.0232 -0.1014
18961W        W35435  15.841  16.174   3.143 -0.2562  0.4074 -0.1765
18962W        W35436   4.321  17.416   1.475  0.0401  0.0184  0.0182
18963W        W35437  12.944  18.649  12.589 -0.0462 -0.0172 -0.0631
18964W        W35438  11.905  19.349   0.761  0.1909  0.1811 -0.1467
18965W        W35439   2.365   1.311   2.381 -0.3411 -0.0745 -0.0609
18966W        W35440   6.539   2.971   1.466  0.0419  0.0714  0.2618
18967W        W35441   5.888  18.730  13.790 -0.0784 -0.2416  0.2457
18968W        W35442   9.923   1.775  12.663 -0.1435  0.2051 -0.1238
18969W        W35443  14.161   1.498   1.389 -0.2231  0.2277 -0.2913
18970W        W35444   1.341   2.784   5.055 -0.2021 -0.3892 -0.0912
18971W        W35445  19.164   5.634   0.595  0.2424 -0.0182  0.0188
18972W        W35446  14.291  16.713  14.082  0.0051  0.2179 -0.0627
18973W        W35447   0.749  16.865  12.943 -0.4363 -0.4385  0.0171
18974W        W35448   0.372  11.294  14.233 -0.2075 -0.1224 -0.0049
18975W        W35449   1.535   9.739  13.170  0.1744  0.0049  0.1604
18976W        W35450  11.244   3.410   0.351 -0.4830 -0.1967  0.2373
18977W        W35451  17.960  14.193   2.609  0.0854 -0.3186  0.0569
18978W        W35452  10.617   3.787  10.969  0.1021  0.0328  0.2480
18979W        W35453  18.464   3.553   2.355  0.0391 -0.1017 -0.0489
18980W        W35454   3.452   4.698  10.462  0.0783  0.2891  0.1950
18981W        W35455   7.474  16.743   2.442 -0.2844  0.2155 -0.0462
18982W        W35456  13.962  16.563  13.691 -0.0812  0.3345  0.1536
18983W        W35457  13.678  12.165   3.495 -0.3049 -0.0023  0.0842
18984W        W35458  10.752   2.722  14.508  0.1144  0.2322 -0.3032
18985W        W35459   4.004   6.643   0.222 -0.0671 -0.1370 -0.0526
18986W        W35460   2.566  15.577  12.718 -0.0186 -0.0003 -0.0060
18987W        W35461  13.736  19.276   3.545  0.2539  0.3972 -0.1076
18988W        W35462  11.450  10.397   0.991 -0.2174 -0.0698  0.1873
18989W        W35463  10.324  18.055   3.109 -0.0135  0.1459  0.0975
18990W        W35464   6.463  17.452   0.609  0.1027  0.0533  0.0379
18991W        W35465   0.447  19.153   2.873  0.0147 -0.0386 -0.0687
18992W        W35466   4.017  12.321   2.457 -0.1071 -0.0353 -0.0401
18993W        W35467  11.580  17.704  11.483 -0.0726  0.3460 -0.1374
18994W        W35468   5.100  14.656  13.052  0.1131 -0.1701  0.2216
18995W        W35469  12.980   0.370  10.092 -0.0438  0.3250  0.1598
18996W        W35470   2.074  18.944   0.442  0.2764 -0.0174 -0.3092
18997W        W35471  10.790  15.973  11.673 -0.1550 -0.0212 -0.1875
18998W        W35472   0.953   0.562   4.977  0.0471 -0.1473 -0.0645
18999W        W35473   2.824  17.100   0.559  0.0068 -0.1548  0.0472
19000W        W35474   9.848   2.601   1.078  0.0665  0.2621 -0.1099
19001W        W35475  10.566   7.905  12.921 -0.4236  0.4527  0.1011
19002W        W35476   1.408  11.736   9.316  0.1282 -0.0796 -0.1078
19003W        W35477  10.342   6.380   0.957 -0.1417  0.0592 -0.1459
19004W        W35478   6.021   2.870  11.345  0.2679  0.1251 -0.4727
19005W        W35479   1.658   0.946  10.846  0.0553  0.0055 -0.1563
19006W        W35480   8.376  10.856  14.530  0.0501  0.3774 -0.0194
19007W        W35481  11.870   0.946   1.889 -0.0424  0.2974  0.1909
19008W        W35482  14.210   5.257  13.554 -0.0831 -0.0119 -0.2061
19009W        W35483   6.156   1.862   4.880 -0.1111 -0.1256 -0.0316
19010W        W35484  19.015   2.284  12.056  0.0271  0.3319  0.2840
19011W        W35485  13.268  12.713  10.128 -0.0874  0.2158 -0.3144
19012W        W35486   0.786  11.970   5.259  0.0695 -0.2210  0.1281
19013W        W35487  13.913   5.835   4.939  0.3119 -0.0661  0.0097
19014W        W35488   4.953  12.428   2.514  0.0161 -0.2627  0.3492
19015W        W35489   5.837  19.006   1.529 -0.0309  0.1463 -0.0424
19016W        W35490   9.479  18.571   2.052 -0.0517 -0.1073  0.1670
19017W        W35491  17.487   9.944  13.488  0.3487  0.3754  0.1313
19018W        W35492   0.050  15.520  14.454 -0.1381 -0.1406 -0.2567
19019W        W35493  13.119   5.006  10.385 -0.0873  0.2375  0.0962
19020W        W35494  13.761  16.507  11.171  0.0495  0.3218 -0.1754
19021W        W35495   8.163   7.414  10.836  0.2891  0.1004  0.4134
19022W        W35496   6.506  15.480   0.039  0.2093 -0.1329  0.0182
19023W        W35497   2.195  10.257   2.645  0.1799  0.0568  0.0739
19024W        W35498  14.053   6.971   1.112  0.0631  0.2620  0.1222
19025W        W35499  11.239  16.664   4.686 -0.0488  0.2614  0.3535
19026W        W35500   0.100  10.181   2.194  0.0095  0.1098  0.0491
19027W        W35501  18.836  14.023   4.073  0.1148  0.1655  0.0795
19028W        W35502  12.944   0.513   1.354  0.1456  0.0856 -0.3965
19029W        W35503   6.654  14.723  10.696 -0.0480  0.1640 -0.0890
19030W        W35504  18.423   0.928  10.949  0.0214 -0.2808 -0.1924
19031W        W35505  13.646  16.025  12.928 -0.0164  0.1401 -0.1931
19032W        W35506   2.013   1.326  14.303 -0.3683 -0.1586  0.1279
19033W        W35507  18.514  11.442  10.318  0.2184  0.2135 -0.0707
19034W        W35508   5.414  12.072   2.102  0.3167  0.1827  0.3503
19035W        W35509   5.272   4.904  11.167 -0.0585  0.1203  0.0552
19036W        W35510   5.039  15.108   4.751 -0.0858  0.0097  0.3633
19037W        W35511  13.767  11.887   1.932  0.3766  0.2292  0.0448
19038W        W35512   6.960   5.652  12.478  0.2456 -0.0467  0.3409
19039W        W35513   5.391   1.686   4.341  0.1415  0.0738 -0.0745
19040W        W35514  14.190  16.118   0.363  0.1169 -0.0307 -0.0290
19041W        W35515   2.197   9.499  11.515  0.2867 -0.2147  0.3072
19042W        W35516   3.656   4.338   3.932  0.0814 -0.0015 -0.2168
19043W        W35517  14.873   2.645  10.130  0.0332 -0.2779  0.2058
19044W        W35518   9.962  18.345  10.574  0.2999 -0.0884 -0.2838
19045W        W35519  13.902   5.639  11.912  0.1678 -0.0118 -0.1274
19046W        W35520  13.173   7.363  13.546  0.0611  0.4988  0.0765
19047W        W35521  15.300  17.894   1.331 -0.0347  0.1088  0.0654
19048W        W35522  13.253  14.807  14.298 -0.0196  0.3255  0.0057
19049W        W35523   1.217   1.614  14.384  0.1210  0.2381 -0.3409
19050W        W35524   0.238  16.086  14.655 -0.1740 -0.2726 -0.3418
19051W        W35525   5.627   0.621  12.154  0.2384  0.0592  0.2631
19052W        W35526   3.490  16.167   5.022  0.1357 -0.0053  0.3095
19053W        W35527  18.234   1.971   3.964 -0.0645  0.2273 -0.1806
19054W        W35528  14.631  12.019   0.797  0.0749 -0.1038  0.2465
19055W        W35529   3.873   1.233   1.477 -0.3085  0.2993  0.2043
19056W        W35530   5.764  10.280   1.400 -0.4946 -0.1239 -0.2501
19057W        W35531  18.482  17.577   3.812  0.0009 -0.4656 -0.3291
19058W        W35532  16.012  12.731  14.689  0.2210  0.0252 -0.2149
19059W        W35533   2.638   9.719   4.310 -0.0779  0.0027  0.2677
19060W        W35534   1.612  16.783   3.611 -0.0680 -0.1543 -0.0077
19061W        W35535  14.976   5.800  12.694 -0.1713  0.1474  0.0440
19062W        W35536   4.578   4.442   0.411  0.1506 -0.2165 -0.1948
19063W        W35537  17.051  16.938  10.594 -0.1832 -0.1110  0.1470
19064W        W35538  10.051  11.656   0.995 -0.1674  0.1011 -0.1025
19065W        W35539  18.194   0.119   2.846 -0.0755  0.0556 -0.0760
19066W        W35540   5.665   6.784   4.268 -0.1085  0.1260  0.0497
19067W        W35541  10.376   9.734  13.830 -0.2987 -0.0816  0.0124
19068W        W35542   4.033   7.441   3.177  0.1653 -0.1322 -0.0185
19069W        W35543   6.758   7.810   5.542  0.2403 -0.0293 -0.2553
19070W        W35544   2.801  16.929   5.339 -0.0038  0.2451 -0.1973
19071W        W35545   0.387   2.170  14.529 -0.2722 -0.1630 -0.0383
19072W        W35546  16.405   8.099   1.838  0.1104  0.0608 -0.1307
19073W        W35547   5.945   7.266   3.022  0.2275 -0.4359 -0.4116
19074W        W35548  17.879   2.974  11.564 -0.0869 -0.3934  0.2432
19075W        W35549  11.186   6.334  12.501 -0.0594  0.0448  0.1095
19076W        W35550   7.360  17.063   2.798  0.0491  0.0129  0.0912
19077W        W35551  14.257   8.885  12.017  0.0873 -0.1651  0.3731
19078W        W35552   5.084  12.484  12.066  0.0948  0.1450  0.1488
19079W        W35553   2.370   6.830   3.927 -0.2947  0.1989  0.2306
19080W        W35554   0.941   6.308   1.149  0.0267 -0.1146  0.1411
19081W        W35555  15.019   8.034   5.594 -0.1174  0.1584  0.0501
19082W        W35556   1.749   7.527  11.358 -0.1156 -0.1391  0.3432
19083W        W35557  11.702   3.580   0.184 -0.1378  0.0830 -0.2715
19084W        W35558   6.092  17.395  11.869 -0.1238  0.1001 -0.1949
19085W        W35559   2.785   6.091   1.764  0.0492 -0.4006  0.0835
19086W        W35560  10.282   1.692  13.288  0.0085  0.0884 -0.2873
19087W        W35561  11.935  11.343  11.390 -0.3747  0.0593 -0.1324
19088W        W35562  18.209  15.448  11.228  0.1303 -0.3418 -0.1393
19089W        W35563   0.315   2.961  11.776 -0.1636  0.2829 -0.1077
19090W        W35564  12.788  11.580   2.554 -0.0687 -0.1854 -0.0916
19091W        W35565   5.968   1.011   9.403 -0.0612 -0.1168  0.0288
19092W        W35566   0.422   3.853   1.665 -0.0578  0.0700 -0.0028
19093W        W35567   7.637   4.763   4.377 -0.0150 -0.0879  0.0445
19094W        W35568   4.917  13.315   1.854  0.2217 -0.3612 -0.1334
19095W        W35569  18.728  12.979  11.879 -0.1108  0.3235 -0.3064
19096W        W35570   3.565   5.545   2.295 -0.3180  0.2269 -0.0383
19097W        W35571   4.312   5.093   1.743 -0.0244  0.1144 -0.1859
19098W        W35572   3.616  13.195   4.804 -0.3244 -0.0204  0.0222
19099W        W35573  12.505  18.740   5.172  0.1320  0.1003 -0.0143
19100W        W35574  13.332   0.129  13.413 -0.0373  0.3943  0.2280
19101W        W35575  13.660  12.063  10.745  0.1472  0.0699 -0.0677
19102W        W35576  19.347   6.546   0.199 -0.2172  0.0964 -0.2052
19103W        W35577   0.294  11.133  11.700 -0.2440  0.0619 -0.3696
19104W        W35578  13.025   2.559   1.623 -0.1469 -0.3712 -0.1985
19105W        W35579   6.281   0.946  11.008  0.1493 -0.0961 -0.0625
19106W        W35580   5.334  10.548  11.987  0.0642  0.1218 -0.0387
19107W        W35581  10.516  13.641   1.485  0.0238  0.0203  0.0543
19108W        W35582   0.080  14.897   2.200 -0.0819  0.1592 -0.1267
19109W        W35583   6.777  15.802   4.465  0.1999  0.3581 -0.0566
19110W        W35584   0.122  10.175   4.612  0.1208  0.3033  0.0829
19111W        W35585   3.096  11.374   3.927 -0.1415 -0.3762  0.2703
19112W        W35586  14.368  11.098   0.792 -0.2122 -0.1577  0.0951
19113W        W35587   0.849   6.532   4.477  0.2958 -0.1700 -0.0828
19114W        W35588   9.676  15.528  12.560 -0.2308 -0.4910  0.1778
19115W        W35589  16.389  15.429   1.682 -0.0935  0.2132  0.0443
19116W        W35590   2.349  15.771  14.294 -0.0881 -0.0822 -0.4963
19117W        W35591  11.916  14.260  14.334  0.0522  0.0745  0.0116
19118W        W35592   1.668  15.578   4.795 -0.0181  0.0098 -0.0915
19119W        W35593   4.740  15.728   9.457 -0.1638  0.3896  0.3261
19120W        W35594  11.042   7.674  11.772 -0.0810  0.5359  0.0242
19121W        W35595   1.015  18.984  13.112  0.0964  0.2977  0.0796
19122W        W35596   7.773   0.096   2.525  0.1868  0.0198 -0.0904
19123W        W35597  12.960   0.402   4.766  0.0747  0.1110 -0.1099
19124W        W35598   0.972   1.696   2.384 -0.0676  0.0514 -0.1874
19125W        W35599   6.164  15.770   1.505  0.0141 -0.0116  0.5608
19126W        W35600   9.228  12.272  12.110  0.0247  0.1441 -0.0069
19127W        W35601   8.453   3.959   2.388  0.1959  0.1647 -0.0238
19128W        W35602   7.765  19.263   1.682  0.0531  0.0509 -0.0082
19129W        W35603  16.659  16.054   5.228  0.0214  0.1204 -0.0110
19130W        W35604  11.998  17.647   0.868 -0.0956  0.2184  0.1081
19131W        W35605   3.596  19.185   2.337 -0.0999 -0.4009 -0.0056
19132W        W35606  14.768  12.814   1.797 -0.0710 -0.1802  0.1657
19133W        W35607   9.773   3.939  11.414  0.0726  0.2320 -0.2668
19134W        W35608  15.427   6.938  13.361  0.1608  0.0883  0.1148
19135W        W35609  13.723   7.434  12.644  0.1667  0.0807  0.0246
19136W        W35610   4.230   8.337   4.825  0.2471  0.2632  0.4322
19137W        W35611   1.195  18.436  13.359 -0.1247 -0.1437  0.0397
19138W        W35612   3.166  13.579   0.120  0.4430 -0.1040  0.2830
19139W        W35613   8.551  16.019   3.682  0.2220  0.0309  0.2142
19140W        W35614  11.197   9.125  14.199 -0.0788  0.2562  0.0107
19141W        W35615   0.296   1.495  13.556 -0.0626  0.0181  0.0300
19142W        W35616   8.368   5.024   0.489 -0.5093 -0.1316  0.0528
19143W        W35617   8.011   8.140   8.991 -0.0608 -0.1875 -0.1215
19144W        W35618   2.585   0.390  10.393  0.2890 -0.0922 -0.3151
19145W        W35619   2.947   4.850  11.904  0.2272  0.0503  0.0254
19146W        W35620   1.480   9.368   4.916  0.0811 -0.0335  0.0454
19147W        W35621  19.274   5.677  11.836 -0.1222  0.0183  0.1215
19148W        W35622  13.548   1.981  10.191  0.0505 -0.1814  0.2986
19149W        W35623  13.567  13.400  12.173  0.3048  0.1290 -0.3034
19150W        W35624   6.713   0.265  13.826  0.0703 -0.0327 -0.1449
19151W        W35625  14.649  12.151   4.904 -0.1504 -0.2256 -0.0784
19152W        W35626   2.178  17.325   2.085 -0.0092  0.1498 -0.2069
19153W        W35627  16.810   8.081  13.611 -0.2562  0.1860 -0.1167
19154W        W35628   2.115   7.823   1.497  0.1703 -0.0454 -0.3858
19155W        W35629  15.640  13.928  13.941 -0.0138 -0.1829 -0.1384
19156W        W35630   1.883  10.435   4.486 -0.1250 -0.2257 -0.3655
19157W        W35631  18.863   2.191  10.130 -0.0746  0.2702 -0.1475
19158W        W35632   2.445   0.359  11.333 -0.0226  0.5230 -0.0446
19159W        W35633  14.899  12.730   9.991 -0.2239  0.0018 -0.0985
19160W        W35634  18.577  15.383  12.144  0.2071  0.3213  0.1641
19161W        W35635   2.990  11.611  11.290 -0.1342  0.3590 -0.0091
19162W        W35636   9.427  19.057  13.001  0.2077  0.0850  0.1412
19163W        W35637  10.670   4.652   1.222  0.0075 -0.0362 -0.1844
19164W        W35638   6.543  10.908   4.106  0.1554  0.0966 -0.2218
19165W        W35639  13.436   1.449  11.298 -0.4743  0.3077 -0.0523
19166W        W35640   6.907   0.016  13.365 -0.1000  0.2302 -0.2185
19167W        W35641  16.078  17.371   4.067  0.0502 -0.0190 -0.2749
19168W        W35642  14.340  14.278  11.513  0.2922  0.1012 -0.4289
19169W        W35643   4.403  13.057   3.731  0.0603 -0.0716 -0.1848
19170W        W35644   6.556   8.221   3.711  0.1548  0.1144 -0.1879
19171W        W35645   5.970   8.334  14.255 -0.3422  0.2143  0.0631
19172W        W35646  15.259   7.740  10.933  0.1117 -0.0026  0.1588
19173W        W35647  16.248   7.062  12.277 -0.1878 -0.4984  0.0955
19174W        W35648  18.915  11.486  11.489  0.0134 -0.1493  0.1991
19175W        W35649   4.197  14.982   2.215 -0.2376  0.1571  0.1291
19176W        W35650   5.565   1.151  10.442  0.2599  0.0100  0.2462
19177W        W35651   0.542   1.138  13.236  0.1563 -0.1124 -0.0689
19178W        W35652   7.207   4.488   1.324  0.3620  0.0391 -0.0515
19179W        W35653   7.722   4.403   2.247  0.0807 -0.2821  0.1895
19180W        W35654  13.497  12.375  14.654 -0.0183  0.0813 -0.0854
19181W        W35655  12.163   4.037  12.182  0.0559  0.0644 -0.1791
19182W        W35656   4.689  12.137  13.708  0.0270 -0.0230 -0.0026
19183W        W35657   4.268   9.166   3.264  0.0689  0.3131 -0.0733
19184W        W35658   7.040   6.312  10.519 -0.0897 -0.2457  0.0227
19185W        W35659   3.860   2.436  12.053  0.0773  0.2850  0.1102
19186W        W35660   2.470  17.987   0.126  0.0721 -0.0004 -0.0583
19187W        W35661  14.114   9.089   4.386  0.1472  0.2271 -0.1069
19188W        W35662   9.282  11.743   2.676 -0.0720  0.4131 -0.1191
19189W        W35663  14.591  13.972   2.709 -0.0799 -0.0524  0.0193
19190W        W35664   5.609   2.044  12.560  0.0003  0.0882  0.2447
19191W        W35665  13.619  18.525  14.638  0.1568 -0.1265 -0.1173
19192W        W35666  17.388  13.872   0.683  0.0243  0.0615 -0.0751
19193W        W35667  15.105   0.711  11.793 -0.0609  0.1558 -0.0390
19194W        W35668   6.143   7.963   3.748 -0.1387  0.2585 -0.0608
19195W        W35669  16.284   0.410  14.107  0.3053  0.1713 -0.5622
19196W        W35670  16.077  12.677   2.864 -0.0196 -0.1805  0.0957
19197W        W35671  14.879  17.165   4.151 -0.0894  0.3812 -0.2443
19198W        W35672  15.616  16.245  13.767  0.0238  0.0050  0.0115
19199W        W35673  17.111  10.453   6.005 -0.0042  0.0774  0.0068
19200W        W35674   2.279  10.370   3.555  0.0140 -0.1463 -0.0523
19201W        W35675  15.790  11.201   4.754  0.1000  0.1410  0.1056
19202W        W35676  13.542   9.360   3.479 -0.2390  0.1354  0.1937
19203W        W35677  12.877   0.085   2.109  0.1847 -0.2109  0.0494
19204W        W35678  12.543   9.951   2.477  0.0249  0.2959 -0.4973
19205W        W35679  19.511   6.815  14.548  0.1987  0.3928 -0.1032
19206W        W35680  14.144  11.378   5.234 -0.1380 -0.1478 -0.0787
19207W        W35681   3.434  17.214  13.408 -0.3297  0.0903 -0.0493
19208W        W35682   4.399  15.424  14.273  0.1173  0.1848  0.1626
19209W        W35683  10.570   1.755   0.534  0.0141  0.1577  0.0745
19210W        W35684   0.694  17.120   0.102  0.0918  0.1091  0.3650
19211W        W35685   2.564   7.668  10.410 -0.0755 -0.0061 -0.3158
19212W        W35686  19.486   1.964   4.608 -0.2551  0.1918  0.0530
19213W        W35687   0.903   3.056   1.277  0.0803 -0.1802  0.1488
19214W        W35688   4.707  19.431   1.256  0.0957 -0.0369  0.0180
19215W        W35689  10.873   3.781   9.644 -0.4811 -0.1239 -0.0849
19216W        W35690   8.539   8.811  10.746 -0.1097  0.2930  0.0291
19217W        W35691   2.541   4.719   2.054 -0.1329  0.0195  0.1017
19218W        W35692   1.189  17.037  13.287 -0.2079  0.1942 -0.0507
19219W        W35693  10.641   0.155  13.277 -0.2867  0.4500 -0.0336
19220W        W35694   5.929   0.659  12.752 -0.3296 -0.2043  0.1267
19221W        W35695   1.281  16.076  12.361 -0.1486  0.3090 -0.0773
19222W        W35696  15.049   8.209   0.752  0.1562  0.0803  0.0671
19223W        W35697  13.947   7.292   1.480  0.1067  0.0311  0.0686
19224W        W35698   9.799   4.042  13.348 -0.3147 -0.4008 -0.1027
19225W        W35699   6.036   4.592   3.752 -0.0133 -0.2538 -0.2080
19226W        W35700  18.920   2.523   0.765 -0.0237 -0.1991 -0.2098
19227W        W35701  16.358  14.243   1.752 -0.0019  0.2451  0.0472
19228W        W35702   2.799   0.665  12.625  0.1757 -0.2707 -0.2785
19229W        W35703   0.407  13.326  13.961  0.2493  0.1155 -0.0954
19230W        W35704   9.670   6.991   2.634 -0.0511 -0.1039 -0.0836
19231W        W35705  14.659  12.059   2.597 -0.3073 -0.3624 -0.1224
19232W        W35706   1.035  10.224   4.833 -0.3385  0.1323 -0.0457
19233W        W35707  16.922  18.349   0.465 -0.1490 -0.0035 -0.1718
19234W        W35708  12.142   2.399  13.267  0.0663  0.0459 -0.1005
19235W        W35709   0.855   4.375   3.284 -0.2776 -0.1008  0.2193
19236W        W35710  12.456  18.348  13.330  0.1919 -0.1418  0.1910
19237W        W35711   9.812  17.805   1.940  0.1855  0.0455 -0.1278
19238W        W35712   0.574  12.276   3.102  0.2163  0.0859 -0.1645
19239W        W35713  13.981   5.390   1.912 -0.0187 -0.0849  0.0840
19240W        W35714   2.341  16.573   2.682  0.0709 -0.0350  0.3370
19241W        W35715   8.671   5.837   4.242  0.1220 -0.0666 -0.4344
19242W        W35716  17.852  19.184   4.245  0.1668 -0.0962 -0.0152
19243W        W35717  16.711   9.098   2.708 -0.0985  0.2779  0.1565
19244W        W35718   7.105  18.415   3.921 -0.1243 -0.5266  0.3740
19245W        W35719   3.493   1.355   0.963  0.0103 -0.0144 -0.2587
19246W        W35720  15.338   2.591  10.899 -0.2240 -0.1494 -0.0257
19247W        W35721  19.253  12.725  14.333 -0.0122  0.2817 -0.0209
19248W        W35722   1.647  15.327   3.186  0.2619 -0.0203  0.2186
19249W        W35723  15.264   7.412  13.549 -0.4511 -0.1623  0.2710
19250W        W35724   5.844  13.205   0.010  0.2859  0.3368  0.2928
19251W        W35725   5.584   9.542  10.864 -0.1424  0.2423 -0.3458
19252W        W35726  13.704   5.014   2.627  0.4814  0.2104 -0.3251
19253W        W35727  14.235  11.508  12.761 -0.3100 -0.2405  0.0571
19254W        W35728   3.145  19.087   1.488 -0.1399 -0.2515 -0.2474
19255W        W35729   6.183   9.451  14.376 -0.1393 -0.2576 -0.0182
19256W        W35730   8.630  13.564  13.499 -0.1987  0.0101 -0.0674
19257W        W35731  12.840  15.545  11.541 -0.0684  0.2294 -0.0743
19258W        W35732  13.812   2.230  10.600  0.0107  0.0831 -0.3251
19259W        W35733  11.377  17.726  12.788 -0.0088  0.0682  0.0021
19260W        W35734   5.414   9.784   4.587 -0.0411 -0.1449  0.0741
19261W        W35735   1.536  12.593  14.140  0.0398  0.0460 -0.1231
19262W        W35736  17.762  13.195   3.602 -0.2092  0.0897 -0.1889
19263W        W35737   8.466  10.517   1.042 -0.1378  0.0359  0.0702
19264W        W35738   7.782  16.901   2.008 -0.0778 -0.1346  0.1818
19265W        W35739   8.491  14.314   9.995  0.0295 -0.2989 -0.0286
19266W        W35740   5.322  14.049   2.394 -0.2436  0.1603  0.3258
19267W        W35741  14.651  18.455   0.317 -0.0250 -0.2751  0.5619
19268W        W35742   7.541  16.401   9.896  0.2032 -0.0285 -0.2430
19269W        W35743  12.150  15.839   9.104  0.4212 -0.1167  0.0510
19270W        W35744   7.450  18.169   0.414 -0.0399 -0.2777 -0.0801
19271W        W35745   4.891  11.241   1.918 -0.0803 -0.0732  0.0958
19272W        W35746   5.979  17.188   0.816  0.0472 -0.2462  0.1826
19273W        W35747   8.416  14.504   0.475  0.0761 -0.1815 -0.1624
19274W        W35748   6.107   0.111   2.992 -0.0616  0.0477  0.1572
19275W        W35749  14.914  18.827   5.026  0.1595  0.1400 -0.0225
19276W        W35750  11.107  12.352  13.532 -0.0145 -0.2108 -0.1526
19277W        W35751   7.745  12.698   0.851 -0.2121 -0.4027 -0.0168
19278W        W35752  18.916   7.728   0.378 -0.2159 -0.1355  0.0668
19279W        W35753   0.150  10.308   0.439  0.1531 -0.0388  0.4180
19280W        W35754   0.088   7.503  12.794  0.0204  0.0038 -0.1732
19281W        W35755   0.882   7.467   2.883 -0.1260  0.0633 -0.1496
19282W        W35756  18.459   9.646  10.555 -0.0990  0.1213 -0.2909
19283W        W35757   8.033  12.748  14.548  0.0675  0.1734  0.0260
19284W        W35758   3.256  16.279   9.828  0.0119 -0.2967  0.1447
19285W        W35759   1.033  13.789   2.544 -0.2314  0.0614 -0.0339
19286W        W35760   6.919   2.210   2.856  0.0200  0.0159 -0.0871
19287W        W35761   5.004  14.712   2.311  0.0823  0.1569  0.0951
19288W        W35762  15.342  17.500   2.230  0.0171 -0.0149  0.2009
19289W        W35763   3.222   3.899   3.534  0.0812  0.0764  0.1919
19290W        W35764   1.520  13.575  13.331  0.4127  0.0606  0.0302
19291W        W35765   7.335   5.179  12.615 -0.2431  0.1646  0.1694
19292W        W35766  10.250   0.678  14.084 -0.1075  0.2007  0.0305
19293W        W35767   8.593  12.565  11.485 -0.1639 -0.0646  0.1934
19294W        W35768  16.732  11.162   2.403 -0.5323 -0.1525 -0.0838
19295W        W35769  16.510   3.530  10.361 -0.3869  0.2289 -0.1611
19296W        W35770   9.552   2.415  14.425  0.3239  0.0625 -0.1830
19297W        W35771  16.818  11.300  10.651 -0.2787  0.2366 -0.2236
19298W        W35772  17.132   2.834   0.242 -0.1540 -0.3106  0.0228
19299W        W35773  15.447   0.429  10.911 -0.0273  0.1533 -0.2465
19300W        W35774  11.736   2.197   9.991 -0.3652 -0.2421  0.1401
19301W        W35775   3.574  12.401  14.639  0.1639  0.0699 -0.0151
19302W        W35776  17.604  17.045   3.758 -0.1513 -0.0825 -0.0382
19303W        W35777   0.720   3.380  12.383 -0.1904 -0.2702 -0.2522
19304W        W35778   4.311  12.124  11.794  0.0127  0.0591  0.0772
19305W        W35779  14.974   2.679   2.449  0.2667 -0.2509  0.0437
19306W        W35780   8.959  19.454   2.547  0.0394  0.2377  0.2298
19307W        W35781   7.054   1.326  10.854 -0.0734 -0.3298 -0.1928
19308W        W35782   0.087  13.089   4.573 -0.0396 -0.1417 -0.4369
19309W        W35783   3.925  12.641   0.595 -0.2065  0.0283  0.4401
19310W        W35784  11.755  10.072  11.917  0.0552  0.1045 -0.1553
19311W        W35785  13.168  19.467   3.691 -0.3035 -0.1256  0.2113
19312W        W35786  10.946   4.753  10.080  0.1736  0.4010 -0.2181
19313W        W35787  13.785  11.406   5.549 -0.0252 -0.2544  0.0241
19314W        W35788  19.108   9.697   3.359 -0.1264  0.2344 -0.3310
19315W        W35789   0.807   6.891  14.475 -0.1218 -0.2540  0.0597
19316W        W35790   5.329   8.258  11.665 -0.2451 -0.3985  0.0153
19317W        W35791  10.630  13.591   4.155  0.0652 -0.0293 -0.2202
19318W        W35792   7.213  19.479   5.092  0.0278  0.0789  0.1289
19319W        W35793   2.896  11.779  13.368 -0.1670  0.0921 -0.3799
19320W        W35794   2.033  10.044  12.218 -0.2857  0.3929  0.1923
19321W        W35795  13.984  14.259   0.836  0.2015 -0.0085  0.2329
19322W        W35796  11.138  10.672  10.955 -0.0740 -0.0245  0.2273
19323W        W35797  15.706   8.719  11.366 -0.3649 -0.0598 -0.1630
19324W        W35798   7.295  18.336  13.832  0.0659 -0.0263 -0.1322
19325W        W35799   1.330  14.638  12.268 -0.2635 -0.1644 -0.4203
19326W        W35800   3.996  13.424   9.904  0.3958 -0.1744 -0.0957
19327W        W35801  15.975  12.298   4.363 -0.0138 -0.3480  0.0839
19328W        W35802   1.898  16.105  10.031 -0.1916 -0.1853  0.0992
19329W        W35803  14.261  12.925  12.541 -0.1894 -0.2456 -0.0142
19330W        W35804   8.814   5.055   0.741  0.0835  0.1371  0.0262
19331W        W35805  12.714  10.002   5.100 -0.0437 -0.0067 -0.0522
19332W        W35806  17.939   1.430   3.060  0.2475 -0.1703  0.0328
19333W        W35807   2.065  15.704  12.479  0.2534  0.0734  0.1167
19334W        W35808   2.535  16.695   3.753 -0.0221 -0.0377 -0.1761
19335W        W35809   1.999   3.742   1.131 -0.0263  0.1421  0.0928
19336W        W35810  12.366   3.756  11.237  0.4458 -0.2867  0.0259
19337W        W35811  15.439   7.568  14.202 -0.1241  0.2419 -0.0621
19338W        W35812   5.407   7.810   5.761  0.3244 -0.2643 -0.2597
19339W        W35813   8.027   6.875  12.098 -0.0913 -0.0913 -0.1150
19340W        W35814   8.452   7.832   1.841 -0.1408 -0.0229 -0.0689
19341W        W35815   6.206   6.836   0.881  0.0270 -0.0521 -0.1417
19342W        W35816   9.990   0.702  13.235  0.0461 -0.0748 -0.0617
19343W        W35817   9.823  12.399   4.642 -0.0235 -0.4617  0.0383
19344W        W35818  12.119   9.770   2.110 -0.0390 -0.2260  0.1639
19345W        W35819  16.860  16.513   4.164  0.1648 -0.0122 -0.2459
19346W        W35820   4.531   0.696   1.413  0.0789 -0.1281 -0.0141
19347W        W35821   9.726  10.873  12.806 -0.1841  0.1741  0.2787
19348W        W35822  14.983   6.326   2.422 -0.2801  0.1251  0.0616
19349W        W35823   3.439   6.173  13.683  0.0530 -0.0367  0.0203
19350W        W35824   3.739  10.191   4.695 -0.0709 -0.0874 -0.1817
19351W        W35825  18.775   9.178  10.889 -0.0523  0.0824  0.3691
19352W        W35826  12.231   6.655   0.953 -0.1702 -0.0470 -0.0596
19353W        W35827   9.081  16.048  12.734 -0.0596  0.0164  0.2505
19354W        W35828  14.788   3.046  10.921 -0.1353 -0.3487 -0.1958
19355W        W35829  15.033  11.636  12.890 -0.4153  0.3639 -0.0405
19356W        W35830   7.119   8.428   1.007  0.1136 -0.5234  0.3126
19357W        W35831  12.031  16.080  11.964 -0.2171  0.0012  0.0298
19358W        W35832   2.476   5.279   9.916  0.1409  0.2059  0.0197
19359W        W35833  19.150   8.369   3.392  0.1119  0.0202  0.0171
19360W        W35834   1.106  15.556  13.113  0.3932 -0.0727 -0.1213
19361W        W35835  16.426   7.936   2.284  0.3288  0.2782  0.0165
19362W        W35836   5.391  19.001   0.635  0.1979 -0.0940 -0.2193
19363W        W35837   9.934   4.992   4.550 -0.1213  0.2417 -0.0516
19364W        W35838  10.305  14.795  12.233 -0.2494  0.0318  0.2854
19365W        W35839   2.482  11.969   1.371  0.0099  0.0259  0.0806
19366W        W35840  12.376  16.555   3.722 -0.0529 -0.1015 -0.2729
19367W        W35841   5.130   6.400  11.941  0.5355 -0.1283 -0.1257
19368W        W35842   9.521  11.928  10.819  0.0457 -0.1417 -0.1075
19369W        W35843   5.673  13.677  10.719  0.2793  0.2932  0.0256
19370W        W35844  12.166   0.203   0.717  0.1145 -0.0927  0.1294
19371W        W35845   8.509   9.281  12.438 -0.0091  0.0127  0.3299
19372W        W35846   1.737   0.463   3.868 -0.1756 -0.1396  0.0966
19373W        W35847   6.527   4.191  14.636  0.0615  0.2167  0.1313
19374W        W35848  12.736  12.362  14.523  0.0159 -0.2159 -0.0661
19375W        W35849   7.436  11.485   4.024  0.3129 -0.1307  0.1246
19376W        W35850  13.330   4.752   4.585  0.2223  0.1023  0.0691
19377W        W35851   0.108  12.446  12.628 -0.0379 -0.0129  0.1501
19378W        W35852  14.261   1.276  12.879  0.2803  0.0395  0.0166
19379W        W35853   5.173  11.204  13.622  0.0369  0.1610  0.4853
19380W        W35854  19.534  13.355   2.786 -0.2346  0.0864 -0.0269
19381W        W35855   8.372  17.775   4.226 -0.4781 -0.0126  0.3105
19382W        W35856   3.640  14.672  11.578  0.1998  0.2021 -0.1909
19383W        W35857  17.009   6.530  11.602 -0.0691 -0.0984 -0.0968
19384W        W35858  15.501   4.750  11.467  0.0387 -0.2538  0.0335
19385W        W35859  11.819  16.783   3.536  0.0463  0.3662  0.2869
19386W        W35860  13.983  10.329   3.803  0.2138 -0.1678 -0.4027
19387W        W35861   1.254   8.159  14.167 -0.2530  0.0561  0.3309
19388W        W35862   8.058  14.813   0.718 -0.0840  0.0064  0.0039
19389W        W35863   5.238   0.580   8.854  0.1514 -0.2312  0.0306
19390W        W35864  13.696   7.705   1.344  0.2053 -0.0423 -0.0924
19391W        W35865   2.852  13.352  10.469  0.2230 -0.0863  0.0162
19392W        W35866   9.092   7.618  11.251 -0.5260 -0.0615 -0.0602
19393W        W35867   4.330  12.321  13.378  0.0148 -0.0043  0.4488
19394W        W35868   0.914   7.169  11.076 -0.5063 -0.3403  0.0395
19395W        W35869   3.188  12.643  12.199  0.1654 -0.0063 -0.1570
19396W        W35870   2.317  14.246  14.215 -0.1079  0.0089 -0.0348
19397W        W35871  17.001  13.593   0.816  0.3637 -0.3933  0.0064
19398W        W35872  13.231  10.194  14.344  0.0254 -0.3269  0.5728
19399W        W35873  15.028   6.991  13.652 -0.0462  0.0047  0.0568
19400W        W35874  17.214   6.194   2.823 -0.3517 -0.0375  0.0667
19401W        W35875  15.780   8.753  13.540  0.0848 -0.0206  0.1467
19402W        W35876  15.317  11.003   4.635 -0.0198 -0.1993 -0.2281
19403W        W35877   3.777  17.402  10.900 -0.0396  0.0531  0.0102
19404W        W35878   3.194   6.847   3.049  0.3210  0.0478 -0.2826
19405W        W35879   2.933  13.876   2.320  0.1092 -0.4360  0.0693
19406W        W35880   1.224  17.443   2.635 -0.0844  0.1077 -0.0196
19407W        W35881  14.403  12.021  11.085 -0.2169  0.2421 -0.1875
19408W        W35882   4.751   9.630   0.824  0.0865 -0.1319  0.1117
19409W        W35883  13.531   4.265   4.640 -0.2509  0.1606  0.0099
19410W        W35884  18.655  10.777   3.152  0.2098  0.2103 -0.1700
19411W        W35885   1.344   4.983  12.952  0.2759  0.0585 -0.2523
19412W        W35886   2.685   3.751   5.787  0.2537 -0.0305  0.1155
19413W        W35887  18.293   1.508   2.363 -0.1570  0.1755  0.0130
19414W        W35888  11.638  14.416   2.656  0.0439  0.1833  0.0593
19415W        W35889   3.971   6.702   4.350 -0.3252  0.0526 -0.0680
19416W        W35890  14.330  15.677  11.510  0.2098 -0.0003 -0.1606
19417W        W35891   6.403   3.548   3.505  0.0805 -0.0447  0.1959
19418W        W35892  16.285   1.591   1.125  0.0606 -0.0798 -0.0980
19419W        W35893   5.478   0.011   4.103  0.0773 -0.2392  0.2200
19420W        W35894  13.763  15.840   0.254 -0.0723  0.1975 -0.2533
19421W        W35895   5.169   5.114   9.759  0.0349  0.1808  0.3307
19422W        W35896  17.091   5.677   1.239  0.1472  0.2464 -0.1966
19423W        W35897   6.556  15.490   2.514 -0.1678 -0.1805 -0.1549
19424W        W35898   1.484   5.185  12.379  0.3419  0.0519  0.1129
19425W        W35899  11.213   2.375  13.451 -0.0450  0.0991  0.1818
19426W        W35900  18.551  10.882   4.914  0.0685 -0.5803 -0.1697
19427W        W35901  17.961   9.822   3.622  0.0089 -0.0498 -0.2071
19428W        W35902   6.918   6.126   0.168  0.1715 -0.0938  0.1755
19429W        W35903   5.931  19.445   2.272  0.0294  0.1081 -0.1317
19430W        W35904   5.609   4.843  12.640 -0.1093  0.2814  0.0818
19431W        W35905   0.135   0.905  12.883  0.2107 -0.0561 -0.1810
19432W        W35906   7.713  13.392  12.984  0.0274  0.2842  0.3038
19433W        W35907   3.113   4.860   1.811 -0.1499 -0.2972  0.1511
19434W        W35908  12.887  18.289  13.656 -0.0971 -0.1099 -0.1601
19435W        W35909   9.399   5.393  11.593  0.0829 -0.0503  0.6835
19436W        W35910  15.467   6.546   2.313  0.0511  0.2048  0.0109
19437W        W35911  13.740  10.205  14.320  0.0982  0.0663 -0.3058
19438W        W35912  11.833   9.418   1.105  0.1415 -0.0457  0.1049
19439W        W35913   6.476   2.971  11.177 -0.0824  0.0793  0.0836
19440W        W35914  13.522  15.608   2.953  0.4034 -0.2989 -0.0673
19441W        W35915  12.306   7.154   5.203 -0.0615  0.3349  0.0786
19442W        W35916   1.297   6.444  14.526  0.1613 -0.2171 -0.1087
19443W        W35917   2.444  16.813   0.794  0.0460  0.1172 -0.1127
19444W        W35918  12.961  11.483   2.058 -0.2535  0.3348  0.1289
19445W        W35919   9.647  13.563   3.387 -0.4037 -0.0268 -0.1566
19446W        W35920  16.659  13.248   1.031  0.3353  0.7042  0.1010
19447W        W35921  13.783   2.370  13.840 -0.2946  0.0389 -0.1614
19448W        W35922   8.192   6.131  14.469 -0.0559  0.1309 -0.1561
19449W        W35923   3.619   9.860   3.165  0.0866 -0.2623 -0.0024
19450W        W35924   7.775   4.691  11.498 -0.0357 -0.1601  0.0970
19451W        W35925  10.436  12.675   3.246 -0.2724 -0.0488 -0.0518
19452W        W35926   6.317  15.565   2.980  0.2856  0.1140  0.1134
19453W        W35927   5.469   9.602  12.130 -0.2349  0.4300 -0.2396
19454W        W35928  18.391  10.496   5.280 -0.1433  0.1631  0.3493
19455W        W35929  12.245   0.613   3.608 -0.3856  0.1143 -0.1409
19456W        W35930   0.305  17.476  12.531  0.3844 -0.0849 -0.1989
19457W        W35931   7.870   9.633  10.593  0.1644 -0.2997 -0.1529
19458W        W35932   9.159  13.368   0.966 -0.2780  0.1813 -0.0037
19459W        W35933   3.021   8.080   2.556  0.0378 -0.3296 -0.0444
19460W        W35934   1.086  12.247  13.467 -0.1126 -0.0099 -0.1432
19461W        W35935  17.344   7.513   4.255 -0.1404  0.2270 -0.3311
19462W        W35936   2.228   1.138   0.679  0.1322  0.0779 -0.0161
19463W        W35937   8.352  18.988  12.888 -0.3466 -0.0192 -0.1020
19464W        W35938   6.234   6.661   3.415 -0.5786  0.0661 -0.0517
19465W        W35939  13.283  12.502   1.394 -0.1129  0.0965  0.2264
19466W        W35940   3.690  19.187   9.943 -0.1610  0.2828 -0.2915
19467W        W35941  14.999   1.170   4.697  0.2667  0.0723 -0.1508
19468W        W35942   4.927   4.226   2.588  0.3827 -0.1759  0.2607
19469W        W35943   3.610  13.007  13.562  0.5088 -0.1384  0.0147
19470W        W35944   1.981   8.353  10.684  0.4522  0.0915 -0.1414
19471W        W35945  14.217   9.127   0.653  0.2061 -0.1368 -0.0068
19472W        W35946  12.044   7.931  13.474 -0.2765 -0.2774 -0.0657
19473W        W35947  16.276   7.082   0.772 -0.0546 -0.1598 -0.1493
19474W        W35948  17.897   4.605   0.218  0.3517 -0.0159  0.0280
19475W        W35949   0.204  12.899  12.449 -0.2121  0.1322 -0.0645
19476W        W35950   4.332  12.188  12.445 -0.3265 -0.1267  0.3372
19477W        W35951  14.598   8.175  10.590 -0.2405 -0.0091  0.3548
19478W        W35952  10.077  16.849  14.129  0.2339 -0.0110 -0.1092
19479W        W35953  11.015  17.697   4.946 -0.3045  0.0891  0.2229
19480W        W35954  19.328   5.233   1.470  0.3124 -0.1033  0.2050
19481W        W35955   3.893   1.327  10.503 -0.2629 -0.1703 -0.2504
19482W        W35956   1.484  12.523  11.081 -0.2911  0.1643 -0.1170
19483W        W35957   0.320  16.543   2.181  0.2007  0.0921  0.0819
19484W        W35958  17.359   6.362   3.920  0.1458 -0.1629  0.0315
19485W        W35959  11.678   7.537  13.234 -0.2055  0.1469 -0.0600
19486W        W35960  19.521   0.533  10.300 -0.1190 -0.1741 -0.0926
19487W        W35961  17.151   9.849  12.972  0.1607  0.4660  0.3734
19488W        W35962  17.709  12.729  14.122  0.0108 -0.2831 -0.0999
19489W        W35963  16.880  18.472   0.920  0.0321  0.2071 -0.0543
19490W        W35964  16.514   0.031  13.328  0.3080  0.3241  0.1712
19491W        W35965  13.202   4.354   2.328 -0.1206 -0.1357  0.1412
19492W        W35966  11.209  17.150   0.607 -0.0840  0.2604 -0.0291
19493W        W35967  19.403  15.283   4.106 -0.2104 -0.0233 -0.0615
19494W        W35968   7.577   4.109  13.738  0.3026  0.1369  0.0793
19495W        W35969  11.170   4.130   2.400  0.2809  0.0873 -0.1481
19496W        W35970   1.919  18.010   0.167 -0.0176 -0.0542  0.0375
19497W        W35971   4.292   1.522   3.013  0.1777 -0.1955  0.2391
19498W        W35972   6.226  15.640   4.518 -0.2268  0.2638 -0.0246
19499W        W35973  14.673   0.882   2.920  0.3554 -0.2312  0.2167
19500W        W35974  16.254  13.393  12.812  0.0303 -0.0281 -0.0397
19501W        W35975  11.950  18.434  14.094 -0.1747 -0.1463  0.2088
19502W        W35976  19.509  11.573  11.557  0.1352  0.0421  0.1727
19503W        W35977   4.387  13.978  14.048  0.5762 -0.0950 -0.1780
19504W        W35978   8.411   4.766  14.655 -0.2696  0.1587 -0.2852
19505W        W35979   1.701   6.759   4.436  0.1561 -0.1443  0.1358
19506W        W35980  14.054   2.150   1.109 -0.0935 -0.0326 -0.0284
19507W        W35981  11.178   9.821  14.358  0.3005 -0.1702  0.0237
19508W        W35982  13.438   4.555  12.588  0.0211 -0.1701 -0.1188
19509W        W35983   1.952  16.325   4.383  0.1036 -0.2717 -0.1177
19510W        W35984  14.913   1.711  11.332 -0.1085  0.2088  0.4810
19511W        W35985  14.190  15.619   0.394  0.0627 -0.3854 -0.2998
19512W        W35986  14.810  11.472   9.575 -0.1363  0.1049  0.2562
19513W        W35987   4.190   5.077   1.155 -0.3030  0.1354  0.0409
19514W        W35988  13.065  17.347  12.413 -0.2061 -0.0067 -0.0200
19515W        W35989   8.547  14.737   4.684  0.2171  0.2383 -0.3179
19516W        W35990   0.385  11.731   0.644 -0.3356 -0.0835  0.1871
19517W        W35991   3.572  15.344  13.357 -0.3634  0.1801  0.0109
19518W        W35992   0.616  13.476  11.479 -0.2373  0.1215  0.2883
19519W        W35993  17.074  10.190   0.516  0.0925  0.1616  0.2274
19520W        W35994  10.054  16.315   0.506  0.1770  0.2470 -0.0436
19521W        W35995   8.549   3.495   4.793 -0.0305 -0.2215 -0.0279
19522W        W35996  17.326  13.259  11.702 -0.4785  0.0887 -0.1854
19523W        W35997  18.003   1.261   0.527 -0.4678 -0.0367 -0.0879
19524W        W35998   8.493  14.416   3.062  0.0604 -0.3255 -0.0209
19525W        W35999  14.639   6.911   4.760 -0.0364  0.3067  0.1158
19526W        W36000   6.808   6.500  13.023  0.0056  0.0292  0.4583
19527W        W36001   3.024   9.522   1.928  0.0537  0.1805 -0.0227
19528W        W36002  19.264  11.463   9.817  0.1450 -0.1409 -0.0353
19529W        W36003   7.481   6.777  14.692  0.1106 -0.1477  0.1346
19530W        W36004  13.879   4.288   3.276  0.1610 -0.1447  0.1780
19531W        W36005   0.484   8.526   1.125 -0.1496  0.0047 -0.0626
19532W        W36006  19.434   9.433   0.685 -0.0193 -0.0291 -0.0173
19533W        W36007  14.396  17.097  11.661 -0.1666  0.0885 -0.1350
19534W        W36008   7.979  18.485   3.203 -0.0045 -0.1809  0.2461
19535W        W36009   1.709  12.108  10.981  0.1311  0.1105 -0.1651
19536W        W36010  10.681  13.958  11.834  0.1885  0.0748  0.1479
19537W        W36011  18.227  17.072  13.269 -0.3726  0.0746 -0.3403
19538W        W36012  18.571  12.538  11.062  0.0381  0.2246  0.2673
19539W        W36013  18.420   1.580   3.199  0.0328  0.4317 -0.2804
19540W        W36014   8.901  17.699  11.528  0.1190  0.3742 -0.1234
19541W        W36015  11.451   0.969  10.291  0.0498  0.3020  0.0465
19542W        W36016   5.701   9.057  12.716  0.0615  0.0256 -0.2406
19543W        W36017  18.900   2.001  10.852  0.0675  0.0250 -0.1104
19544W        W36018   6.955  13.469   0.142 -0.1038  0.1989 -0.0573
19545W        W36019  11.125  17.120   3.855 -0.0911  0.2955  0.2004
19546W        W36020   3.281  15.543   1.070 -0.3450  0.0601  0.2923
19547W        W36021  10.735  12.109  13.984 -0.0924 -0.2401 -0.0491
19548W        W36022   9.135  16.807   3.538 -0.0042  0.0848 -0.0313
19549W        W36023   9.821  11.542   4.082  0.4455  0.1489  0.0250
19550W        W36024  15.882   7.060   1.095  0.3930  0.0533 -0.0663
19551W        W36025   3.561   2.898   5.075  0.1748  0.1310 -0.0822
19552W        W36026   5.600   2.570  12.576 -0.2802  0.0314 -0.0366
19553W        W36027  11.210   1.072   0.920  0.3008 -0.0643  0.0446
19554W        W36028   4.837   5.521   3.687  0.3251 -0.3494 -0.0462
19555W        W36029   0.065   6.058   4.128 -0.1452 -0.0018 -0.3095
19556W        W36030  13.129   3.469   0.046  0.0699  0.0967  0.0097
19557W        W36031   2.590   1.205   4.111 -0.1561  0.0148 -0.1661
19558W        W36032   6.389   2.999   2.027  0.2265  0.0418 -0.2827
19559W        W36033   3.862   8.616   3.894 -0.0722  0.1520 -0.1390
19560W        W36034   1.277   8.478   3.024  0.0652 -0.3684 -0.0069
19561W        W36035  13.575   5.092  10.730  0.1895  0.4297 -0.0338
19562W        W36036  19.498  13.941  14.423  0.0281  0.0936  0.0383
19563W        W36037  10.652   2.033  13.343  0.0884  0.1810  0.0700
19564W        W36038   1.029  16.689   4.211 -0.2018 -0.3965  0.0460
19565W        W36039  10.750  14.724  13.674 -0.0025  0.1801 -0.3859
19566W        W36040  14.424  18.860   4.831 -0.1233 -0.1383 -0.0556
19567W        W36041  13.362  14.556  11.366  0.1950  0.3425 -0.1761
19568W        W36042   8.002  13.563  10.990  0.2571 -0.1710 -0.0801
19569W        W36043   0.277  10.466   2.574  0.1779  0.1868  0.2108
19570W        W36044  19.028  15.209  13.426 -0.0350  0.2968 -0.0086
19571W        W36045  18.922  11.760   4.816  0.0062  0.1258  0.2290
19572W        W36046   1.181  16.076   1.989 -0.2728  0.4214  0.1941
19573W        W36047  17.773   3.422  12.281  0.0888 -0.0953 -0.0979
19574W        W36048  18.265   0.851  13.093  0.3719  0.2135 -0.3433
19575W        W36049  17.918  17.815  14.454 -0.0034  0.1073  0.0618
19576W        W36050  10.421  15.793  10.539  0.2995  0.1451  0.0909
19577W        W36051  17.273   5.756  13.712  0.1189 -0.1844 -0.0307
19578W        W36052  13.326  14.278  13.760  0.1488 -0.2360  0.1861
19579W        W36053   9.954  15.507  13.673 -0.1581 -0.0264  0.0178
19580W        W36054  12.004  13.383   4.837  0.3152 -0.1901  0.2712
19581W        W36055   7.590  16.266   2.623 -0.0479 -0.0968  0.0864
19582W        W36056   8.304  10.406   0.473 -0.0394 -0.0409  0.0849
19583W        W36057  18.910  13.846  10.484 -0.2832  0.1295  0.1864
19584W        W36058  18.391   5.384  14.152 -0.0831 -0.0326  0.0571
19585W        W36059  19.434   3.376   4.064  0.1668  0.1348  0.1294
19586W        W36060  12.071   2.035   3.101 -0.0144  0.2073 -0.2338
19587W        W36061   7.195   7.761  13.942 -0.1511 -0.1929 -0.3647
19588W        W36062   5.046   9.573  11.875 -0.0330  0.0108 -0.1038
19589W        W36063  10.482  13.887   3.338 -0.2667 -0.2145 -0.1413
19590W        W36064  12.495  14.703  13.765 -0.1956 -0.1294 -0.1861
19591W        W36065   4.506  18.014  13.554 -0.2380 -0.1251  0.1397
19592W        W36066  12.407  10.095   3.685 -0.5522 -0.0401  0.4665
19593W        W36067  17.563  12.288  12.304  0.1624 -0.2251  0.0145
19594W        W36068  12.294  16.058   3.842 -0.4057 -0.1207 -0.0609
19595W        W36069  10.432  14.731  10.099 -0.2037  0.2954  0.0833
19596W        W36070  17.064  13.179   4.206 -0.0597 -0.0948  0.2977
19597W        W36071  13.553  17.793  11.722 -0.1391  0.2963 -0.0886
19598W        W36072   0.247   7.861  12.324 -0.0189 -0.0842  0.0020
19599W        W36073  15.616   9.501   0.859 -0.2472 -0.1196 -0.0488
19600W        W36074   4.592   4.366   2.927  0.1738 -0.1504  0.1078
19601W        W36075   9.753  12.643  10.022  0.2777 -0.2948 -0.3190
19602W        W36076  14.251  15.861  10.518 -0.1734 -0.1074  0.0548
19603W        W36077   3.033  16.274   9.339  0.3482  0.1167  0.2714
19604W        W36078  16.279  18.800   0.131 -0.0864  0.3106 -0.0471
19605W        W36079   1.860  15.719   0.080  0.1346 -0.0171 -0.2438
19606W        W36080   3.843   1.160  13.844  0.0224 -0.0635 -0.3868
19607W        W36081   3.249  14.309   3.002 -0.0172 -0.0936 -0.0501
19608W        W36082  15.307   6.098   5.161 -0.1453  0.1316  0.0096
19609W        W36083  14.165  12.664  13.473 -0.1251 -0.1154 -0.0385
19610W        W36084   8.052   9.394  11.911 -0.0317  0.0046  0.4024
19611W        W36085  14.642   2.757   1.066  0.0467 -0.2064  0.0220
19612W        W36086   1.956   3.822   0.038 -0.1019  0.0046  0.0010
19613W        W36087   4.371   6.974   2.606 -0.2102 -0.0903  0.0659
19614W        W36088   3.193   3.743  10.887  0.2821 -0.1912 -0.2934
19615W        W36089   9.149  14.982   3.687 -0.0174 -0.0233  0.3051
19616W        W36090  17.111   0.859   1.097 -0.1312  0.4125  0.2079
19617W        W36091  13.317   1.599   5.440  0.1572  0.1020 -0.1172
19618W        W36092  15.055  18.785  11.612  0.1215  0.1318  0.0273
19619W        W36093  13.158   6.333  14.603  0.2235 -0.1044  0.1292
19620W        W36094   0.226  11.167  10.430  0.2048 -0.0775  0.2544
19621W        W36095   7.425  15.939   2.269 -0.0235  0.1579  0.0115
19622W        W36096  15.228  10.579  13.775 -0.1005 -0.2047  0.0584
19623W        W36097   0.737   2.423   4.091 -0.1203  0.1700 -0.3634
19624W        W36098  13.812  10.613  12.075 -0.4263  0.0743  0.2304
19625W        W36099  14.686   3.538   0.772 -0.0662  0.2239  0.1517
19626W        W36100   2.897   0.720   2.329 -0.2034  0.0536 -0.0215
19627W        W36101  15.927  13.391   4.537  0.1404  0.0723  0.3051
19628W        W36102   4.284   8.925  12.345 -0.1237 -0.0333  0.2476
19629W        W36103  19.214  14.780   1.900 -0.1363  0.0259  0.0190
19630W        W36104   7.894  18.562   2.335 -0.0458 -0.0702 -0.1172
19631W        W36105  12.973  19.040   3.289 -0.1317  0.1860  0.0262
19632W        W36106   9.607  12.677   5.485 -0.1745  0.1194  0.1074
19633W        W36107  14.094  19.461   2.584 -0.2811  0.1931  0.2287
19634W        W36108  16.231   3.329   4.547  0.0530 -0.0106  0.0037
19635W        W36109   6.600  10.360  13.046  0.1024 -0.0816 -0.3148
19636W        W36110   5.999  11.845  13.972 -0.1931  0.1500 -0.2501
19637W        W36111  12.083   6.738  14.256 -0.0387 -0.1477 -0.0487
19638W        W36112   5.895   1.008  12.349  0.1854 -0.1354  0.0038
19639W        W36113   8.974   1.973   4.047  0.2882 -0.0298  0.0092
19640W        W36114   7.566   6.798   2.006 -0.2576  0.1790 -0.2408
19641W        W36115   4.579   4.879  10.982  0.1154  0.0182 -0.1113
19642W        W36116  18.681  15.608  12.563 -0.3221  0.1690  0.0736
19643W        W36117  12.567   3.647  11.745 -0.2826 -0.0781 -0.0545
19644W        W36118  17.297   5.337   2.493 -0.1899 -0.1899 -0.0115
19645W        W36119  16.186  11.205  13.382 -0.0602 -0.1529 -0.0242
19646W        W36120  19.103  17.533  14.223 -0.1806 -0.1907 -0.0714
19647W        W36121  19.059   7.174   3.381  0.3642  0.0052  0.2555
19648W        W36122  13.209  15.210  13.085 -0.1444  0.2884 -0.1975
19649W        W36123  11.699   8.967  11.123 -0.1601 -0.3580 -0.1732
19650W        W36124   6.761  19.133  13.580  0.1400 -0.1889  0.4869
19651W        W36125  18.176  18.091  11.104 -0.0450 -0.1499 -0.1949
19652W        W36126  16.478   1.248   4.658 -0.0032  0.1955  0.1988
19653W        W36127   8.354  16.152   0.707 -0.2430  0.0208  0.0110
19654W        W36128  10.969   2.054   5.123 -0.0043 -0.2899  0.0797
19655W        W36129  18.919   3.810   2.262  0.0435  0.2153  0.3829
19656W        W36130  17.367   8.981   3.825 -0.3007 -0.1048 -0.0464
19657W        W36131  11.543   4.834   1.080 -0.0546 -0.1778 -0.4422
19658W        W36132  12.323   8.345  13.528 -0.1443  0.1738  0.0552
19659W        W36133   7.331  13.779  12.086  0.2054 -0.2036 -0.0246
19660W        W36134  19.511  19.167   0.860 -0.2293  0.1283  0.0614
19661W        W36135   3.568   2.352   1.412  0.1958 -0.2720 -0.0362
19662W        W36136  18.210  13.854   4.994  0.1783  0.4118  0.2697
19663W        W36137  15.991  12.228   2.654  0.1694  0.0871  0.3552
19664W        W36138   9.483   2.214   0.174  0.1855  0.0402 -0.1047
19665W        W36139   3.556  19.114  10.918  0.0056 -0.2673  0.0877
19666W        W36140  13.984   3.514   4.730  0.1449  0.0523  0.0472
19667W        W36141  11.776   5.970   0.347 -0.2462 -0.1091 -0.4076
19668W        W36142   4.977   2.642   4.101  0.0134  0.2648  0.4542
19669W        W36143  10.273   3.454   1.500 -0.1587 -0.2672 -0.1983
19670W        W36144   0.476   8.273  12.533 -0.2270  0.2377  0.0477
19671W        W36145  10.261   0.172   4.252  0.0704 -0.2565 -0.2930
19672W        W36146   9.309   9.703  11.434 -0.2257  0.0477  0.1577
19673W        W36147   6.581   4.902  10.497  0.0810  0.0181 -0.0279
19674W        W36148   5.932   8.188   0.303 -0.1612  0.0746 -0.1913
19675W        W36149   5.078   0.203   2.133 -0.0508  0.2109 -0.2728
19676W        W36150   0.838   1.065   1.387 -0.1793  0.2747  0.0133
19677W        W36151  10.584   9.136   0.867 -0.1373 -0.2110  0.0918
19678W        W36152  10.030  11.859  14.486  0.0953  0.0296  0.0605
19679W        W36153   6.345  12.409  11.580  0.1222 -0.3363  0.0566
19680W        W36154   4.639  13.906   1.309 -0.0578 -0.3895 -0.2130
19681W        W36155  19.079   0.902  14.209 -0.1312  0.3923 -0.0788
19682W        W36156   4.719   1.799   1.599 -0.2958 -0.2937  0.1931
19683W        W36157  12.607   7.575   3.754 -0.1757  0.4317 -0.1003
19684W        W36158   8.746   8.847   0.385 -0.2310 -0.1580  0.2596
19685W        W36159   7.593   9.843   9.639  0.0123  0.1245  0.1600
19686W        W36160   1.318   8.730   3.720 -0.1816  0.0759  0.1583
19687W        W36161  18.162   1.857   0.584 -0.0827 -0.0118 -0.2059
19688W        W36162  13.000  12.605   2.245  0.1958  0.0457  0.0406
19689W        W36163   9.809  16.197  12.485 -0.2386 -0.2395 -0.1514
19690W        W36164   2.702  15.307   0.253 -0.0955 -0.1971 -0.1452
19691W        W36165   0.163  16.049  11.606 -0.0044 -0.0949  0.2097
19692W        W36166   0.832   7.347  10.543 -0.1898 -0.2389  0.0914
19693W        W36167   2.063   9.835   0.534 -0.0288 -0.0910  0.0832
19694W        W36168  18.599  18.184   2.722 -0.1391 -0.0288  0.0346
19695W        W36169   7.068   5.537   0.352 -0.2558 -0.3518 -0.0766
19696W        W36170  16.234   9.903  12.698  0.1453  0.0285 -0.0749
19697W        W36171   2.415   1.993  14.120 -0.0687 -0.0597 -0.1671
19698W        W36172  11.645   3.245   0.589 -0.1136  0.2193 -0.2261
19699W        W36173   9.606  14.129   3.232 -0.2844 -0.0095 -0.1817
19700W        W36174   3.677  15.239   2.830  0.2741  0.3331 -0.2396
19701W        W36175   8.132   6.878  12.783  0.0142 -0.1927  0.2670
19702W        W36176   9.496  19.044   1.775  0.1165  0.1393 -0.2852
19703W        W36177  18.320  12.654   4.897  0.1836  0.0117 -0.0457
19704W        W36178   2.145  13.325  11.077  0.0520  0.0528  0.3215
19705W        W36179  17.722   0.323   1.851 -0.0386 -0.2033  0.1861
19706W        W36180  16.174   2.587  11.175  0.0619 -0.0363  0.1147
19707W        W36181  11.864  13.196  14.399 -0.0385 -0.1240 -0.0487
19708W        W36182  17.610  19.027   2.588  0.2241  0.3628  0.1976
19709W        W36183   3.532   4.440   1.385 -0.3419  0.0367 -0.1467
19710W        W36184   2.505  17.891   4.711 -0.3439 -0.0602 -0.0965
19711W        W36185  17.922  16.553  14.569  0.0309  0.1751 -0.0126
19712W        W36186  13.155   1.532   0.421 -0.1784 -0.0729 -0.3176
19713W        W36187   5.091  14.551   3.478 -0.5045  0.1267  0.1880
19714W        W36188  18.192  12.906  12.157 -0.2207 -0.0649 -0.1517
19715W        W36189   5.691  10.045  13.091  0.0424  0.0575 -0.0324
19716W        W36190  18.017  11.567   0.642  0.1244  0.0436 -0.1283
19717W        W36191   7.721   7.002  12.431  0.0664  0.0910 -0.0397
19718W        W36192   4.628   2.531  12.639 -0.6853 -0.1454  0.0849
19719W        W36193   2.360   1.618   1.090  0.1040  0.0263 -0.3008
19720W        W36194   0.506  13.116   3.300 -0.0174 -0.0933 -0.0363
19721W        W36195   0.903   3.899   2.444  0.0290  0.0419 -0.0441
19722W        W36196   0.158   4.570  13.063 -0.1363  0.1102 -0.2832
19723W        W36197   3.139   7.809  11.467 -0.0558 -0.0165  0.0714
19724W        W36198   9.435  13.553  13.690 -0.3518  0.0011  0.1952
19725W        W36199  10.719  10.564   5.337  0.2546  0.2778 -0.4144
19726W        W36200   0.602   2.985   5.465 -0.1798  0.1051  0.0222
19727W        W36201   0.960  10.610  14.607 -0.1355  0.0450  0.1686
19728W        W36202   4.889   4.786  13.464 -0.0490 -0.1465  0.0180
19729W        W36203   6.103  14.207  13.489  0.0464 -0.2181 -0.2269
19730W        W36204   6.008   5.714   1.411  0.2090  0.0696  0.1290
19731W        W36205   7.981   8.229  12.605  0.0330 -0.0857 -0.1655
19732W        W36206   8.144   9.084  10.545  0.0253  0.2607  0.1364
19733W        W36207  17.917  11.960  14.531 -0.0560  0.1541 -0.0000
19734W        W36208   0.620   7.087   4.523 -0.0536 -0.3923  0.1996
19735W        W36209   8.331  13.044   0.153  0.1182 -0.0747  0.1591
19736W        W36210  12.802  13.007  10.510  0.0729 -0.2214  0.3765
19737W        W36211   7.675   3.966  13.010  0.2710  0.0466  0.1752
19738W        W36212   2.458  18.446  10.135 -0.0865  0.0262  0.2324
19739W        W36213   9.270   3.642   3.075 -0.0155 -0.3205  0.1736
19740W        W36214   3.195   8.605   2.198 -0.3957 -0.5176 -0.0814
19741W        W36215   0.477   5.038  13.748 -0.5566  0.1735  0.3004
19742W        W36216   9.875   7.355  13.814  0.1757 -0.1679  0.0064
19743W        W36217   4.501   8.958   9.056 -0.5425 -0.0790  0.0665
19744W        W36218   8.217  14.673  14.169 -0.0207 -0.1203  0.0364
19745W        W36219  14.693   5.995   1.440  0.1008  0.1856 -0.2706
19746W        W36220  18.711   1.390   4.994 -0.0971  0.1022 -0.0059
19747W        W36221   8.580   3.973   3.563 -0.1785 -0.0512 -0.0777
19748W        W36222   1.874  17.025  10.348 -0.1761  0.0198 -0.4285
19749W        W36223   4.761  11.524  11.091  0.0424 -0.1016  0.0575
19750W        W36224   0.199  15.096  11.703  0.0430 -0.0939  0.0230
19751W        W36225   1.828  18.653  11.972 -0.0676 -0.0608 -0.2564
19752W        W36226  18.188  12.834  14.336  0.0781 -0.0790 -0.1143
19753W        W36227   6.215   8.118  12.440 -0.0773 -0.1537  0.2530
19754W        W36228   7.155   8.426   5.358  0.1665  0.0844  0.1814
19755W        W36229  18.685   3.883   2.738  0.1712 -0.1859 -0.0702
19756W        W36230   1.789  13.443  10.790  0.2169 -0.1167 -0.1454
19757W        W36231   4.241  10.319  13.620 -0.0581 -0.1236  0.1200
19758W        W36232  11.324   7.854  13.408  0.0905 -0.2519  0.1691
19759W        W36233  10.022   9.637  13.539 -0.0369 -0.0439  0.1000
19760W        W36234  18.958  13.890   2.573 -0.2678 -0.1283 -0.0093
19761W        W36235   4.927  11.600  10.121  0.0202  0.2788  0.1163
19762W        W36236   8.824  16.030  13.636 -0.0386  0.0868  0.2533
19763W        W36237   2.894   5.186  14.617 -0.0758  0.1401  0.1361
19764W        W36238  11.469   6.108   1.306  0.1086  0.0590  0.0881
19765W        W36239   7.453   2.405  11.389 -0.4143  0.1738 -0.2106
19766W        W36240   2.199  11.613   3.449 -0.0211 -0.0237  0.1631
19767W        W36241  13.231   1.109   3.141  0.0814  0.0962  0.3177
19768W        W36242   6.551   8.896   4.645  0.0874  0.0418  0.2721
19769W        W36243   4.499   6.975   4.205  0.3231  0.1290  0.3474
19770W        W36244  14.697  10.903   2.742  0.1316  0.2001 -0.1810
19771W        W36245   4.981   9.919  13.648 -0.2767 -0.3970  0.1265
19772W        W36246   9.925   4.184   1.328  0.0892 -0.3521 -0.2891
19773W        W36247  11.234  11.331   1.596 -0.1522  0.2740  0.1072
19774W        W36248   9.954   3.396   4.482  0.0541 -0.0784 -0.1182
19775W        W36249  19.125   2.982  13.666  0.0484  0.0577 -0.2196
19776W        W36250   7.871  15.142   2.166  0.0015  0.1136  0.0030
19777W        W36251   6.337   4.476   0.686 -0.0619  0.1267  0.0890
19778W        W36252   9.922   5.334  11.765  0.1281 -0.2104  0.2072
19779W        W36253  16.873   3.572   2.473  0.1040  0.2504  0.0682
19780W        W36254   4.237  14.816  11.132 -0.2210  0.3037  0.0263
19781W        W36255   8.052   7.708  12.464 -0.1176  0.2821 -0.1310
19782W        W36256   9.567  15.374  11.607  0.0509 -0.0459  0.0247
19783W        W36257   3.605   2.524   4.600 -0.2439 -0.0644  0.0498
19784W        W36258  19.369  13.482   1.556  0.0840 -0.2300 -0.5222
19785W        W36259   7.434  18.441  12.143  0.2443 -0.3193 -0.3134
19786W        W36260   6.203   0.225   1.958  0.1931  0.2481 -0.2553
19787W        W36261   9.598  10.951  14.313  0.1712  0.1072 -0.0350
19788W        W36262  13.497  12.384   4.479  0.0670 -0.1484 -0.1695
19789W        W36263   8.001  16.748  13.385 -0.0064  0.0703 -0.1293
19790W        W36264  12.406  14.401  14.223 -0.1018 -0.0913  0.2794
19791W        W36265  18.773   2.543  11.651  0.4655  0.0026  0.1741
19792W        W36266   2.148  14.171   0.405 -0.2191 -0.3367  0.1371
19793W        W36267   9.525  13.413   1.424  0.1870  0.0059  0.0812
19794W        W36268   7.605  11.269  11.144  0.0421 -0.3139 -0.2325
19795W        W36269  16.998  10.812   5.111  0.0353 -0.2676 -0.0082
19796W        W36270  15.060   3.332   4.824  0.1795  0.0714  0.1664
19797W        W36271  16.172   0.156   1.530  0.0108  0.5015 -0.0587
19798W        W36272   3.805  19.545   9.542 -0.5440 -0.2194 -0.2211
19799W        W36273   0.632  16.425  11.291  0.0528  0.1058  0.1066
19800W        W36274   7.727   5.885  14.435 -0.2325 -0.1397 -0.1791
19801W        W36275  12.881  18.033   0.955  0.0306  0.3069  0.2097
19802W        W36276   2.652  16.100  12.674 -0.1336 -0.0801 -0.0458
19803W        W36277   0.693  10.428  13.327 -0.0303 -0.0449 -0.1023
19804W        W36278  14.981  13.806   3.201 -0.1230 -0.1414  0.0589
19805W        W36279  19.184  10.658  13.756  0.0332 -0.0072  0.0336
19806W        W36280   3.994  19.294  11.902 -0.0066 -0.2821  0.1495
19807W        W36281  12.918   2.533   4.360  0.1291  0.0012  0.1602
19808W        W36282   5.101  17.798  10.264 -0.0757  0.1741  0.1014
19809W        W36283  19.562   1.795   1.229 -0.0474  0.1283 -0.0162
19810W        W36284   0.571   4.666  12.028 -0.0882  0.0804 -0.1034
19811W        W36285   5.694   4.530   4.659  0.1150 -0.2132 -0.4127
19812W        W36286   9.549   7.298   1.099  0.2996 -0.0507  0.1445
19813W        W36287   2.418  11.616   5.323  0.0562 -0.0609  0.1494
19814W        W36288  16.855  16.221   2.239  0.1951 -0.0383 -0.1663
19815W        W36289  17.373   9.755  11.720  0.3521 -0.0132  0.0568
19816W        W36290  17.280   3.542  13.646  0.1916 -0.1255  0.1922
19817W        W36291   8.131   5.261   4.310 -0.1467 -0.0924 -0.0255
19818W        W36292   8.208   2.079  11.790 -0.2426  0.1146 -0.1127
19819W        W36293   6.642  12.588  11.095 -0.0701  0.2083  0.2256
19820W        W36294   3.035   8.041   1.547  0.1360  0.0374 -0.1477
19821W        W36295  12.114  17.090   1.688 -0.0162  0.1794  0.0374
19822W        W36296   7.272  10.673  12.134  0.1695 -0.1671  0.0795
19823W        W36297  10.126   6.080   1.314  0.2052 -0.0649  0.0286
19824W        W36298  18.394  12.483  14.614  0.3910  0.4493 -0.2508
19825W        W36299  10.156  18.242   1.654  0.1571  0.2279  0.0012
19826W        W36300  14.025  13.723   2.080 -0.1409  0.4646 -0.0829
19827W        W36301   1.858  12.244  13.861  0.1526 -0.2221 -0.1567
19828W        W36302   9.472  17.735   3.017 -0.2560  0.1331 -0.1841
19829W        W36303   3.281  13.979   0.451  0.0125  0.0319  0.0305
19830W        W36304  14.191   1.876  10.305 -0.1760 -0.1402 -0.0515
19831W        W36305  17.110   4.014   3.930 -0.3459  0.3009 -0.1142
19832W        W36306   8.754  12.918   3.495  0.1796  0.1808 -0.1031
19833W        W36307  13.162   6.776   3.891 -0.3044  0.0934  0.3672
19834W        W36308  16.332   5.700   1.013  0.0174  0.1669 -0.2671
19835W        W36309   6.269  14.056   4.300  0.0979  0.1256 -0.0252
19836W        W36310  16.834  15.445   1.373 -0.3212  0.1108  0.0445
19837W        W36311  15.581  18.102  11.555  0.0927 -0.0930 -0.2100
19838W        W36312  13.894   9.283   3.002  0.0881  0.0696 -0.0175
19839W        W36313   0.153  10.694  12.452 -0.0438 -0.3045 -0.3702
19840W        W36314  10.263  18.226   0.440 -0.0616 -0.0366 -0.0638
19841W        W36315  14.963   0.298   1.637 -0.3582 -0.1258 -0.0162
19842W        W36316  16.689  17.512  13.494  0.0396 -0.0799  0.1929
19843W        W36317   3.363  16.870   3.875 -0.2361 -0.2284 -0.1745
19844W        W36318   4.646  10.430   9.925  0.2596  0.1533 -0.0967
19845W        W36319   3.978   5.143  14.709  0.1229 -0.0179 -0.0880
19846W        W36320  17.415   0.260   4.715  0.0374  0.0602 -0.0757
19847W        W36321  18.209  10.668  13.700 -0.2085  0.1483 -0.1935
19848W        W36322   4.090   6.164   0.307 -0.1756 -0.2247 -0.1503
19849W        W36323   7.104  15.891  12.855 -0.1197  0.1747 -0.1787
19850W        W36324  12.393   6.736  13.845 -0.1122  0.3272  0.0229
19851W        W36325   6.899   8.120   0.268  0.2665  0.3083  0.1457
19852W        W36326  17.411   3.629  11.070 -0.0655 -0.0280 -0.1059
19853W        W36327   0.524  15.517   4.753  0.3191 -0.2679 -0.2317
19854W        W36328  15.145  15.365  10.489  0.0728  0.0806 -0.1089
19855W        W36329  17.438   5.945   4.199 -0.0899  0.0871  0.2560
19856W        W36330  11.651  18.282   0.281  0.0566 -0.1557 -0.0425
19857W        W36331   8.430   1.933   4.058 -0.2782 -0.1940  0.1233
19858W        W36332  15.523   5.128  13.023 -0.2502  0.2280  0.1028
19859W        W36333   1.739  16.401  14.073  0.1241  0.0257  0.1467
19860W        W36334  18.939  18.375   3.170  0.0675  0.1383  0.0506
19861W        W36335   4.210  18.143  13.974  0.0841  0.0236 -0.0209
19862W        W36336  17.736  10.319   2.794 -0.2234  0.1077  0.1481
19863W        W36337   1.307   2.405   4.783  0.0946 -0.0623  0.0657
19864W        W36338  18.699   6.123   2.065 -0.0737  0.0674  0.3361
19865W        W36339  17.095  15.312   2.529 -0.2011 -0.0653 -0.1148
19866W        W36340  10.685  18.346  12.488  0.1271  0.2454  0.0237
19867W        W36341   2.176  19.572   2.382  0.1913  0.1653  0.1850
19868W        W36342   6.505  15.813   3.359 -0.1485  0.4050  0.0594
19869W        W36343   4.102  15.171  13.253 -0.1103 -0.3949 -0.1233
19870W        W36344   1.624   2.802   0.804  0.0104 -0.0016 -0.0770
19871W        W36345   3.353   6.854  11.121 -0.2083  0.0211 -0.1389
19872W        W36346  12.976   9.666  13.948  0.0914 -0.4697  0.2689
19873W        W36347   8.248   1.316  13.675 -0.1251 -0.3204 -0.1026
19874W        W36348  12.745   9.620   2.136  0.2497 -0.2381  0.4145
19875W        W36349   9.591  17.489  12.553 -0.0499  0.0236  0.0698
19876W        W36350  18.495   0.998   2.328  0.3271 -0.2691  0.4274
19877W        W36351   9.569   5.975  13.331  0.4184  0.0122  0.2711
19878W        W36352   8.715  19.241   1.318 -0.2852 -0.1726 -0.0397
19879W        W36353   9.865  17.744   0.330  0.0317 -0.0090  0.2344
19880W        W36354  14.347  18.638  11.180  0.1006 -0.1038 -0.0061
19881W        W36355   4.585   1.653   5.213  0.1537 -0.1154 -0.3398
19882W        W36356   2.735  14.636  14.431 -0.1146  0.2617  0.0031
19883W        W36357  19.495  17.357  13.817  0.0854  0.2835 -0.0507
19884W        W36358  19.129   3.986  12.748  0.0832  0.0936 -0.1441
19885W        W36359   2.480   2.077  12.611 -0.0389  0.1268 -0.0494
19886W        W36360  10.078   0.120   5.039 -0.1908 -0.0128 -0.2442
19887W        W36361  16.212  10.774   1.125  0.3377  0.0464 -0.3008
19888W        W36362   8.787  10.068   2.465  0.0482  0.0080 -0.0484
19889W        W36363  13.835   8.314   2.011  0.0672 -0.1193 -0.1225
19890W        W36364   5.545  15.069   2.758 -0.1304  0.0203  0.0803
19891W        W36365  14.605  18.920  14.231  0.2668  0.0575 -0.2016
19892W        W36366   7.463  17.513  13.657  0.0113  0.0196  0.0104
19893W        W36367   5.697   0.332  10.526 -0.2343 -0.1018  0.1617
19894W        W36368  10.116  10.892  14.386  0.3068 -0.2567 -0.1894
19895W        W36369   9.531   0.604  12.049  0.0055  0.3720 -0.1109
19896W        W36370  13.022   6.438  11.438  0.1526  0.2335  0.1144
19897W        W36371   5.019  12.086  12.741 -0.1021 -0.2584  0.0729
19898W        W36372  15.519   1.058  11.631 -0.0950  0.2696  0.0127
19899W        W36373  17.610   1.235   0.277  0.1002  0.0315 -0.1505
19900W        W36374  12.555  19.494   4.429 -0.1801  0.1352  0.0145
19901W        W36375  17.243  17.143   1.944  0.1147  0.1615 -0.1368
19902W        W36376  14.392   2.631   1.601  0.2841 -0.4067  0.0916
19903W        W36377  10.009  11.375  14.123  0.1271  0.2168  0.1486
19904W        W36378  13.807   6.377   2.188  0.0885 -0.1623  0.0737
19905W        W36379   9.279  10.940  10.119 -0.2371 -0.3137 -0.3518
19906W        W36380  18.307  14.848   1.344 -0.2092 -0.2362  0.4321
19907W        W36381   6.246  14.963  12.601  0.0850  0.1546  0.0295
19908W        W36382  13.212   2.125   4.342  0.2646  0.1086 -0.0602
19909W        W36383   5.675  10.142  12.086  0.0750  0.1698  0.0336
19910W        W36384   7.360   1.468   3.704  0.2791  0.3856  0.2824
19911W        W36385  15.212   2.585  12.012  0.0341  0.2049  0.0028
19912W        W36386   1.826  17.868   0.778  0.0937  0.0598  0.0515
19913W        W36387   8.983  15.939   3.461  0.5598 -0.2945 -0.0346
19914W        W36388   0.607  14.359  11.523 -0.1517 -0.3243 -0.0393
19915W        W36389  10.988  13.818  10.124 -0.2572  0.3302  0.1787
19916W        W36390   2.133   1.256   3.686  0.1123 -0.3314  0.0753
19917W        W36391   5.402   3.954   4.030  0.1103  0.0724  0.1639
19918W        W36392   6.154   6.768  12.173  0.0144  0.3421 -0.1631
19919W        W36393  16.743  13.404  10.193  0.1638 -0.4759 -0.0966
19920W        W36394   5.907  15.435  11.451  0.0106 -0.1643  0.2489
19921W        W36395   4.701   0.341   1.717 -0.0084 -0.0542  0.1560
19922W        W36396   7.702  17.125   1.522 -0.4064 -0.1002 -0.0675
19923W        W36397   8.436   0.895   0.889 -0.0133  0.0104 -0.3598
19924W        W36398   2.841   4.618   4.240 -0.5013  0.0066  0.0800
19925W        W36399  14.782   2.189  12.056  0.0923  0.0870  0.0264
19926W        W36400   2.884  17.056   3.875 -0.0662  0.2788  0.2887
19927W        W36401   6.734  11.091   9.451  0.1830  0.2437 -0.0208
19928W        W36402   9.017  15.951   2.936 -0.0889 -0.3217 -0.0893
19929W        W36403  16.050   7.017   2.880 -0.0359 -0.0186 -0.1342
19930W        W36404   0.800  11.190  11.011  0.0730  0.0279  0.1353
19931W        W36405  10.268  13.095   0.543 -0.1635  0.0297 -0.0331
19932W        W36406  15.253  14.399   4.761  0.0422  0.3216 -0.1853
19933W        W36407   5.867  15.677   0.667 -0.0658  0.1420  0.0257
19934W        W36408   8.770   3.108   1.157 -0.0194  0.1162 -0.1928
19935W        W36409   0.844   3.134   0.348 -0.0623 -0.0168  0.1658
19936W        W36410  19.433   7.516   1.958 -0.0207 -0.0794 -0.1452
19937W        W36411  16.661   0.344   0.964  0.0718  0.1090 -0.0905
19938W        W36412  15.076  14.143  13.017  0.0632 -0.0506  0.0164
19939W        W36413   3.634  18.010   3.421 -0.0073  0.0417  0.0455
19940W        W36414  18.107  17.877   1.309 -0.1707 -0.0209  0.1165
19941W        W36415  12.940   7.466  13.124  0.0561 -0.4731  0.3907
19942W        W36416   2.625   1.133   4.673 -0.3121  0.1431 -0.1484
19943W        W36417  18.636  18.789   0.890 -0.1368  0.1895 -0.0382
19944W        W36418   1.469  11.009  13.295 -0.1315  0.0325 -0.1925
19945W        W36419   3.631   1.298  12.820  0.0303 -0.0557  0.0929
19946W        W36420  12.499   8.129  13.893 -0.0096 -0.1223 -0.1573
19947W        W36421  16.052   9.113  12.245 -0.1304 -0.4416 -0.0819
19948W        W36422  14.488   0.878  12.586 -0.4126  0.0462  0.2244
19949W        W36423   6.755  16.933   3.047  0.0198  0.2500  0.0722
19950W        W36424  14.567  15.539  13.295 -0.1649  0.0525  0.3793
19951W        W36425  11.497   7.097  13.566 -0.0565  0.5915  0.0743
19952W        W36426   1.257   3.367  13.153 -0.0136 -0.1963 -0.0549
19953W        W36427  12.530  15.281  10.023  0.2000 -0.1812  0.2416
19954W        W36428  12.249  17.251   1.052  0.2572 -0.0263 -0.0183
19955W        W36429   1.070  18.444   2.695 -0.3000  0.0291 -0.1536
19956W        W36430  12.877   4.017   1.275 -0.2917 -0.1395 -0.1762
19957W        W36431  15.860  18.070   4.641 -0.0926  0.3391 -0.1107
19958W        W36432  16.707   1.185  12.765 -0.1489 -0.3297  0.0168
19959W        W36433   9.559   8.281  13.918 -0.1739 -0.1727 -0.0512
19960W        W36434   4.703  14.894   4.404 -0.2516 -0.2802 -0.2674
19961W        W36435   8.639   2.035  12.556 -0.0061  0.2278 -0.1436
19962W        W36436  18.904   4.940  10.840 -0.2993 -0.1050 -0.0435
19963W        W36437  10.381   1.866  12.459  0.1405  0.6739  0.0398
19964W        W36438   7.153  17.696  14.485 -0.2220 -0.2489 -0.2423
19965W        W36439  14.885  10.754   3.322 -0.1555  0.0601  0.0376
19966W        W36440   8.645  13.980  11.721 -0.0241 -0.1554  0.0320
19967W        W36441   9.450   0.110   3.803  0.0593  0.0056 -0.0377
19968W        W36442   1.253   7.030  14.196  0.2077 -0.0373  0.2572
19969W        W36443   7.802   3.331  10.639 -0.1527 -0.1973  0.0599
19970W        W36444  10.642   4.647  14.706 -0.0333  0.1545 -0.0099
19971W        W36445   5.930  16.689   1.581  0.0523 -0.1520 -0.3945
19972W        W36446  11.176  19.227   3.738 -0.0873  0.3652 -0.0764
19973W        W36447  16.451   1.775  13.449  0.1905  0.1815  0.0274
19974W        W36448   7.558   9.219  11.232 -0.0289 -0.2427  0.0238
19975W        W36449   8.627  15.700   0.000 -0.1269 -0.1774  0.3396
19976W        W36450  15.685   2.737  12.164  0.0282  0.1023 -0.1442
19977W        W36451  18.873  18.934  13.002 -0.0470 -0.0884 -0.0807
19978W        W36452   3.341  14.461   0.398 -0.1532  0.0029 -0.0373
19979W        W36453   1.924  17.020  11.828 -0.0538 -0.1010  0.0012
19980W        W36454  17.176   8.004   0.739  0.0063  0.0458  0.3036
19981W        W36455   0.505   2.465   1.013 -0.2988  0.1662  0.1255
19982W        W36456  18.825   5.825   4.442 -0.0481 -0.1533  0.1856
19983W        W36457  13.843  12.615   3.141 -0.0102 -0.1277 -0.1629
19984W        W36458  17.890   6.564   3.745 -0.4029  0.1683 -0.2219
19985W        W36459  14.045   8.111  10.751 -0.1286 -0.0065  0.0366
19986W        W36460   0.435   4.531   4.177 -0.0384 -0.0889  0.2522
19987W        W36461  15.958  16.532  11.918  0.0294  0.3766 -0.0578
19988W        W36462  12.739   9.644  11.468  0.0686 -0.1112  0.1123
19989W        W36463  18.199  19.013  10.590  0.1621 -0.2370 -0.1720
19990W        W36464  17.696   2.088  13.938  0.6204  0.0409 -0.0475
19991W        W36465  13.713   4.231   1.203 -0.0463  0.1373 -0.0095
19992W        W36466  17.261  18.964  12.599  0.0265 -0.2592  0.1380
19993W        W36467   4.316  16.068  11.367 -0.0075  0.1121  0.0972
19994W        W36468  18.426  13.840   2.104  0.1037 -0.1444  0.2384
19995W        W36469   8.882  14.839  12.373  0.5280 -0.1891  0.3225
19996W        W36470   3.252   3.083  13.961 -0.4758 -0.0464  0.0658
19997W        W36471  12.514  14.892   4.561 -0.1000 -0.1455 -0.0388
19998W        W36472   2.965   1.199  10.654 -0.2429 -0.0701  0.2344
19999W        W36473  15.921   7.793   0.410  0.1613 -0.2182  0.2162
20000W        W36474   0.396   0.831   3.953 -0.1326  0.1379  0.1101
20001W        W36475  14.622  13.304   3.965 -0.0002  0.2381 -0.0607
20002W        W36476   8.966   0.308   2.741  0.1809 -0.0875  0.2631
20003W        W36477   8.592  11.959   9.971 -0.0907  0.0877 -0.2404
20004W        W36478   1.182   4.347  14.090  0.1581  0.0510 -0.0943
20005W        W36479   2.167  17.923  11.615 -0.0620  0.1129  0.1585
20006W        W36480   4.083   7.025  14.614 -0.0208 -0.1464 -0.4550
20007W        W36481   4.099  15.795  10.947 -0.1611 -0.0498  0.2870
20008W        W36482   7.912  15.288   1.004 -0.1000  0.2739  0.2054
20009W        W36483   0.119   8.442  13.354  0.0419 -0.0449  0.1155
20010W        W36484  18.410  11.545   3.899  0.1506 -0.0971  0.2011
20011W        W36485  12.343  14.564  10.810 -0.0850 -0.3329  0.1744
20012W        W36486   5.964  16.408  10.215  0.1696 -0.0718  0.3556
20013W        W36487   3.787   9.735   1.797 -0.0561  0.1105 -0.0855
20014W        W36488  12.663   4.869   1.336 -0.0972  0.2244 -0.0394
20015W        W36489   4.459   9.226   4.504  0.0775  0.3035 -0.1437
20016W        W36490   5.613   0.885   4.034 -0.0852  0.0994 -0.2841
20017W        W36491  11.553   2.441  13.810 -0.0264  0.1592  0.0474
20018W        W36492  16.710  19.040   2.322  0.1786 -0.0487  0.2830
20019W        W36493  10.762  16.779  10.366  0.3623 -0.4854  0.1900
20020W        W36494   3.617  18.669   0.501  0.0439  0.0894  0.0648
20021W        W36495   8.101  14.076  12.453  0.1043 -0.0512 -0.2994
20022W        W36496  11.394   0.837  14.116  0.2925  0.1565 -0.0380
20023W        W36497  17.719  18.002  12.109  0.2195 -0.0269  0.1736
20024W        W36498   0.234   2.689  12.902  0.2011 -0.1124 -0.0761
20025W        W36499   7.517  15.657  12.600 -0.2838 -0.1469 -0.1504
20026W        W36500  10.751   5.409   4.851 -0.1488  0.1655 -0.2324
20027W        W36501  10.463  11.816   1.865  0.2943 -0.1603 -0.0830
20028W        W36502  11.058   2.947   4.882 -0.2811  0.1908 -0.0345
20029W        W36503  14.724   1.101   1.945 -0.0748 -0.0165  0.0521
20030W        W36504  12.535   6.931  13.019 -0.3205  0.2599  0.4023
20031W        W36505   0.581   4.152   4.599 -0.0945 -0.3346  0.0790
20032W        W36506   0.571  18.195  10.609 -0.0076 -0.1115 -0.1136
20033W        W36507  13.034   8.132   4.544  0.1909 -0.1030  0.3455
20034W        W36508   6.060   5.665  10.238 -0.1338 -0.2610  0.2522
20035W        W36509  15.170   9.869   4.610 -0.3443 -0.1431 -0.1077
20036W        W36510   8.544  11.724  14.516  0.1535  0.1420  0.0243
20037W        W36511  10.816  12.594   2.438 -0.1358 -0.3134 -0.1681
20038W        W36512   9.100   8.839  11.960  0.1988  0.1417  0.0323
20039W        W36513  14.062  12.140   0.559  0.0552 -0.0864 -0.1197
20040W        W36514  10.739  15.857   2.811  0.0136 -0.1369 -0.1186
20041W        W36515  12.959  17.398   3.542  0.1633 -0.0797 -0.0515
20042W        W36516   6.160  10.664   3.920 -0.0183 -0.2758  0.0641
20043W        W36517  12.972  18.442   9.791 -0.1130  0.1477  0.0383
20044W        W36518   5.747   8.711  13.874 -0.1376  0.2255  0.0681
20045W        W36519   7.323   1.268   9.942  0.0132 -0.4481  0.1022
20046W        W36520   9.717   1.782   3.691 -0.2585 -0.1042 -0.1742
20047W        W36521  15.733  10.261   3.244  0.1122 -0.2129  0.0503
20048W        W36522  18.915   2.166   2.710  0.1454 -0.0383  0.1082
20049W        W36523  14.575  12.471   9.730  0.1411  0.0184 -0.2744
20050W        W36524  12.638   3.186   0.215 -0.2871  0.0358  0.1441
20051W        W36525   9.703  16.392   2.387  0.3292 -0.4986 -0.0551
20052W        W36526  15.744  19.272  13.768  0.1454  0.2391  0.0602
20053W        W36527  17.858   0.699   2.537  0.4119  0.2550  0.1706
20054W        W36528  13.285  13.374   4.588 -0.1727 -0.0535  0.2209
20055W        W36529   2.166  19.050  10.064 -0.3454 -0.1764  0.2533
20056W        W36530  13.753   9.703  12.254  0.3275  0.0364 -0.1249
20057W        W36531  12.217  14.264   3.811 -0.1430 -0.0151  0.2190
20058W        W36532  10.797  14.650  14.143  0.1815 -0.0869  0.2937
20059W        W36533   8.109  15.162   3.867  0.1871 -0.1047 -0.0831
20060W        W36534   9.204  19.042   1.333 -0.2433  0.0750  0.0324
20061W        W36535   0.623  18.377   4.610 -0.0383  0.0300 -0.0180
20062W        W36536   8.302  15.370  13.697 -0.1545 -0.1152  0.1730
20063W        W36537  11.938   1.685  11.689  0.2717 -0.0555 -0.0171
20064W        W36538   2.963  14.294   0.708  0.0064 -0.0329 -0.2198
20065W        W36539  15.947  14.369  14.298  0.1001 -0.2792  0.0841
20066W        W36540   3.617  15.755  13.692  0.3934 -0.1355 -0.4775
20067W        W36541  15.283   2.360  12.958 -0.0928  0.3703 -0.2903
20068W        W36542   9.796   1.841  13.489  0.2112 -0.1762  0.3122
20069W        W36543  12.608   3.344  12.706  0.1670 -0.1025  0.1362
20070W        W36544   0.513   8.160  12.028  0.1858 -0.1662 -0.2118
20071W        W36545  10.121   6.138   1.834  0.2128 -0.0647  0.1403
20072W        W36546   5.503   7.762  13.211 -0.3009  0.0830  0.0532
20073W        W36547  13.375   9.746  11.406 -0.0104  0.0758 -0.0798
20074W        W36548  10.803  15.877  12.700 -0.2084 -0.3379 -0.0653
20075W        W36549   6.686  16.069  12.227  0.1580  0.0827  0.1937
20076W        W36550  14.457  16.834  13.039 -0.0208  0.1361  0.1539
20077W        W36551  18.136  18.748   1.037 -0.1248 -0.2058  0.0379
20078W        W36552  12.108   6.056  11.329 -0.3191  0.0985 -0.0565
20079W        W36553   4.879   5.686   2.742 -0.3000  0.0376  0.4118
20080W        W36554  15.375  11.671   0.270 -0.0666 -0.0191  0.2990
20081W        W36555   7.802  19.245   9.790 -0.0180  0.2385 -0.0556
20082W        W36556  12.744   2.577   3.459  0.2802  0.2850  0.0863
20083W        W36557   1.947   7.257   1.655 -0.2987  0.1607 -0.1451
20084W        W36558  11.182  15.849  14.485 -0.3072  0.2917  0.0466
20085W        W36559   5.951  10.442  11.278  0.0061 -0.0860  0.0153
20086W        W36560  12.330  14.698   4.128  0.0420 -0.2080 -0.0261
20087W        W36561   3.636   7.291  11.166 -0.4156  0.0658  0.1204
20088W        W36562   6.532   6.210  13.304  0.0867  0.1012  0.0637
20089W        W36563  13.533   8.572  14.005  0.3211 -0.2162 -0.2740
20090W        W36564  16.912   1.881   4.201 -0.1044  0.1807  0.1889
20091W        W36565  15.227  12.298   1.384  0.3398 -0.2065 -0.2852
20092W        W36566   7.067  11.359   0.845 -0.2418  0.0042 -0.4374
20093W        W36567  15.986   3.541   0.582 -0.0196 -0.1185 -0.0875
20094W        W36568  12.493   7.628  14.442  0.1630  0.0562  0.0205
20095W        W36569   0.988   4.742  12.368  0.1503  0.2154 -0.5544
20096W        W36570  14.098   2.112   3.273 -0.0623  0.1375 -0.1132
20097W        W36571  16.636   0.908  10.634 -0.0505 -0.1078  0.0341
20098W        W36572   3.961   0.658   0.639  0.0572  0.0763 -0.3080
20099W        W36573  16.484  15.007   5.116  0.1843  0.3113  0.0557
20100W        W36574   9.188   4.412   5.774 -0.2654  0.0893 -0.1089
20101W        W36575   9.980   6.106  11.163 -0.0506  0.0874  0.0510
20102W        W36576   5.146  11.631  11.975  0.3747 -0.2351 -0.0669
20103W        W36577   6.296   9.277  12.709  0.0556 -0.0793  0.1429
20104W        W36578  18.581  17.283  11.289  0.2398  0.2537  0.2084
20105W        W36579  16.657   4.099   4.066  0.3204 -0.3774 -0.0550
20106W        W36580  18.468   5.768   5.005  0.0072 -0.0644 -0.2875
20107W        W36581   2.246  19.231  13.815  0.3731 -0.2292  0.1693
20108W        W36582   2.459   1.651   3.487 -0.3443  0.3207  0.1002
20109W        W36583  14.571   3.159  10.082  0.1315  0.1368 -0.0781
20110W        W36584  11.437   5.678   0.587 -0.1287 -0.2017  0.0743
20111W        W36585  19.358   6.202  10.174 -0.2799  0.1751 -0.0796
20112W        W36586  14.513   3.383   4.003  0.1902 -0.0318  0.0418
20113W        W36587  19.298  11.739   3.026 -0.0569 -0.1392  0.1012
20114W        W36588  13.829  16.651  12.371  0.3975  0.0109 -0.0410
20115W        W36589   8.785   8.486  12.699  0.0658 -0.1071 -0.0574
20116W        W36590   7.419  17.781   1.174  0.3152 -0.0698  0.0442
20117W        W36591   0.780   9.058   0.168  0.2175  0.0560 -0.3051
20118W        W36592   5.627   1.160   4.480  0.2681 -0.1574 -0.1211
20119W        W36593  18.974   5.549   2.807  0.1409 -0.3833 -0.0172
20120W        W36594  18.918   2.311   1.786 -0.0404 -0.0451  0.0277
20121W        W36595   5.087  19.203  11.073 -0.1506  0.1415 -0.0502
20122W        W36596  10.079   2.228  13.234  0.1291  0.4095 -0.1093
20123W        W36597  17.896   4.593  13.984  0.0143 -0.2678  0.0263
20124W        W36598   8.583   6.598   0.642  0.1177 -0.0983  0.0780
20125W        W36599   5.769   0.420   4.286  0.0572  0.0821  0.2789
20126W        W36600  18.313  14.613  14.040 -0.1343  0.3540 -0.0391
20127W        W36601   4.413   1.010  13.860 -0.1247  0.1148  0.0574
20128W        W36602   3.071  12.198  14.655  0.0631 -0.1869  0.1759
20129W        W36603  12.863   5.344   4.106  0.1123 -0.2129 -0.2420
20130W        W36604  18.946   2.218   3.609  0.1986 -0.1545 -0.0512
20131W        W36605  15.372   7.901   5.115  0.2033 -0.3038  0.1449
20132W        W36606   2.544  16.333  11.362  0.0357 -0.1100 -0.2251
20133W        W36607   1.647  10.296  11.975  0.0818 -0.1784 -0.0836
20134W        W36608   9.153   0.921  10.897  0.3477 -0.2718 -0.0780
20135W        W36609   4.041  15.901  12.436  0.0088 -0.0654  0.0992
20136W        W36610   5.522  16.712   3.516 -0.3819  0.0008 -0.2762
20137W        W36611   1.531  14.223  12.495  0.0774 -0.0698 -0.1031
20138W        W36612   1.564  18.329  11.515 -0.0532  0.0141  0.0018
20139W        W36613   0.671  19.184   3.395  0.1759 -0.2300 -0.0415
20140W        W36614  11.801   9.757  14.688  0.0561  0.0688  0.2290
20141W        W36615  12.925   0.970   1.646  0.1935  0.1988 -0.0945
20142W        W36616  15.400   2.937   4.024  0.0129  0.1633  0.1142
20143W        W36617  17.069  11.285   4.585  0.1381  0.1211 -0.0094
20144W        W36618  11.483  13.824   4.631  0.0943 -0.2377 -0.0715
20145W        W36619   9.347  18.607  11.952 -0.1444 -0.0695  0.0722
20146W        W36620  19.186  15.632   3.658 -0.6413  0.1833  0.1958
20147W        W36621  14.134  10.164  12.047  0.1263 -0.0140 -0.4777
20148W        W36622   6.906   0.122   1.230  0.1692 -0.0379  0.0901
20149W        W36623   3.894   8.473  13.667  0.1240  0.2040 -0.0412
20150W        W36624  11.051   1.479   3.480 -0.0373  0.0324  0.1326
20151W        W36625   7.246  18.450  10.142  0.1053 -0.1758  0.2481
20152W        W36626  11.233  17.369  10.998 -0.1749  0.1772  0.0483
20153W        W36627   2.452   2.222   0.875  0.0746  0.1551 -0.0333
20154W        W36628  12.432   7.356  12.689  0.0197  0.1735 -0.4277
20155W        W36629  17.315   5.506   0.034 -0.3092 -0.4295 -0.0701
20156W        W36630   3.275  13.755   9.632  0.0710 -0.0798 -0.0458
20157W        W36631  16.413   7.791  11.448 -0.0771  0.2098  0.0748
20158W        W36632   4.411   8.314  13.789 -0.4382 -0.0610 -0.2434
20159W        W36633  18.071   0.663   4.503  0.0485  0.1025  0.2210
20160W        W36634  14.144  17.559   4.762  0.2511  0.0656  0.0913
20161W        W36635   2.317  16.418   0.494 -0.4188  0.0015  0.0489
20162W        W36636   7.199  15.617   3.692 -0.1961 -0.1321 -0.0752
20163W        W36637   2.711  19.192   2.998 -0.0752 -0.1116 -0.1116
20164W        W36638   8.934  15.481   3.989 -0.1558  0.1438 -0.0744
20165W        W36639  14.025   8.636  14.076 -0.3013  0.1703  0.0551
20166W        W36640   9.923  11.439   5.765  0.0486  0.1641 -0.0498
20167W        W36641  12.559  13.327   0.436 -0.4664 -0.0683  0.2882
20168W        W36642   1.794  19.209  13.557  0.1197 -0.2377 -0.1334
20169W        W36643   7.024  19.469  11.711 -0.0173  0.2815 -0.2079
20170W        W36644  13.055  16.579   1.329 -0.2690  0.0813 -0.2195
20171W        W36645   5.775  13.524   0.897  0.0303  0.0777  0.3082
20172W        W36646  16.249  11.997  12.137  0.2600 -0.0608 -0.2359
20173W        W36647   3.597   7.535   4.917  0.0586 -0.3879 -0.1772
20174W        W36648  11.386   9.312   2.911  0.1053  0.1937 -0.0087
20175W        W36649   8.362  14.789  12.187 -0.0076 -0.2344  0.1401
20176W        W36650   4.887   0.815  10.901 -0.2491 -0.2452  0.0818
20177W        W36651  18.813   7.562  12.411 -0.0284  0.1161  0.0765
20178W        W36652   1.344   0.790  12.148  0.0241  0.0109  0.0032
20179W        W36653   8.815   8.333   5.303 -0.1949 -0.2278 -0.1915
20180W        W36654  12.550  17.362   1.566 -0.2158 -0.1193 -0.0528
20181W        W36655  10.252   7.792   4.340  0.2725 -0.0236 -0.0803
20182W        W36656  17.428   7.011   2.944  0.2458  0.3248 -0.2923
20183W        W36657   8.780   7.224   9.897 -0.0450  0.1008  0.2006
20184W        W36658   2.012  12.445  11.979 -0.0024  0.1628  0.3287
20185W        W36659  19.002  11.785   4.288  0.4286  0.1055 -0.1060
20186W        W36660  13.520   2.739   1.765  0.2304  0.0697  0.1180
20187W        W36661  18.096   8.608  13.173 -0.2588  0.1135 -0.1413
20188W        W36662  10.827  17.996  14.572 -0.0970 -0.1389 -0.0393
20189W        W36663   5.828   4.785  13.799  0.0232 -0.1314 -0.1007
20190W        W36664  17.106   3.934  10.850  0.3393  0.0373 -0.2419
20191W        W36665  15.358  15.733  11.982  0.3271 -0.1335 -0.3819
20192W        W36666   8.136  16.557   1.427  0.0812  0.2067 -0.0846
20193W        W36667  12.767   8.317   4.084 -0.1646 -0.1070 -0.3753
20194W        W36668  15.468   2.356  12.423  0.0025  0.0012 -0.0713
20195W        W36669   1.016   8.287  10.609  0.4124 -0.0420 -0.5022
20196W        W36670  18.943  17.084   4.995  0.0331 -0.0293  0.0674
20197W        W36671  17.934   3.672   0.973  0.3078 -0.2965 -0.0196
20198W        W36672  10.083   7.218   5.051  0.2041 -0.0851 -0.0345
20199W        W36673   1.369   6.942  13.208  0.1082  0.1466  0.1050
20200W        W36674   3.333   3.624  13.147 -0.2229 -0.0657  0.1982
20201W        W36675   5.514   1.485  11.783 -0.2893 -0.1382 -0.0412
20202W        W36676   7.320  11.648   2.155 -0.0828  0.0124 -0.5648
20203W        W36677   6.758   5.446   3.821 -0.0431 -0.0220 -0.1274
20204W        W36678  13.265  12.856  12.204  0.0009  0.1328  0.0845
20205W        W36679  18.901   2.213   0.162  0.0285 -0.2310  0.0836
20206W        W36680  18.780   7.259   0.643  0.0284  0.0214 -0.0191
20207W        W36681  10.940   8.078  11.999 -0.0639  0.1292  0.1328
20208W        W36682   9.738   9.453  12.762 -0.1125 -0.0636 -0.0676
20209W        W36683  10.301   9.313  14.039  0.0245 -0.5049 -0.0712
20210W        W36684   4.581   7.576   3.118  0.0014 -0.0759 -0.2872
20211W        W36685  15.210  18.330  13.182  0.1727  0.5854  0.4012
20212W        W36686  11.659  18.478   0.756  0.2278  0.0563 -0.0454
20213W        W36687  17.733   5.620   0.270 -0.1693  0.0246 -0.0939
20214W        W36688  17.374  10.010   0.903  0.1838 -0.1785 -0.2302
20215W        W36689  17.818   7.951   0.896  0.2333 -0.0897  0.3255
20216W        W36690  15.120   3.220  14.636  0.0496  0.0425  0.1365
20217W        W36691   3.092  15.717  12.576  0.0230 -0.1230  0.0115
20218W        W36692   0.461   4.117   2.639 -0.0532  0.1713 -0.0827
20219W        W36693  12.099   3.581   3.713  0.1011 -0.0511  0.3837
20220W        W36694  13.418   3.711  10.234 -0.0408  0.0693 -0.3213
20221W        W36695  13.956  16.291  14.233 -0.0222  0.0197 -0.0061
20222W        W36696  19.439   8.787  13.575  0.0370  0.2452 -0.2825
20223W        W36697   1.206  13.602   3.647 -0.1897  0.3059 -0.5437
20224W        W36698  14.919  19.275  14.414  0.2760 -0.0447 -0.0632
20225W        W36699  10.886  17.211   4.314  0.3588 -0.1345  0.0810
20226W        W36700  13.057   9.219   2.677  0.0815  0.1671 -0.0736
20227W        W36701  17.302   0.851   1.714  0.0983  0.0265  0.2797
20228W        W36702   3.421  17.508   0.471 -0.1307  0.1086  0.0273
20229W        W36703   5.802  17.030   3.294  0.2486  0.4277  0.1406
20230W        W36704   6.703  19.468   4.901  0.0186 -0.1797 -0.0200
20231W        W36705  11.648  15.006  13.055  0.0536  0.1211  0.2258
20232W        W36706  12.940   2.235   3.843 -0.0171 -0.0502 -0.0276
20233W        W36707   7.145   1.044  11.755 -0.0692  0.3555  0.1775
20234W        W36708  10.575  13.870   1.984  0.0261  0.1629 -0.2219
20235W        W36709  10.526   0.040  10.522  0.3618 -0.1169  0.0860
20236W        W36710  11.658  15.800   4.419  0.0004 -0.0919  0.2095
20237W        W36711   6.263   0.738  14.502  0.2739 -0.0476  0.1097
20238W        W36712   0.553   4.753  12.848 -0.0536 -0.0447  0.0122
20239W        W36713   9.008  15.071  12.805 -0.1617 -0.0441  0.0578
20240W        W36714  13.815  17.223   0.677 -0.1389  0.1140  0.1471
20241W        W36715  16.846  12.700  13.516  0.2481 -0.3563 -0.0296
20242W        W36716   2.566   9.703   1.832  0.2905  0.0579 -0.0687
20243W        W36717  13.721   6.131  14.685 -0.0536  0.2675  0.0729
20244W        W36718  17.871   2.717   3.673  0.0669  0.4255  0.0484
20245W        W36719   5.218   4.619   2.421  0.0140  0.1227 -0.0065
20246W        W36720  15.379  17.592  12.423  0.3266 -0.2714  0.0178
20247W        W36721   4.320   0.437   0.928 -0.0165 -0.2862  0.0780
20248W        W36722   8.460  10.639  11.956 -0.2125 -0.0368 -0.2333
20249W        W36723   4.586   7.884   2.106 -0.0505 -0.0911 -0.2657
20250W        W36724  13.557   7.992   2.671 -0.1861  0.0169 -0.1758
20251W        W36725  14.721   0.259   3.237  0.0501  0.0437 -0.4324
20252W        W36726   7.546  18.964  12.400 -0.4526 -0.1465  0.0221
20253W        W36727   2.345   3.172   0.016 -0.2516  0.1754  0.1479
20254W        W36728   0.453  15.499  13.128 -0.3239  0.2535  0.1579
20255W        W36729   2.628  17.841   1.664 -0.0767  0.4131 -0.1513
20256W        W36730  11.968   5.618   1.433  0.0149 -0.1112 -0.0175
20257W        W36731  11.841  16.814   1.994  0.0100 -0.0915  0.0049
20258W        W36732   1.449  17.438   3.783  0.1307 -0.0753  0.0899
20259W        W36733   9.790  15.489   2.098 -0.2284  0.0181 -0.0066
20260W        W36734  15.374  17.841  11.103  0.0751  0.0352  0.0118
20261W        W36735   0.438  15.639   0.065  0.1760  0.0101 -0.1443
20262W        W36736  10.163  17.552  10.890 -0.1879 -0.4074 -0.2823
20263W        W36737   9.979  12.340  11.851  0.1648 -0.4582 -0.3643
20264W        W36738  19.408  13.970  11.434  0.2925  0.1406 -0.0532
20265W        W36739  18.567  16.705   0.610 -0.0783 -0.1145  0.0251
20266W        W36740  17.775   0.623   4.955 -0.0984  0.0380  0.0275
20267W        W36741   0.777  13.791  12.365 -0.0019  0.0315 -0.1602
20268W        W36742   3.183   0.869   0.914  0.1665 -0.1500  0.4289
20269W        W36743  10.872   5.871   0.627 -0.1386 -0.0938 -0.0214
20270W        W36744  18.463   0.111   2.002  0.1273 -0.0561  0.0785
20271W        W36745   5.204  11.076   0.584 -0.3232  0.2423 -0.2340
20272W        W36746   5.701   4.650   2.591  0.1113  0.0292 -0.0506
20273W        W36747   5.750  10.064   0.129  0.2382  0.0621  0.1114
20274W        W36748   0.930   8.796   2.617 -0.1506 -0.1365  0.2029
20275W        W36749   9.402  10.790  13.241  0.3254 -0.2890 -0.0292
20276W        W36750  14.185   5.337  12.926 -0.3262  0.2193  0.3505
20277W        W36751   9.468  15.845  11.427 -0.0761  0.3126 -0.0570
20278W        W36752   9.515  19.469  14.292 -0.2243  0.0370  0.1394
20279W        W36753  10.155  14.813  10.580 -0.1043  0.3817 -0.2235
20280W        W36754   8.850  14.417  11.870 -0.0792 -0.1670 -0.1691
20281W        W36755  17.526   4.855  13.142  0.0343 -0.0496 -0.1030
20282W        W36756   7.795   3.393   2.204  0.1669 -0.0047 -0.0446
20283W        W36757  12.283  10.491  11.020 -0.1260  0.0783 -0.0231
20284W        W36758   5.990  13.048  12.139  0.0675  0.0040  0.0976
20285W        W36759   7.144   1.621   5.187 -0.1139 -0.0437  0.1058
20286W        W36760   4.489  12.573  11.009 -0.3375  0.1916  0.0078
20287W        W36761  16.262  16.065   4.894  0.1926  0.1631 -0.2347
20288W        W36762  18.533  11.131   3.696 -0.0967  0.3244 -0.1261
20289W        W36763   8.489   1.833   5.157 -0.3555 -0.0143  0.1176
20290W        W36764  12.462  14.185  11.146 -0.0379  0.1701 -0.4800
20291W        W36765  14.245   7.146  10.535 -0.1270 -0.1918  0.0825
20292W        W36766  13.815   8.847  11.788  0.1292  0.1480 -0.0242
20293W        W36767  10.093  16.643   2.595  0.3180 -0.1603  0.0534
20294W        W36768   9.210   9.054   1.706  0.0162 -0.4939  0.0817
20295W        W36769   0.947  16.736   1.397 -0.0703 -0.1433  0.1689
20296W        W36770   3.661   5.918  10.102 -0.0497 -0.1964 -0.3663
20297W        W36771  14.327  12.011  12.615 -0.0339  0.0244  0.0177
20298W        W36772   2.039  18.007  13.445 -0.0823 -0.0355  0.1368
20299W        W36773   8.702  14.736  10.820 -0.1776  0.1711  0.1175
20300W        W36774   4.821   6.434   3.320  0.1081 -0.3042  0.3832
20301W        W36775   0.597   1.776   0.623 -0.0471  0.1502 -0.0744
20302W        W36776   3.327  13.721   1.763 -0.0407 -0.0503 -0.2438
20303W        W36777   0.919   1.983   3.913 -0.0405 -0.0604  0.1452
20304W        W36778  12.184  18.805  13.298  0.2561 -0.2027  0.1162
20305W        W36779  11.906  19.279   5.644  0.1247 -0.3330  0.4355
20306W        W36780  18.314   4.901  13.124  0.1013  0.4962  0.3459
20307W        W36781   5.370   2.299  12.241 -0.0245  0.0185  0.0927
20308W        W36782  17.025  13.507   2.919  0.1351 -0.0477 -0.0301
20309W        W36783  19.518  12.663  11.167 -0.0304 -0.1972  0.1196
20310W        W36784  12.111   4.274  12.736 -0.1241  0.1374  0.0743
20311W        W36785  14.766  18.194  11.046  0.1197  0.2056  0.1322
20312W        W36786   3.775   2.084   0.579  0.0984  0.2073  0.0216
20313W        W36787   5.994  11.040   9.437 -0.5140 -0.1390  0.0590
20314W        W36788  18.479  13.405  11.128 -0.1612 -0.2480  0.3567
20315W        W36789  12.928  18.813   4.336 -0.0153 -0.0414 -0.4042
20316W        W36790   1.160  16.443  10.211  0.0346  0.0899 -0.1711
20317W        W36791  10.536  11.600   1.413 -0.1713 -0.1213  0.2347
20318W        W36792   6.007   7.742   0.568 -0.0976  0.0418  0.0328
20319W        W36793   6.809   9.843  10.246  0.0131  0.0097  0.4172
20320W        W36794   5.733  13.475  11.767 -0.0952 -0.0256 -0.0104
20321W        W36795  18.550  12.078   4.134 -0.0451 -0.1589 -0.3545
20322W        W36796  11.808  12.991  12.433 -0.0813 -0.2280 -0.1620
20323W        W36797   4.288  12.394  14.436  0.7164  0.1717  0.6090
20324W        W36798  18.563  13.111   2.229 -0.1256  0.2303  0.1560
20325W        W36799  10.262  12.329   1.828  0.2215 -0.0482 -0.0003
20326W        W36800  13.865   2.605  12.067 -0.0079 -0.1050 -0.2458
20327W        W36801  17.335   1.338   4.765 -0.1988  0.1003  0.0770
20328W        W36802   0.404  12.203   2.070 -0.2639 -0.0260  0.2597
20329W        W36803   4.766   7.041  12.447 -0.0661 -0.1468 -0.1240
20330W        W36804  10.775   4.470   2.302  0.0059 -0.0003 -0.1725
20331W        W36805  11.469  19.515   1.081  0.1218  0.1579  0.2513
20332W        W36806   7.544  10.591   4.424  0.0110  0.2505 -0.0698
20333W        W36807  15.784   1.879   0.574  0.0765  0.0614  0.4174
20334W        W36808  12.512  17.034   3.592  0.3650 -0.2465 -0.1793
20335W        W36809   6.549  15.138   0.469 -0.0226  0.1240  0.1014
20336W        W36810  11.346  10.961   1.202  0.3104  0.3064  0.0999
20337W        W36811  17.502   8.943  13.761  0.0231 -0.0667 -0.2979
20338W        W36812  12.342  17.477   2.091  0.1372  0.3021  0.0739
20339W        W36813   2.711  11.567  11.726  0.0541 -0.2024 -0.1667
20340W        W36814   1.295   1.816  12.640  0.3406  0.2123  0.1868
20341W        W36815  14.220  18.043   5.341  0.2038 -0.1752  0.2642
20342W        W36816   4.731  19.304   4.420  0.1057 -0.1565  0.5031
20343W        W36817  14.068   9.316   1.968 -0.4220  0.0713  0.2311
20344W        W36818  14.544  11.675   5.106  0.1075  0.0297  0.0356
20345W        W36819  17.012  15.017  10.894  0.0963  0.1136 -0.1532
20346W        W36820   3.178   9.382  11.564 -0.2166  0.0290 -0.1357
20347W        W36821  11.350   9.924   1.055 -0.3848 -0.2243  0.1619
20348W        W36822  18.930   9.133   0.135  0.2354  0.1791  0.0908
20349W        W36823   6.900  10.572   2.694  0.3775  0.0164 -0.0378
20350W        W36824  18.299   9.960   1.036  0.1777 -0.4315 -0.2548
20351W        W36825   6.000  17.711  14.251 -0.0102  0.2545  0.2722
20352W        W36826   9.477  10.170   0.129  0.0453  0.1427  0.0392
20353W        W36827  10.347  15.705  11.779 -0.1962  0.1235 -0.1561
20354W        W36828  17.913   3.446  10.700  0.3666  0.0666 -0.0389
20355W        W36829   0.225   1.179  11.661  0.2712 -0.3097 -0.2653
20356W        W36830   0.471   3.227   5.015  0.1473  0.4041  0.4036
20357W        W36831   6.536  18.199   2.442 -0.1958  0.1615 -0.1960
20358W        W36832   9.401  16.110  11.915 -0.1266 -0.1920 -0.2747
20359W        W36833  15.181   3.071  11.885 -0.0966  0.1344 -0.1338
20360W        W36834   3.943   1.101   1.010 -0.2330 -0.1137 -0.0141
20361W        W36835   7.297  10.465   0.836  0.0008  0.0154  0.0027
20362W        W36836  14.406   1.537   0.250 -0.0402 -0.0318 -0.2297
20363W        W36837  19.246   3.464   2.169  0.0562  0.0327 -0.2453
20364W        W36838  12.454  10.920   0.692  0.2873  0.2740 -0.0027
20365W        W36839  12.418  19.288  11.827 -0.3171  0.0277  0.0259
20366W        W36840  11.698  11.208   3.926 -0.1495 -0.0907  0.0171
20367W        W36841  14.632  19.542   1.479  0.2820 -0.2886 -0.2227
20368W        W36842   6.742   3.111   3.289 -0.1736 -0.0686  0.0847
20369W        W36843  17.466  15.952   1.954 -0.3028 -0.1126  0.0819
20370W        W36844  11.880  12.617  11.110 -0.2298 -0.1082  0.1471
20371W        W36845   5.342  15.916  13.287 -0.2136 -0.0081  0.3431
20372W        W36846  14.140  16.903   4.167 -0.0592  0.1943 -0.1720
20373W        W36847  18.590   2.839  13.552  0.1940  0.3594  0.1965
20374W        W36848  19.158  16.527   3.383  0.3811  0.2629  0.2453
20375W        W36849  13.634   9.145   1.816 -0.1717  0.0003  0.1460
20376W        W36850   4.121   8.472  13.182  0.0660 -0.0562 -0.4673
20377W        W36851  16.344   7.764   2.707 -0.0502  0.2146 -0.2540
20378W        W36852   7.789   3.852   3.139  0.4700 -0.1176  0.0769
20379W        W36853   1.398  12.038   3.155 -0.0783 -0.2534 -0.2310
20380W        W36854   1.126   7.045   3.500  0.1377 -0.2630  0.0501
20381W        W36855   1.046  18.419  12.898 -0.0216  0.2193  0.0148
20382W        W36856  14.997   4.820   1.651 -0.0115  0.3584 -0.0228
20383W        W36857  16.572   8.825   1.424  0.0130  0.3151  0.2053
20384W        W36858   2.341   2.495   4.850  0.2480 -0.1496 -0.3926
20385W        W36859  14.687  15.330  11.756 -0.0662 -0.0296  0.2515
20386W        W36860  16.828  13.005  10.703 -0.0058 -0.1337 -0.0084
20387W        W36861  12.909   9.739   3.180 -0.2355 -0.1935 -0.0343
20388W        W36862  11.562   7.291  11.863 -0.0966 -0.0799 -0.3372
20389W        W36863  13.734  18.705   3.700 -0.1099 -0.4115  0.1454
20390W        W36864   6.171  14.746   0.576 -0.2988  0.3748 -0.1916
20391W        W36865  17.990   5.390   9.269  0.2453  0.1008  0.1707
20392W        W36866  16.977   1.330  13.208 -0.2289 -0.2724 -0.2137
20393W        W36867   7.563   9.923  12.958 -0.1358  0.1011  0.0104
20394W        W36868   5.887  14.211   1.029 -0.0653 -0.2043  0.0177
20395W        W36869  10.735  12.607   4.075 -0.1226  0.1276 -0.0579
20396W        W36870   4.591   1.583  12.809  0.0700  0.0301  0.1927
20397W        W36871   7.536   0.953   3.807 -0.1125 -0.2751 -0.2246
20398W        W36872   4.113  10.638   3.070 -0.0130 -0.1490 -0.1376
20399W        W36873   4.507   1.965  11.408  0.3775  0.3110 -0.1420
20400W        W36874   2.118  14.843  12.505 -0.0393 -0.2053  0.1395
20401W        W36875  10.670  14.408   1.703  0.2609  0.3950 -0.0940
20402W        W36876  18.977   2.747   1.570 -0.1449  0.2320  0.1740
20403W        W36877   7.407  10.878  11.693  0.2979  0.2060  0.0170
20404W        W36878   1.021   3.889  13.312 -0.1244  0.2593  0.1143
20405W        W36879  17.076   2.007  11.574 -0.2220 -0.1962  0.0492
20406W        W36880  13.195  13.654   3.041 -0.0750  0.1836 -0.0281
20407W        W36881  14.127  17.563  10.701 -0.0190 -0.1111  0.2965
20408W        W36882  16.609  10.933   0.767 -0.1178  0.0791 -0.2178
20409W        W36883  17.596  13.680  11.515 -0.2184  0.0170  0.0707
20410W        W36884   7.073   6.244   0.578 -0.0550 -0.0660 -0.0713
20411W        W36885  16.358   2.873   4.051  0.3223 -0.0740  0.2232
20412W        W36886   0.292   3.257   9.962  0.1189  0.3119  0.3150
20413W        W36887  19.269  11.901   2.515 -0.2821 -0.2668  0.2327
20414W        W36888   5.728   3.239  14.184 -0.1438 -0.4353  0.3019
20415W        W36889  16.789   1.826   2.821 -0.5946  0.1674  0.2364
20416W        W36890  18.044  19.534  10.996  0.1661 -0.1617  0.1066
20417W        W36891   6.901   4.631  10.178 -0.0652 -0.1719 -0.0229
20418W        W36892   8.342   5.388  12.884 -0.0588 -0.0454 -0.1702
20419W        W36893   0.986  15.640  12.321  0.3099 -0.1510 -0.1169
20420W        W36894   1.585  17.944   5.037  0.1219 -0.3365 -0.1465
20421W        W36895  18.598  18.616   0.315  0.1187 -0.0595 -0.0937
20422W        W36896  10.140   1.539  14.602 -0.2488 -0.0883 -0.1296
20423W        W36897  15.780   0.776  10.754  0.0567 -0.0022 -0.0675
20424W        W36898  11.644  18.956   4.904  0.0282 -0.0031  0.0122
20425W        W36899  10.551  14.343   0.303 -0.2651  0.0744 -0.2079
20426W        W36900  10.495  14.702   4.433 -0.1707  0.1275 -0.2194
20427W        W36901  19.092  19.090  10.628  0.0994 -0.2263  0.1050
20428W        W36902  17.359  18.094   0.513  0.1637  0.1656 -0.0880
20429W        W36903   0.706  12.229   9.508 -0.1871 -0.0845 -0.1354
20430W        W36904   0.366  15.666   3.473 -0.7513 -0.1593  0.1511
20431W        W36905   0.273   3.747   3.810  0.2803 -0.0079 -0.2128
20432W        W36906  11.194  14.664  12.333  0.0671  0.3107  0.4741
20433W        W36907  11.222  13.528   1.122 -0.4283  0.0993 -0.0786
20434W        W36908  15.740  10.727   2.654 -0.0929  0.1597  0.0734
20435W        W36909   1.274  16.376   2.514  0.1078  0.0930 -0.0775
20436W        W36910  13.602  11.399   2.696 -0.0242  0.2951  0.0093
20437W        W36911   9.099   9.678   4.792 -0.3063 -0.2625 -0.1252
20438W        W36912  15.164  12.645  11.298  0.3099  0.1525 -0.1222
20439W        W36913   7.660  16.556   1.650 -0.1421  0.2013 -0.0928
20440W        W36914  13.081   6.698   0.926  0.3591  0.1480 -0.2201
20441W        W36915   8.352  15.566   3.643 -0.0066 -0.0103 -0.4061
20442W        W36916  17.182  13.905  10.701 -0.0525 -0.2121 -0.2040
20443W        W36917   8.938   5.474  11.784 -0.4869 -0.2998 -0.0774
20444W        W36918  16.430  12.425   2.530 -0.0203  0.1635 -0.1757
20445W        W36919   3.872   8.788  10.212 -0.2889  0.1592 -0.1070
20446W        W36920  14.350   4.358  12.368  0.0445 -0.1019  0.0111
20447W        W36921  16.710  17.871  10.235  0.2952 -0.0593  0.0085
20448W        W36922   8.484  10.317   4.959 -0.3949  0.1611 -0.0063
20449W        W36923  15.518   7.324   0.413 -0.3139  0.0975 -0.2013
20450W        W36924   6.425  19.514  13.607  0.1186  0.0327  0.0289
20451W        W36925   7.639   4.603  11.995 -0.1465  0.0059  0.4208
20452W        W36926   6.838   9.456  11.580  0.1640 -0.1714 -0.0859
20453W        W36927  18.063   7.849  14.613 -0.0626 -0.2762 -0.0290
20454W        W36928   1.264  18.620  13.801 -0.0686  0.0605 -0.1263
20455W        W36929  11.525  11.685   3.738  0.1899 -0.0790 -0.0483
20456W        W36930  13.214  12.046   3.240  0.0073  0.0261 -0.1148
20457W        W36931   7.063   6.661   1.329  0.0392 -0.3319 -0.0567
20458W        W36932   4.704   0.032  14.172 -0.3268 -0.1443  0.0062
20459W        W36933   8.363   9.363   2.020 -0.1605 -0.0946  0.2463
20460W        W36934   5.682  17.246  12.561  0.1530  0.3149 -0.4103
20461W        W36935  17.807  12.166   4.063  0.0371  0.4491  0.1267
20462W        W36936   6.699   8.702  13.794 -0.5064  0.2332 -0.3887
20463W        W36937   9.441   4.808  12.435  0.2511  0.2678  0.2987
20464W        W36938  18.128  12.907  13.790  0.3110  0.2015  0.1973
20465W        W36939  16.851  16.214   2.832  0.0632  0.0848  0.0613
20466W        W36940  17.337   7.684  11.060  0.0475 -0.1593 -0.1570
20467W        W36941  15.819  13.383   4.059  0.1789 -0.4530 -0.2950
20468W        W36942  10.234  17.552   0.787 -0.0667  0.1199 -0.2262
20469W        W36943   0.608  12.899  12.107 -0.1874 -0.4135 -0.2224
20470W        W36944  17.181  11.326   9.925 -0.1411  0.1269  0.1528
20471W        W36945   6.501   1.820  12.675 -0.1078 -0.3621 -0.1119
20472W        W36946   2.602   9.048   3.532  0.0860 -0.2367 -0.0648
20473W        W36947  14.042   6.947   2.961 -0.1466  0.1779  0.2651
20474W        W36948   6.827   8.334   4.552 -0.4057  0.1721 -0.1891
20475W        W36949   3.203  10.682   0.458  0.0270  0.1294  0.0928
20476W        W36950  11.238  10.560  14.672  0.4933  0.3830  0.0389
20477W        W36951   5.200  15.088  14.100 -0.0111  0.4929  0.0884
20478W        W36952  15.005   3.022   1.849 -0.2496 -0.0890 -0.3161
20479W        W36953  14.069  17.970  14.676  0.0075 -0.1329 -0.1661
20480W        W36954   2.892  10.126   1.726 -0.4987  0.1702  0.1001
20481W        W36955  19.361  13.648  12.684 -0.0254 -0.0902  0.0752
20482W        W36956  13.391  17.790  10.649  0.3137  0.0937  0.0874
20483W        W36957  18.895   0.084   5.424  0.1784 -0.1158 -0.2304
20484W        W36958  16.484  16.246   4.392 -0.0647 -0.2230  0.2813
20485W        W36959   4.815  16.224   9.462 -0.4186 -0.1055 -0.1594
20486W        W36960   7.312  12.707   1.703  0.2394  0.0061  0.2281
20487W        W36961  12.406  14.912   3.153 -0.0511 -0.0513 -0.2655
20488W        W36962  14.961   1.262   5.264  0.0984  0.0748  0.1166
20489W        W36963   3.175   4.403  12.151  0.1095 -0.5337  0.0936
20490W        W36964   6.803   8.104  11.144 -0.3946  0.0746 -0.0674
20491W        W36965   1.769   6.070   3.836 -0.3072 -0.0218 -0.4585
20492W        W36966   6.920   0.638  12.614  0.2569 -0.0964 -0.0041
20493W        W36967   7.841   4.347   1.780  0.0775 -0.0064  0.1070
20494W        W36968  13.056  13.725  12.378 -0.1803 -0.0310 -0.2509
20495W        W36969   4.956   3.672   1.780  0.2884 -0.1209  0.2028
20496W        W36970   2.369   6.400   0.602 -0.1974  0.0020  0.0588
20497W        W36971   5.121   4.872  10.194  0.2827  0.2427 -0.1714
20498W        W36972   2.079   3.202  13.984 -0.2608  0.0761 -0.4933
20499W        W36973   3.576   7.756  11.761 -0.3407  0.3051  0.2415
20500W        W36974  16.665  17.159  12.525 -0.2235 -0.0447 -0.0460
20501W        W36975   0.154   5.708   2.655 -0.1495 -0.4158  0.0114
20502W        W36976  18.740   4.966  12.869 -0.0429  0.1064 -0.5303
20503W        W36977  10.369  10.558   1.879  0.0102  0.0545 -0.0954
20504W        W36978  13.971   1.460   0.482 -0.0143  0.1708 -0.2361
20505W        W36979  14.853   1.622   3.813  0.1161 -0.0804 -0.5432
20506W        W36980  12.808   2.577   9.934 -0.1738  0.1406  0.2213
20507W        W36981  12.965   7.902  11.737 -0.2236 -0.2581 -0.1396
20508W        W36982  17.051   5.975   2.395 -0.1957 -0.0778  0.0161
20509W        W36983  19.043  11.066   3.563 -0.2792 -0.0426 -0.1783
20510W        W36984  11.302  11.152   5.409  0.1419  0.3156 -0.0950
20511W        W36985  17.336  18.003  11.195  0.0851 -0.2790 -0.0094
20512W        W36986  18.307  18.083   0.336 -0.1275  0.0168  0.0166
20513W        W36987  19.571  19.061  13.633 -0.0853 -0.2735  0.1197
20514W        W36988   5.970  18.179   0.845  0.4491  0.4055 -0.3475
20515W        W36989   0.094   7.337  11.580  0.3483  0.2508  0.2549
20516W        W36990  18.698  15.335  10.500  0.1297  0.3062  0.0328
20517W        W36991  19.497  12.029   0.566  0.2233 -0.2882  0.2024
20518W        W36992  16.397  15.934  12.307 -0.2697 -0.5070  0.3501
20519W        W36993   4.428  14.366   1.562 -0.0039  0.1806 -0.1409
20520W        W36994  11.072   3.166   0.837  0.1764 -0.1050  0.1246
20521W        W36995   3.168   2.006  11.518  0.3076  0.0157  0.1869
20522W        W36996   4.097  19.133  13.950 -0.2430 -0.1368  0.3933
20523W        W36997   8.733   7.805   4.679 -0.3016 -0.0680  0.3419
20524W        W36998  10.931  16.363   4.354  0.0119 -0.4093 -0.0151
20525W        W36999   2.126   3.049  11.488 -0.2995  0.0911  0.4249
20526W        W37000  12.685  14.428   3.894 -0.1614 -0.1566 -0.0137
20527W        W37001   5.237  10.896  11.609 -0.1593 -0.0496  0.0180
20528W        W37002   0.527  15.183  10.838  0.3708  0.4759 -0.0040
20529W        W37003  14.655   0.327  11.793 -0.0740  0.2226 -0.0408
20530W        W37004  14.273  15.587   5.053  0.2002 -0.1186 -0.0411
20531W        W37005   8.474   2.868   3.830 -0.2332 -0.3996 -0.1668
20532W        W37006   1.664   1.872  11.400 -0.0563 -0.0433  0.0347
20533W        W37007   7.860  18.289   1.932  0.0126 -0.2284  0.1841
20534W        W37008   6.508   1.419  11.103  0.2236  0.0356  0.1061
20535W        W37009   2.340  17.392   1.561 -0.3779  0.0364 -0.0332
20536W        W37010   6.273  12.908   0.073 -0.2349  0.0115  0.1240
20537W        W37011   2.297  17.791  13.928  0.0239 -0.3450  0.0066
20538W        W37012   5.730  14.424   0.563  0.0209  0.0694 -0.0215
20539W        W37013  14.824   3.193   3.426 -0.1697 -0.2156  0.0791
20540W        W37014  18.582  15.434   1.129  0.2358 -0.0810 -0.1969
20541W        W37015   5.956   7.299   2.025 -0.2086  0.0611  0.0904
20542W        W37016  16.991  17.052   5.567 -0.3088  0.1274  0.0354
20543W        W37017   9.881  12.248  13.570  0.1152 -0.0599  0.2630
20544W        W37018   8.900   6.378  14.545  0.1899 -0.0564 -0.0118
20545W        W37019   1.790   1.467   3.963  0.0530 -0.2026 -0.1106
20546W        W37020   8.965  17.168   5.272  0.0182  0.3188  0.1388
20547W        W37021   2.472   9.078  14.138 -0.2158  0.4395 -0.2116
20548W        W37022  18.838  19.028  14.314 -0.0270  0.1698  0.0899
20549W        W37023   3.458   9.419   1.159 -0.1505 -0.0798  0.1515
20550W        W37024   8.978   4.221  13.075  0.2569 -0.0522 -0.0860
20551W        W37025   8.079  12.743   4.016  0.1778 -0.2264  0.1608
20552W        W37026   8.162   2.338   0.927 -0.2220  0.3993  0.0254
20553W        W37027   8.263   2.646   5.211 -0.1824 -0.1749  0.1512
20554W        W37028   2.902  15.423   5.120 -0.1530  0.0643 -0.0777
20555W        W37029   0.980   1.232  13.009  0.0132 -0.2143  0.1343
20556W        W37030  19.018  19.566  13.257  0.2370 -0.1444 -0.0316
20557W        W37031   2.988   1.575   2.764 -0.2349 -0.1423  0.1258
20558W        W37032   9.080   4.285  12.615  0.0198 -0.0755 -0.0022
20559W        W37033  11.997   6.691   5.126 -0.0383  0.0550  0.1311
20560W        W37034  18.658   3.679  11.193  0.1141  0.4207 -0.1676
20561W        W37035   3.781   3.765  13.944  0.0255  0.5294  0.1053
20562W        W37036  13.458  19.333   4.192  0.1796 -0.3061  0.2598
20563W        W37037   3.568   4.223  13.803 -0.0307  0.0125 -0.2044
20564W        W37038   0.369  15.130  14.537 -0.1094  0.0501 -0.0644
20565W        W37039   5.715  19.035   2.503 -0.4281  0.0136  0.0809
20566W        W37040  12.081   4.141   1.441  0.0379 -0.0009 -0.0046
20567W        W37041   7.688   5.171  10.238 -0.3109 -0.0459 -0.6137
20568W        W37042  15.122   8.395  14.632 -0.0139 -0.1838 -0.1929
20569W        W37043  18.944  11.032  12.763  0.1596 -0.2732 -0.2861
20570W        W37044   1.761  17.498  14.571  0.2816 -0.1377  0.4305
20571W        W37045   1.359  15.021  14.539 -0.0744 -0.1153 -0.1797
20572W        W37046   6.401  11.972  13.696  0.2682 -0.0088 -0.1937
20573W        W37047   1.085  19.349  12.218 -0.3221 -0.1506 -0.1077
20574W        W37048  14.315  10.831  14.198 -0.0939 -0.2174 -0.0404
20575W        W37049   1.106  10.447  13.782  0.2957 -0.2806  0.1169
20576W        W37050   7.241  16.898  14.531 -0.2264  0.1815  0.1685
20577W        W37051   1.605   3.265  11.835 -0.0875 -0.1986  0.1271
20578W        W37052   1.561   3.075   3.413  0.0185 -0.0445 -0.3163
20579W        W37053  13.988  16.386  14.711  0.3078  0.0440  0.3148
20580W        W37054  11.351   0.156  12.861 -0.1030 -0.1141  0.0061
20581W        W37055   4.035   8.605  10.967 -0.0747  0.2087 -0.2126
20582W        W37056  11.294   8.774  10.874 -0.0726  0.1645  0.0619
20583W        W37057   6.030   1.069  13.986 -0.2342  0.0429  0.0478
20584W        W37058   2.284  11.608   0.461  0.4819  0.1255  0.1545
20585W        W37059   2.968  10.056  11.516 -0.0897  0.4860  0.1249
20586W        W37060  18.303  17.882   9.712 -0.2295 -0.1143  0.2216
20587W        W37061   7.078   6.751   0.303 -0.0377 -0.2182  0.1482
20588W        W37062   1.342   6.542   5.334  0.1794 -0.0919  0.2872
20589W        W37063   8.635  14.055  13.679  0.1717 -0.2513  0.0592
20590W        W37064  16.866  10.581  10.882  0.2617  0.1280  0.1282
20591W        W37065   1.240   9.744  12.783  0.1825  0.3360 -0.2250
20592W        W37066   9.198  17.931  11.056 -0.1066  0.0883  0.1112
20593W        W37067  11.854   3.121   0.099  0.0297  0.0388  0.0660
20594W        W37068  18.899   6.887   2.326  0.0252  0.0218 -0.0149
20595W        W37069  18.879   9.203   3.161  0.3932  0.1430  0.0940
20596W        W37070   5.619  18.055  14.246  0.1761  0.1943  0.0636
20597W        W37071   8.100  14.499  11.195 -0.1044 -0.1147 -0.0399
20598W        W37072  11.991   9.463   5.342  0.1575  0.3678  0.2094
20599W        W37073   5.950  11.767  12.534  0.2681 -0.0422 -0.1670
20600W        W37074  11.393   5.456  11.803  0.3420 -0.1598 -0.0406
20601W        W37075   6.989  11.235  11.412 -0.0593  0.1206 -0.0119
20602W        W37076  13.292  11.071   0.600  0.3794 -0.3347  0.0363
20603W        W37077   1.179   1.222  13.474 -0.1058 -0.3358 -0.1856
20604W        W37078   0.193   5.018   3.988  0.0305  0.0597  0.0192
20605W        W37079  19.424  12.122  12.306  0.0944 -0.1413  0.0152
20606W        W37080   0.069   9.805  11.706  0.5139  0.1967 -0.1931
20607W        W37081  10.987   1.665   1.008  0.1211  0.3549  0.1273
20608W        W37082   7.915  17.502   0.274 -0.1992 -0.0393 -0.3421
20609W        W37083  10.652   4.112  14.339 -0.0534  0.0588 -0.0417
20610W        W37084   0.501  12.085  12.506 -0.2554 -0.2326 -0.0647
20611W        W37085  12.742   6.373   2.765  0.1535 -0.3921 -0.0835
20612W        W37086  16.173   8.827   1.829  0.1240 -0.1133 -0.1763
20613W        W37087  13.439   3.566   2.279  0.3689 -0.0940 -0.1349
20614W        W37088   0.775   8.353   1.777  0.2529  0.1046 -0.0608
20615W        W37089   3.519  12.177  11.233  0.0048  0.0492  0.1925
20616W        W37090  14.820   8.447  11.874  0.0145 -0.0597  0.1626
20617W        W37091   5.271  14.462  10.869  0.0685  0.0341  0.1044
20618W        W37092  13.537  13.354  13.466  0.3135 -0.4821 -0.2198
20619W        W37093   6.262  17.580   1.579 -0.1333  0.0978  0.3154
20620W        W37094  12.122   5.567  11.491  0.0266  0.0834  0.1142
20621W        W37095  18.878   5.779  13.891 -0.2319  0.0437 -0.1626
20622W        W37096   4.068   6.091   5.102  0.3545 -0.0337  0.1747
20623W        W37097   0.494   0.615   2.473 -0.2512  0.2266 -0.0156
20624W        W37098  18.482  12.904   0.436  0.3050 -0.1012 -0.1437
20625W        W37099   8.564  15.024  14.144  0.1985 -0.1585 -0.0684
20626W        W37100  18.172  19.042   5.139 -0.1262 -0.0563 -0.1441
20627W        W37101  12.849   9.960  13.059  0.0265  0.0152 -0.0295
20628W        W37102   5.187  11.041   4.188  0.2703  0.0531  0.0196
20629W        W37103  19.473   0.231  13.005  0.1385 -0.1169 -0.2078
20630W        W37104  17.155  17.891  12.085 -0.0246  0.0773 -0.2936
20631W        W37105   4.777   7.070   0.597  0.0614  0.1099 -0.0013
20632W        W37106   6.522   6.305   4.722 -0.3154 -0.1294  0.1018
20633W        W37107   3.897  11.829  10.981 -0.0722  0.0108 -0.2389
20634W        W37108  18.843   0.580   0.357 -0.2781  0.1053  0.1478
20635W        W37109  19.041  13.088   3.665 -0.1655 -0.0568 -0.2037
20636W        W37110  10.845  10.838   2.185  0.2432 -0.1639  0.2812
20637W        W37111   0.418  10.623   4.820 -0.4468 -0.0328  0.0699
20638W        W37112   6.889   4.075   2.162  0.0696 -0.0624 -0.0623
20639W        W37113   6.649  13.353   1.811 -0.1654 -0.1545  0.3103
20640W        W37114   6.962   7.664  14.346 -0.0998  0.2361 -0.1287
20641W        W37115  12.958  17.077   5.327  0.0610 -0.1202  0.1911
20642W        W37116  15.123   4.155  11.830 -0.1949 -0.4681 -0.0124
20643W        W37117   5.893  10.348   0.901 -0.1721 -0.1796  0.0764
20644W        W37118   6.933  15.759  14.686  0.0250 -0.0923 -0.0222
20645W        W37119  15.138   2.086  10.901 -0.1249  0.0280 -0.2545
20646W        W37120   3.249  17.887  14.232 -0.2168  0.2006  0.1222
20647W        W37121  17.588  16.829   2.670  0.2778  0.1390  0.0350
20648W        W37122   4.088   4.155  13.690 -0.0734  0.1405  0.0043
20649W        W37123  15.409   2.453   4.794  0.0696  0.0893  0.0189
20650W        W37124   9.877  13.180  10.770 -0.2120  0.0031 -0.2407
20651W        W37125   7.214  14.504  14.196  0.0283  0.0978  0.2107
20652W        W37126  19.178   2.041  11.257 -0.0767  0.1577 -0.0058
20653W        W37127  17.998  16.559  12.557  0.1739 -0.0496 -0.2911
20654W        W37128  10.986  15.064  10.743 -0.0288 -0.1432 -0.0683
20655W        W37129  11.143   8.593   3.744 -0.0382  0.1012  0.0961
20656W        W37130   7.669  12.873  13.064 -0.2442  0.0247 -0.1210
20657W        W37131   9.559  11.100  10.932 -0.0643 -0.0635  0.2499
20658W        W37132   1.458  14.660   2.621 -0.4022 -0.1554 -0.2320
20659W        W37133   5.243  17.170  12.341 -0.2216  0.1236 -0.3070
20660W        W37134   0.513  11.668  12.895 -0.0299 -0.2489  0.2858
20661W        W37135   4.920  14.231   2.125 -0.1599  0.0138 -0.1457
20662W        W37136  10.750   7.462   1.744  0.2154  0.0688 -0.0349
20663W        W37137  17.541   6.787   0.027 -0.2810  0.1089  0.1038
20664W        W37138   3.159  11.480  11.999  0.1474 -0.0443  0.0185
20665W        W37139   3.674   2.796  10.585 -0.0429  0.0740 -0.0671
20666W        W37140   7.984  14.615   0.200 -0.1649  0.0918 -0.0058
20667W        W37141  16.958   3.607   2.979 -0.0151 -0.0441 -0.0474
20668W        W37142  12.937   1.477   1.654 -0.0503  0.0156 -0.3824
20669W        W37143   6.600   2.685  13.123  0.0713  0.2345  0.0684
20670W        W37144  12.529  15.891   3.388  0.1296  0.3209 -0.2350
20671W        W37145  18.792   5.392   0.877 -0.0052  0.0350  0.0805
20672W        W37146   6.000   1.331   1.178 -0.2829 -0.1713 -0.0964
20673W        W37147  19.391  12.334  14.023 -0.2682  0.0113 -0.0713
20674W        W37148  15.071   6.628  14.473 -0.1430  0.0854 -0.0218
20675W        W37149   9.213   9.918   2.434 -0.0404  0.0843  0.0684
20676W        W37150   8.369   7.897   0.446 -0.1749  0.3219  0.0212
20677W        W37151  15.458   0.958   3.240 -0.0731 -0.2265 -0.1435
20678W        W37152   7.808  14.230  10.086  0.2759  0.1066 -0.1451
20679W        W37153   7.441  17.604   3.338  0.1334 -0.1778 -0.1185
20680W        W37154  11.095   6.701   2.427  0.1798 -0.1087  0.0242
20681W        W37155   6.046  11.553   3.984  0.1894 -0.1386  0.0856
20682W        W37156   2.779  13.740   1.871  0.3933 -0.2501  0.0682
20683W        W37157   6.707  12.128  12.919 -0.3237  0.0395 -0.1123
20684W        W37158   7.614  12.820  14.322  0.3070 -0.0449  0.0257
20685W        W37159  18.125   5.007   2.331 -0.1727  0.0541 -0.1402
20686W        W37160   9.286  11.255  14.102 -0.0233 -0.0725 -0.1549
20687W        W37161   3.019   9.704  12.558  0.1165  0.0458  0.0521
20688W        W37162  13.864  14.870   2.108  0.0384  0.0700  0.2631
20689W        W37163   0.932   9.637  10.241 -0.0064  0.1194 -0.2733
20690W        W37164   9.930   8.541   2.324 -0.1440  0.0220  0.3420
20691W        W37165   7.529   0.462  13.545 -0.1940 -0.3450  0.1458
20692W        W37166   2.633   7.738   1.760 -0.0937 -0.0429 -0.1379
20693W        W37167  14.573   6.612   2.431 -0.2175 -0.0783  0.0124
20694W        W37168  14.480  19.125   5.226  0.1299  0.2619  0.1289
20695W        W37169   6.204   6.295   2.878 -0.1683  0.0844 -0.0693
20696W        W37170   4.234  10.188   4.562  0.1632  0.0811 -0.1264
20697W        W37171  15.763   1.564  13.987 -0.3272 -0.3935  0.3498
20698W        W37172  12.484  18.533   4.666  0.3185  0.0929 -0.1763
20699W        W37173  15.913   5.635  11.722 -0.0544  0.1874 -0.0178
20700W        W37174   5.578  17.016   1.408 -0.1736  0.0876  0.0130
20701W        W37175  13.555   7.779  14.481  0.0050 -0.0222 -0.1407
20702W        W37176  14.784  17.188  14.630  0.1467 -0.2971 -0.0572
20703W        W37177  19.309   7.173   4.031  0.1203  0.1604  0.4900
20704W        W37178  17.438   5.231   3.010  0.1002 -0.0438 -0.2376
20705W        W37179   6.650   3.562  14.098  0.2039 -0.0765 -0.0302
20706W        W37180   8.871   0.692   9.950 -0.2775  0.0134 -0.3038
20707W        W37181  19.247   0.106  11.505  0.2089 -0.0001  0.3968
20708W        W37182  18.326   0.258  14.468 -0.1271  0.3885 -0.1469
20709W        W37183  15.557   9.331   2.256 -0.2775 -0.1822  0.0619
20710W        W37184  10.007   7.186  12.400 -0.0762 -0.3171 -0.0479
20711W        W37185  10.396   4.691  13.398  0.1721  0.1353  0.0184
20712W        W37186  10.886  15.877   4.454  0.0105 -0.2230 -0.0260
20713W        W37187   7.681  14.373  12.915 -0.0722 -0.0447 -0.0151
20714W        W37188  15.211  18.068  12.199  0.1964  0.0909  0.1492
20715W        W37189  15.291   3.677   0.864 -0.5275 -0.2272 -0.2878
20716W        W37190   8.020  12.341   1.149 -0.1093 -0.0500 -0.0418
20717W        W37191  19.001   4.841   3.366 -0.1554  0.0160  0.5635
20718W        W37192   3.570   6.768   2.654 -0.0204 -0.1256 -0.0211
20719W        W37193   7.402  17.477  12.532  0.3989  0.0335  0.1319
20720W        W37194  16.973  15.287  13.171 -0.0730 -0.2109  0.0467
20721W        W37195   0.470   1.593  11.445 -0.4023 -0.0512 -0.1160
20722W        W37196   2.002   8.824  11.662 -0.1220 -0.2708  0.0623
20723W        W37197   4.132   4.374   1.639  0.4167 -0.1161 -0.1413
20724W        W37198  18.101   6.269  11.631 -0.0568 -0.0672 -0.1443
20725W        W37199  10.310  10.887   3.712  0.3183 -0.2732  0.0784
20726W        W37200   8.628  11.670   1.917  0.0005  0.0802 -0.1542
20727W        W37201  16.787   5.895   0.338  0.0086 -0.0251  0.1428
20728W        W37202  14.217   1.388   2.795  0.1589 -0.1391 -0.0533
20729W        W37203  12.518  11.043   4.543  0.3375 -0.1243  0.0768
20730W        W37204  11.734  15.797  11.675 -0.0244 -0.2054 -0.1458
20731W        W37205   7.952  11.996  11.410  0.0028 -0.0817 -0.1197
20732W        W37206   5.316   2.057  10.472 -0.3231  0.0282 -0.0594
20733W        W37207  11.209  14.246   0.051  0.3919  0.0189 -0.1555
20734W        W37208  10.531  15.628   3.197  0.1121 -0.1162  0.2521
20735W        W37209   1.319   8.817   2.151  0.0973  0.0037  0.0757
20736W        W37210  17.375  11.717   3.272  0.0917  0.0877 -0.2261
20737W        W37211   4.497   5.639  12.668  0.2316 -0.0110  0.2089
20738W        W37212   8.955   6.963  13.948 -0.1756  0.0051  0.1861
20739W        W37213   5.157  13.318  13.643  0.0962 -0.0112  0.1971
20740W        W37214   2.389   3.666   1.510 -0.3629 -0.0925  0.1021
20741W        W37215   7.689  13.215  13.431 -0.0759 -0.1750 -0.0664
20742W        W37216  18.232  16.237   1.998 -0.1979 -0.4011  0.2095
20743W        W37217   5.826  10.597  11.975 -0.2099 -0.1143 -0.0806
20744W        W37218   6.193  17.657   3.159  0.1220  0.1776  0.1370
20745W        W37219   8.733   9.750  10.196 -0.0942 -0.0277  0.1525
20746W        W37220   9.645  14.345   2.250 -0.0972 -0.3051 -0.3157
20747W        W37221   8.332   8.857   0.636  0.4114  0.1042  0.2335
20748W        W37222   6.272  14.077   2.469 -0.1730 -0.2526 -0.1409
20749W        W37223  19.495   4.885   3.527 -0.1238 -0.0163 -0.0922
20750W        W37224   8.745  15.669  10.064  0.0917  0.0975 -0.0568
20751W        W37225   8.577   6.092   2.818 -0.1129 -0.1432  0.1674
20752W        W37226  15.171  13.003   1.927  0.0509 -0.2182  0.2729
20753W        W37227  19.219  11.438  12.116  0.5588  0.0758  0.3523
20754W        W37228  13.324  10.969  14.715  0.2361  0.4618  0.0541
20755W        W37229  15.440   4.568  14.518 -0.1823 -0.2508 -0.1563
20756W        W37230   3.716   7.118   4.677  0.0911 -0.3616  0.2137
20757W        W37231   9.973  15.893   3.490 -0.1542 -0.4882 -0.0844
20758W        W37232  11.004   8.212   3.445 -0.0545 -0.3739  0.3915
20759W        W37233   1.293   2.025   2.608 -0.0451  0.3070  0.1630
20760W        W37234   8.487  12.524   4.604  0.1493  0.2240 -0.0305
20761W        W37235   4.304  15.438   3.098  0.3610  0.2559 -0.0318
20762W        W37236  15.502  15.950   0.566  0.0813  0.0649 -0.1271
20763W        W37237   4.882   3.418  14.067  0.3775 -0.3974  0.2142
20764W        W37238  17.401  17.509  13.715 -0.2661  0.0436  0.1320
20765W        W37239  15.049  12.474   2.635  0.0286  0.1441  0.0354
20766W        W37240  13.343   0.312  13.906  0.1673  0.2630  0.3237
20767W        W37241  11.296   6.601   0.792 -0.2098  0.0357 -0.1594
20768W        W37242   9.321   4.477   1.411 -0.0845  0.0744 -0.0105
20769W        W37243  12.291  19.539  12.190 -0.1816 -0.0573 -0.2762
20770W        W37244  15.536   6.225  14.661 -0.0743 -0.1890 -0.0589
20771W        W37245   5.176  18.376   1.103  0.1475 -0.1198  0.1861
20772W        W37246  16.311  14.089  14.480  0.0876  0.0217  0.2641
20773W        W37247   3.769   3.025  12.620 -0.0393 -0.0203 -0.4989
20774W        W37248   7.859   0.637  14.036  0.0542 -0.1387  0.0940
20775W        W37249   8.404   4.232  14.694 -0.3928  0.1911  0.0079
20776W        W37250  18.826   3.061  10.022  0.0022  0.0118  0.3328
20777W        W37251  10.813   2.894  13.871  0.0022 -0.3819  0.3658
20778W        W37252  19.500  12.911  13.591  0.0389  0.3702  0.1617
20779W        W37253  10.747   7.268  14.193 -0.1634  0.1327  0.0004
20780W        W37254  10.119  14.574   5.047 -0.0907  0.3751  0.1549
20781W        W37255  14.254   4.594   5.174 -0.2376  0.0993 -0.2021
20782W        W37256   7.882   6.994  10.672 -0.0817 -0.0194 -0.1445
20783W        W37257  16.377   7.142  11.291  0.1305 -0.3109  0.0513
20784W        W37258   7.773   0.267  12.045  0.2721 -0.2335 -0.0866
20785W        W37259   9.008   7.990   2.819  0.1900  0.3615  0.4297
20786W        W37260  12.102  12.384   4.591  0.4284  0.0557  0.4105
20787W        W37261   8.445   8.521   4.774 -0.0095 -0.1981  0.0720
20788W        W37262  16.936   6.386  11.001  0.1798 -0.0294  0.0712
20789W        W37263  10.634  16.934  11.040  0.4254  0.0359 -0.0650
20790W        W37264  16.608  18.328  11.020  0.0395  0.1993 -0.1767
20791W        W37265  18.104  12.597   0.298  0.0835  0.1081  0.4413
20792W        W37266   3.839  14.070  10.962  0.1295  0.1080 -0.0564
20793W        W37267  16.585   4.788  11.750  0.0448  0.3230  0.4146
20794W        W37268   8.672  10.966   3.326  0.0588 -0.1881 -0.3977
20795W        W37269  10.976   5.880  12.818  0.1661  0.3024  0.2708
20796W        W37270   0.668   5.681   2.935 -0.1678 -0.1197 -0.1312
20797W        W37271   2.623  16.840  10.406 -0.2072  0.1565  0.1526
20798W        W37272  11.874  10.438   0.098  0.4521  0.1526  0.0476
20799W        W37273   1.091   3.577  11.600 -0.0064 -0.3646 -0.1286
20800W        W37274   5.818  12.225   1.531 -0.1575 -0.0039 -0.3459
20801W        W37275   6.735   1.909   2.410  0.0734  0.3076 -0.0222
20802W        W37276   6.829   3.423   0.237 -0.1008 -0.1811 -0.0851
20803W        W37277  10.082  19.519   3.261  0.0046 -0.1223 -0.0495
20804W        W37278   2.348  12.877   0.326  0.2294 -0.1954 -0.2602
20805W        W37279  14.350  10.695   1.125 -0.0172 -0.2979 -0.0833
20806W        W37280  18.307   3.254  10.554  0.0908  0.0336 -0.1945
20807W        W37281   6.156   4.103  10.494  0.0883 -0.0301  0.4195
20808W        W37282  14.355   9.516   3.016  0.3785 -0.0151 -0.2202
20809W        W37283  16.848   6.171  12.414  0.1306  0.0887  0.0342
20810W        W37284  19.120   9.596   0.345  0.0846 -0.2128  0.0244
20811W        W37285  16.429  11.535   1.889  0.0501  0.5928  0.0688
20812W        W37286  11.513   2.875   1.901 -0.2862 -0.0457 -0.0320
20813W        W37287   8.858   0.646   2.286 -0.0169 -0.0000 -0.1398
20814W        W37288  18.353  16.200  14.575  0.2136 -0.0926  0.2498
20815W        W37289   9.707  11.200   4.890 -0.2652  0.2001  0.0944
20816W        W37290   3.499  15.154  12.522 -0.0302  0.1408  0.3596
20817W        W37291   9.965   8.016  10.844  0.2138  0.0141 -0.0904
20818W        W37292   9.461   8.752   5.014  0.1576  0.0359 -0.2278
20819W        W37293   5.341   6.768   3.331 -0.0795 -0.1466 -0.1951
20820W        W37294   3.818   4.535   3.228 -0.0679 -0.4074  0.2309
20821W        W37295  15.948  13.605  13.604  0.2518 -0.2446 -0.0329
20822W        W37296   5.236   7.918  12.396  0.0228 -0.1471  0.1766
20823W        W37297  12.738   7.264   1.474  0.2981 -0.2846  0.0119
20824W        W37298   7.338  14.395   4.871  0.1943  0.0633  0.2865
20825W        W37299   7.699   6.641  13.910 -0.2846  0.4511  0.0298
20826W        W37300   6.891  16.950  12.026 -0.3300 -0.3078  0.2160
20827W        W37301  10.692  11.366  13.533  0.0539  0.0223 -0.3662
20828W        W37302   1.055   1.981   0.606  0.3857  0.2042 -0.0674
20829W        W37303   6.981  13.688  12.932  0.1828 -0.0817  0.4667
20830W        W37304   8.844   4.845   2.092  0.4375 -0.1233  0.4790
20831W        W37305  12.932   4.667  12.530 -0.0928  0.0063 -0.1274
20832W        W37306  13.719   8.456   1.167 -0.2594 -0.0476  0.0227
20833W        W37307  15.683   8.403  12.106  0.1761  0.0774  0.2506
20834W        W37308   1.958   7.836   5.267 -0.0612 -0.2611 -0.1980
20835W        W37309  11.666  17.589   4.195  0.5442 -0.1263 -0.2232
20836W        W37310   9.069   0.281  12.713  0.0561  0.0940  0.0318
20837W        W37311   7.246   5.132   3.735  0.1450 -0.0935 -0.1920
20838W        W37312   9.899  11.113   5.407 -0.1030  0.3012  0.1071
20839W        W37313  17.796   1.169  14.399 -0.1666  0.2439  0.1093
20840W        W37314  10.560   6.841  14.402 -0.1281 -0.0522 -0.0057
20841W        W37315   6.598   4.655   1.222 -0.1785 -0.0882  0.1544
20842W        W37316   6.489  14.832  11.507  0.1134  0.0172 -0.0868
20843W        W37317  18.020  15.257   4.830 -0.0087 -0.0920  0.0596
20844W        W37318   3.008   9.546   0.074 -0.4654  0.3493 -0.1961
20845W        W37319   8.827   3.984   4.626 -0.0583  0.0359 -0.0318
20846W        W37320  18.213   6.986   1.013 -0.0377  0.2749 -0.0471
20847W        W37321  13.583  15.629   1.641 -0.0044 -0.3615  0.0944
20848W        W37322   6.438   7.678  10.314 -0.0258 -0.1309 -0.2340
20849W        W37323  14.854  10.966   1.106  0.2340  0.1417  0.0694
20850W        W37324   2.182   4.359  11.834  0.3600 -0.0821 -0.0417
20851W        W37325  18.011   0.458   1.447  0.0980  0.2283 -0.0176
20852W        W37326  11.544  15.898   0.667 -0.1501 -0.3441  0.3479
20853W        W37327   5.243  10.903   1.046 -0.3093  0.4474 -0.0015
20854W        W37328   8.923   4.654   1.048 -0.0845  0.0090  0.0778
20855W        W37329  17.877  16.893   2.279  0.1255 -0.0453 -0.0329
20856W        W37330   7.410  16.284  10.448  0.0950 -0.1814 -0.0144
20857W        W37331   8.596   1.923   1.254  0.4069 -0.4101  0.0716
20858W        W37332   9.818  13.331   4.312  0.0637 -0.0436  0.0595
20859W        W37333   8.031   1.558  10.200 -0.1070  0.2034 -0.3860
20860W        W37334  18.093   3.673  12.541  0.0375 -0.1507  0.3228
20861W        W37335  13.101  17.561  13.967  0.1098  0.3008  0.1369
20862W        W37336   7.063  16.541  10.174  0.0278  0.0783  0.4150
20863W        W37337   2.316   3.796   2.001  0.0247 -0.0098 -0.3588
20864W        W37338   1.446  12.567   4.516 -0.0462  0.4685  0.2207
20865W        W37339   2.537   3.073   0.564 -0.3140 -0.2150 -0.0526
20866W        W37340  11.993   5.755   3.629  0.2073  0.2872 -0.4331
20867W        W37341   1.146   3.072  14.116 -0.2080 -0.0671  0.0851
20868W        W37342  18.156   8.820   1.793  0.0036  0.0737 -0.0405
20869W        W37343  13.415   8.111   1.372  0.3457 -0.1734  0.0870
20870W        W37344   1.734  10.212   5.087  0.0778 -0.5827 -0.1952
20871W        W37345  12.353   5.322  12.163 -0.1171 -0.1549  0.2314
20872W        W37346  12.926  14.825   4.208  0.1595  0.0837 -0.1394
20873W        W37347   5.392   5.734   0.889 -0.1643  0.1553  0.1067
20874W        W37348  16.892   6.908   1.671  0.0884 -0.1261  0.0452
20875W        W37349   5.247  11.608   0.628 -0.5006 -0.0357 -0.3627
20876W        W37350   8.053  19.367  13.916 -0.0312  0.0934  0.1709
20877W        W37351  12.005   2.672  14.434 -0.2950 -0.0446  0.1399
20878W        W37352  11.477  19.020  12.169  0.0718  0.3588 -0.0346
20879W        W37353   3.743  11.504   3.362  0.2107  0.1961  0.1412
20880W        W37354  11.246  16.991  11.845  0.0494 -0.2917  0.1227
20881W        W37355   0.976   5.981  14.650 -0.0506 -0.2934  0.1500
20882W        W37356   6.721  16.241   1.136 -0.3363  0.2100  0.0611
20883W        W37357  10.614   4.559  12.907  0.0661 -0.1320  0.2444
20884W        W37358   5.319   5.952  10.927 -0.2587  0.1704  0.4834
20885W        W37359   6.128   2.867   4.784  0.1132 -0.1695  0.1467
20886W        W37360  12.627  12.973  11.865 -0.0034 -0.0993 -0.0093
20887W        W37361   5.479   3.816   2.935 -0.2092 -0.1151  0.2601
20888W        W37362   0.756   4.226  13.660  0.0757 -0.0644 -0.0698
20889W        W37363  14.700  16.277   3.763 -0.2362  0.1777 -0.0215
20890W        W37364  13.707   1.192  10.959  0.1893  0.2711  0.1369
20891W        W37365  14.860   2.173   1.549  0.1013  0.0408 -0.1054
20892W        W37366  17.943  17.144   2.807  0.2067 -0.3952  0.3012
20893W        W37367  10.379   1.453   5.275 -0.0165 -0.0220 -0.0691
20894W        W37368  11.445   9.871  12.881 -0.0643  0.2698 -0.3244
20895W        W37369   0.165  14.511   0.669 -0.3487  0.2352  0.1665
20896W        W37370   2.984  16.365   5.435  0.1562  0.4863 -0.0734
20897W        W37371  14.608   6.401   0.578  0.2510  0.1271 -0.0092
20898W        W37372   2.343   7.416  11.085  0.0138  0.0098  0.1202
20899W        W37373   5.210  10.316  13.997 -0.4140 -0.3094 -0.0681
20900W        W37374   6.021  14.412  10.331 -0.0989  0.0840 -0.1128
20901W        W37375  11.925  17.604  10.445 -0.0384  0.0673 -0.4270
20902W        W37376  15.049   9.003  13.601  0.0231 -0.2172 -0.2099
20903W        W37377   6.133  17.861   4.827 -0.2633 -0.1527  0.2584
20904W        W37378  15.999   4.369   4.800  0.1093  0.2091 -0.0292
20905W        W37379  15.516  12.932  13.948 -0.0791  0.1022 -0.0559
20906W        W37380   5.597   6.692  13.566  0.0693  0.0702 -0.2586
20907W        W37381   5.309  17.544  11.473 -0.1059 -0.1307 -0.0454
20908W        W37382  14.162   6.928  14.373  0.1765  0.1536  0.0981
20909W        W37383  13.076  10.028  12.352  0.4566  0.3484 -0.2327
20910W        W37384  18.523  19.052   4.143 -0.0733  0.1289 -0.2592
20911W        W37385  15.781  12.979   3.110  0.1332  0.3117  0.1237
20912W        W37386   8.913   9.528   2.511 -0.0130 -0.2617 -0.2170
20913W        W37387   3.904   0.882  12.275  0.4731 -0.0121 -0.2476
20914W        W37388  16.171  18.420  11.266 -0.2822  0.1469  0.0838
20915W        W37389  10.212   3.366  10.850 -0.0409 -0.0143  0.3633
20916W        W37390  16.178   6.156   0.755 -0.0513 -0.3734 -0.0126
20917W        W37391   1.668  16.231   3.553 -0.1009 -0.1046 -0.0822
20918W        W37392   6.788  15.484   3.039  0.0848  0.4173 -0.0786
20919W        W37393   8.054  14.033  10.875 -0.0696  0.2341  0.1910
20920W        W37394  15.452  10.274  13.333 -0.3093  0.0489 -0.0891
20921W        W37395   8.456   3.325   2.954 -0.0797  0.1101  0.1735
20922W        W37396   4.903   4.180  12.241 -0.1203 -0.1799 -0.1150
20923W        W37397  13.616   2.201  14.338  0.0720  0.3458 -0.2287
20924W        W37398   1.857   3.486   4.778  0.0143 -0.2026 -0.2422
20925W        W37399  15.365   7.089   0.806  0.2291  0.0314  0.1211
20926W        W37400  15.635  10.057   0.795  0.0707  0.3201 -0.1025
20927W        W37401  10.669   6.258  10.401  0.0131  0.2332 -0.0585
20928W        W37402   9.762  19.275   0.214 -0.2150 -0.2691 -0.1421
20929W        W37403  11.466   9.648   4.940  0.0998 -0.0166  0.0309
20930W        W37404  11.281   8.326   4.205  0.0563  0.3168 -0.2022
20931W        W37405  12.605  16.271   4.189  0.0238  0.1799 -0.2518
20932W        W37406   9.731   5.928  13.891  0.2948 -0.4038  0.1602
20933W        W37407  11.060  10.636  13.309  0.3395  0.5927 -0.0006
20934W        W37408  15.714   1.372  10.018 -0.3251  0.0388  0.0239
20935W        W37409   5.364  15.595   3.983 -0.2301 -0.0359  0.1906
20936W        W37410   2.731   0.724   3.938  0.1468 -0.3389 -0.0495
20937W        W37411  18.556   8.603  10.550 -0.3315  0.1388 -0.1799
20938W        W37412   2.219  15.132   4.618  0.3477  0.1768 -0.1086
20939W        W37413   1.993   1.391   2.689 -0.2505 -0.0948  0.1294
20940W        W37414  10.085   1.238  10.485  0.0004 -0.0370 -0.2725
20941W        W37415   0.350  18.703  13.801  0.0165 -0.0021  0.3696
20942W        W37416  15.269  11.760   1.548 -0.3598  0.2494 -0.4583
20943W        W37417  17.316  14.906  13.080 -0.0611 -0.3085  0.2064
20944W        W37418  10.445   5.852   0.898 -0.2756  0.0868 -0.1647
20945W        W37419   1.969  13.648  12.667  0.1134 -0.1802 -0.1746
20946W        W37420  18.815   5.424   4.801 -0.2135  0.2489  0.1357
20947W        W37421   9.363  11.773   1.989 -0.0986  0.0032 -0.2943
20948W        W37422   2.864   9.913   2.240  0.1579  0.0956  0.0954
20949W        W37423  16.824  12.475   2.815 -0.0572  0.3255  0.0358
20950W        W37424  13.085   8.505  12.145  0.0264 -0.3005  0.0177
20951W        W37425   6.982   7.612   2.214 -0.0924  0.2112 -0.1376
20952W        W37426   1.337   3.966  12.904  0.2635 -0.1375 -0.1801
20953W        W37427   7.169  18.952  11.507 -0.3136  0.3565 -0.1381
20954W        W37428   3.965   7.073  14.009  0.3909  0.2222 -0.0342
20955W        W37429  18.388   7.571  10.532  0.3664 -0.1001  0.1028
20956W        W37430   8.150   0.798  12.154 -0.0344 -0.2390 -0.1267
20957W        W37431  13.248  13.664   2.504 -0.1304  0.0920  0.0539
20958W        W37432   9.135   2.705   0.043 -0.2825  0.0424 -0.2526
20959W        W37433   2.766   4.186   3.657 -0.0042 -0.0408  0.0532
20960W        W37434  15.435   5.113   9.755  0.1499  0.1406 -0.0626
20961W        W37435  11.246  18.225  12.396 -0.0182 -0.0075  0.0281
20962W        W37436   3.408   2.978  13.098 -0.1710 -0.0505 -0.0774
20963W        W37437  11.763   2.367   5.146  0.0712  0.1507 -0.1271
20964W        W37438   8.622   5.350   2.273  0.0318  0.4283  0.2502
20965W        W37439   5.715  11.886  10.835  0.1119  0.1624  0.1698
20966W        W37440   1.790  13.154   3.384  0.2216 -0.0001  0.0794
20967W        W37441   7.670   0.975   2.792  0.2483  0.0461 -0.2494
20968W        W37442   0.949  15.846  10.215 -0.1314 -0.0683 -0.1112
20969W        W37443   5.443   5.645  12.403  0.0652  0.0289  0.2068
20970W        W37444  11.696  15.266   4.136 -0.3526  0.2347  0.0733
20971W        W37445   3.477  11.011  13.113  0.0543 -0.3764 -0.1630
20972W        W37446  12.401  17.500  13.479 -0.1488  0.1096  0.3496
20973W        W37447   7.132  14.045   0.931 -0.2207 -0.0525 -0.0198
20974W        W37448  17.474  12.533   3.978  0.2213 -0.3927 -0.0771
20975W        W37449   1.526  16.982  14.448 -0.3211  0.0850  0.1681
20976W        W37450  16.920  11.403   0.279 -0.1479  0.1094 -0.1392
20977W        W37451  19.088   6.902   4.628 -0.0068 -0.0171  0.1452
20978W        W37452   9.142  19.066   2.159  0.0708  0.1435  0.1137
20979W        W37453   5.316  16.058  11.072  0.0081 -0.2129 -0.0173
20980W        W37454   5.785  10.551   2.116  0.1967 -0.1185 -0.2973
20981W        W37455   8.753   2.977   9.860  0.2783  0.0519 -0.1138
20982W        W37456   5.238   8.769  14.042 -0.2869 -0.3077  0.0782
20983W        W37457  10.281  12.748   4.001  0.3264  0.0650  0.0236
20984W        W37458  14.304  14.931   0.525 -0.0915 -0.0573  0.1144
20985W        W37459  16.751  12.942  11.276 -0.1016 -0.0005  0.0891
20986W        W37460  18.095  19.385  11.639 -0.1286 -0.0353  0.3257
20987W        W37461  16.810  14.193   1.544  0.2212  0.0123 -0.0363
20988W        W37462   6.298   3.338  13.776  0.2241 -0.1118  0.1831
20989W        W37463   7.430  14.696   3.600 -0.5377 -0.0868 -0.0294
20990W        W37464   2.240   1.025   1.149 -0.2180  0.1983 -0.0562
20991W        W37465   6.398  10.411  13.867 -0.0127  0.2675  0.0917
20992W        W37466   1.002  18.475  12.345 -0.0846  0.0065  0.0768
20993W        W37467   4.908   4.463  13.121  0.1304  0.1648  0.0584
20994W        W37468  15.879   3.754   1.793 -0.0031  0.2318 -0.1624
20995W        W37469   2.039  15.850   2.530 -0.0358 -0.1507  0.2977
20996W        W37470  11.583   7.848   0.600 -0.2782 -0.2336 -0.0257
20997W        W37471   8.640  18.575   0.741 -0.1240  0.0361 -0.0784
20998W        W37472  15.613   3.434   3.911 -0.3032 -0.2256  0.1676
20999W        W37473  18.935  13.289  12.750 -0.0343  0.0868  0.0726
21000W        W37474   0.562   8.841   1.608 -0.1718 -0.2910  0.2064
21001W        W37475  17.126  14.181   9.706  0.3017  0.0300  0.2014
21002W        W37476   3.273   3.436   0.508 -0.0609 -0.0775 -0.0159
21003W        W37477  18.102  15.041   3.302  0.0178  0.3217  0.2585
21004W        W37478  11.005  16.771  13.083  0.1071  0.1690  0.2769
21005W        W37479  15.539   1.602  11.736 -0.1135  0.1334 -0.0625
21006W        W37480   3.505   6.537   4.565  0.1986 -0.1305 -0.2465
21007W        W37481   2.005   2.428  14.549  0.1284  0.1413 -0.0298
21008W        W37482   3.862   7.611  12.135  0.1156  0.1365  0.2072
21009W        W37483  13.790  10.439  10.743  0.2520 -0.1117 -0.0700
21010W        W37484  16.481   3.393  11.286  0.0513 -0.2885 -0.0188
21011W        W37485  10.522  12.480  10.741  0.0960  0.2144  0.0207
21012W        W37486   0.810   3.736  12.000 -0.0551 -0.1467 -0.1388
21013W        W37487  12.666   2.299  12.805 -0.0363 -0.0191  0.2680
21014W        W37488   2.277   9.339   2.594 -0.0721 -0.3179 -0.1064
21015W        W37489   2.933   3.856  12.074 -0.0511 -0.1838 -0.1946
21016W        W37490   6.122   2.728   4.250 -0.0142 -0.0741  0.1321
21017W        W37491   2.225   4.857  12.610  0.0546 -0.2326  0.1221
21018W        W37492  18.379   3.952   4.496 -0.0415 -0.2216 -0.0745
21019W        W37493  15.161  19.329  13.526  0.1441 -0.0397 -0.4954
21020W        W37494  10.542   8.402  12.743 -0.2420  0.2294 -0.2065
21021W        W37495   0.247   9.804   1.707  0.1195 -0.1759  0.2849
21022W        W37496  11.690   9.840   3.159 -0.4197  0.1496  0.0947
21023W        W37497   3.687  18.751   2.036  0.0525 -0.2764  0.1533
21024W        W37498  12.134  12.358  12.918  0.0989  0.2036  0.4201
21025W        W37499  14.821   1.864   0.190  0.0824  0.0767 -0.0631
21026W        W37500  12.592  10.770  14.185  0.0074 -0.2138 -0.2567
21027W        W37501   0.615  13.956   1.424  0.2092  0.2100 -0.1678
21028W        W37502   1.120  12.336  13.931  0.0655 -0.0681 -0.2751
21029W        W37503  18.264  17.155   0.446  0.0332  0.0186  0.0117
21030W        W37504  10.089   8.488  12.181  0.0765 -0.2827 -0.2921
21031W        W37505   4.728   5.059   1.384 -0.2300 -0.3629 -0.1040
21032W        W37506   7.752  10.587  10.752  0.2632  0.4413 -0.2699
21033W        W37507  17.135  11.854   0.931  0.0462  0.1445 -0.0351
21034W        W37508   6.148   0.021  13.232 -0.0646  0.3294 -0.1111
21035W        W37509   0.585   5.016   1.445  0.4465 -0.0936  0.2792
21036W        W37510  19.161   2.153   2.239  0.6143  0.1050 -0.1644
21037W        W37511  11.380   5.343   1.441  0.0576  0.0333 -0.1780
21038W        W37512  14.556  18.575  14.576  0.1665  0.4375  0.0424
21039W        W37513  17.851   3.100  14.537  0.0154 -0.1290 -0.4554
21040W        W37514  11.299  15.378  14.140 -0.0218 -0.2490 -0.1123
21041W        W37515  14.056   4.616   9.381  0.0814 -0.1100 -0.1224
21042W        W37516   1.634  14.041   1.102 -0.3033 -0.0739 -0.2964
21043W        W37517   0.676  16.688  12.454 -0.4227  0.2252 -0.5480
21044W        W37518   5.849   5.070   3.513 -0.0879  0.2635 -0.1443
21045W        W37519  15.624   2.814  11.207  0.1598 -0.1076 -0.2120
21046W        W37520   5.421   5.478  11.573 -0.1061  0.0762 -0.3854
21047W        W37521   7.187   4.112  13.384  0.1991 -0.1275  0.0802
21048W        W37522  19.321  11.829   0.050  0.3265 -0.2155  0.3905
21049W        W37523  17.443  18.453   5.374 -0.2289  0.3051 -0.0141
21050W        W37524   0.125   2.813   5.434 -0.3729  0.2173 -0.3632
21051W        W37525   0.307   9.123  12.444 -0.0999 -0.1146 -0.0975
21052W        W37526  11.808  13.272  13.381 -0.1071  0.0078 -0.0423
21053W        W37527  11.229  12.829   3.885 -0.1453  0.2114 -0.0105
21054W        W37528   4.878  11.795  12.372 -0.2075 -0.0065  0.0334
21055W        W37529  13.014  17.873   4.348 -0.1958 -0.1434 -0.2368
21056W        W37530   3.737   0.094  12.151 -0.1815  0.1165 -0.2816
21057W        W37531   3.284  11.932  11.664  0.0791 -0.0783 -0.2189
21058W        W37532   1.104  13.791  13.203 -0.0028  0.0570 -0.2670
21059W        W37533   2.472  18.077   4.265  0.0092 -0.0021  0.3287
21060W        W37534   6.527  14.962  13.286 -0.1523  0.2176  0.1517
21061W        W37535  16.438   3.297   0.040 -0.2419 -0.2987 -0.2497
21062W        W37536  17.729   2.329  12.615  0.0645 -0.0355  0.1834
21063W        W37537  11.877   9.796   4.794 -0.1907 -0.2402 -0.0386
21064W        W37538   8.595   7.482   0.225  0.2313 -0.1504 -0.1619
21065W        W37539   5.417  14.173  11.267  0.2119 -0.0771  0.1450
21066W        W37540   3.398  17.196   2.466 -0.0381  0.0577 -0.2579
21067W        W37541   4.327  14.335  11.127 -0.0591  0.1117 -0.1004
21068W        W37542   2.322   8.277  11.718 -0.2709 -0.1028 -0.0075
21069W        W37543  12.377   5.998   1.544  0.1199 -0.0491  0.1775
21070W        W37544   6.017   1.119  13.048 -0.0753 -0.0103  0.1577
21071W        W37545  14.328   3.242   1.140 -0.0580 -0.2411 -0.1306
21072W        W37546  14.786  16.378   1.966 -0.0928  0.1824 -0.1866
21073W        W37547   0.654  16.284  14.409 -0.0084  0.0675  0.0983
21074W        W37548   1.515  12.510  13.600 -0.0060 -0.1391  0.4457
21075W        W37549   7.884   6.447  13.067  0.0846  0.0748  0.4549
21076W        W37550   2.014   0.846  10.529  0.2523 -0.0080  0.1923
21077W        W37551  16.836   2.827   3.912  0.1011  0.1813 -0.0694
21078W        W37552   7.645   3.247  11.558  0.3002 -0.1489 -0.1498
21079W        W37553   8.855  18.919   2.653 -0.2457  0.0580 -0.0062
21080W        W37554   3.998   8.095   3.901  0.3461 -0.1316 -0.3038
21081W        W37555   7.428   7.719   2.480 -0.2525 -0.1306 -0.0868
21082W        W37556  16.858  11.430   0.884 -0.1859  0.5402 -0.1439
21083W        W37557  18.517  19.405  14.429 -0.1503  0.2503 -0.0601
21084W        W37558   8.904   2.156   2.563  0.1731 -0.1829  0.3202
21085W        W37559  17.884   2.109  13.093  0.6327 -0.0494 -0.3352
21086W        W37560  10.055  18.843   5.612 -0.1677 -0.1829  0.2004
21087W        W37561  10.260   3.998   1.711 -0.2589 -0.1162 -0.2504
21088W        W37562  18.815   6.425   0.158 -0.0188  0.0358 -0.3933
21089W        W37563  18.090  18.058   2.407 -0.0483 -0.0496  0.3663
21090W        W37564  11.329   8.519  12.121  0.0472  0.0561  0.1511
21091W        W37565  11.636  16.164   1.177 -0.2983  0.2919  0.2707
21092W        W37566   3.713   2.667  14.032  0.1270  0.1519  0.0350
21093W        W37567   9.441   1.912   9.712 -0.2968 -0.0276  0.0217
21094W        W37568  14.347   2.381  11.994  0.2470 -0.2274 -0.1953
21095W        W37569   6.126   4.861  12.830 -0.5076  0.1052 -0.1356
21096W        W37570  17.382  16.972  12.044  0.0565 -0.2337 -0.3375
21097W        W37571   8.648  17.325   4.102  0.1702 -0.0224  0.6256
21098W        W37572  10.888   6.358   0.930  0.2561 -0.4963 -0.1969
21099W        W37573  12.613  11.769  13.869  0.1412  0.0473 -0.2938
21100W        W37574   0.571  19.393   0.204 -0.0223 -0.2300 -0.2587
21101W        W37575  16.933  10.198  12.151 -0.0292  0.0115  0.2155
21102W        W37576   6.618   3.853  12.738 -0.0912  0.2610 -0.0312
21103W        W37577   6.868  10.584   9.401  0.1644  0.1699  0.2793
21104W        W37578  13.303   5.082  13.562 -0.0173 -0.1078 -0.2254
21105W        W37579   2.768   4.752  14.028 -0.1448  0.1316 -0.1148
21106W        W37580   6.120   6.834   2.058  0.0434 -0.1469 -0.0779
21107W        W37581   0.097   1.239   0.391  0.2842  0.1082  0.0980
21108W        W37582  15.111   5.749  12.156  0.2463  0.3509 -0.0224
21109W        W37583   9.825   3.434   1.248  0.0817 -0.1117 -0.1945
21110W        W37584   8.199   5.078  10.306  0.0355 -0.2181 -0.1994
21111W        W37585  18.316  13.194   3.769  0.2201 -0.2062 -0.0939
21112W        W37586  18.108  17.428   4.825 -0.0736  0.1680  0.2041
21113W        W37587  11.230  13.112   0.218  0.1613  0.0472  0.1226
21114W        W37588   3.391   6.157  11.973  0.0022  0.0725  0.1241
21115W        W37589   9.311   2.394   2.362  0.0010  0.2649 -0.0033
21116W        W37590   2.246   1.962  11.267  0.3323  0.2515 -0.3127
21117W        W37591   4.978  14.140   3.744 -0.2646  0.0840  0.0571
21118W        W37592  17.431   1.560   4.313  0.1276  0.1259 -0.0084
21119W        W37593   8.460   7.699  12.137 -0.0020 -0.0865 -0.0442
21120W        W37594  15.602  14.563  14.590 -0.0978  0.1619 -0.0005
21121W        W37595   5.630   5.335  12.062  0.2454 -0.3358 -0.1289
21122W        W37596   5.026  12.371   3.074 -0.0470  0.0677  0.1538
21123W        W37597  16.156   4.894   4.142  0.0318 -0.0258 -0.1086
21124W        W37598  19.289  15.297  13.046 -0.0579 -0.2010 -0.0829
21125W        W37599  13.701   0.888  12.215  0.1045 -0.1774 -0.0925
21126W        W37600   5.396  12.804  14.642 -0.0683 -0.0496 -0.0383
21127W        W37601   4.194  18.978  13.451 -0.0935  0.0592 -0.1204
21128W        W37602   0.515  19.292  13.902 -0.0071  0.1394 -0.1003
21129W        W37603   2.763  17.233  10.654  0.0322 -0.0957  0.0706
21130W        W37604   8.969  10.350  11.425 -0.0492 -0.3235  0.0236
21131W        W37605   7.564  17.901   2.630  0.1761 -0.1240  0.2324
21132W        W37606   8.771   2.646  11.689 -0.0404  0.1688 -0.0043
21133W        W37607   6.021  13.418   3.610  0.0657 -0.1497  0.1005
21134W        W37608   6.386  16.950  11.867 -0.2744 -0.3795 -0.1447
21135W        W37609  16.902  14.180  10.435  0.2568  0.1472 -0.0757
21136W        W37610  13.238  12.518   3.520 -0.0648  0.0420 -0.1597
21137W        W37611  11.988  16.132   9.922 -0.1792 -0.1387 -0.0515
21138W        W37612   3.328  14.348  11.724 -0.2281 -0.2991 -0.0718
21139W        W37613  11.702   7.570   3.427  0.2824 -0.0854  0.2565
21140W        W37614   2.807  17.829  14.001  0.1671  0.1519 -0.0302
21141W        W37615  14.822  18.053   1.159 -0.1268 -0.0859 -0.0823
21142W        W37616   5.597  11.186  13.345 -0.0294 -0.3801  0.0105
21143W        W37617   7.392   2.611  10.950  0.3950  0.0661  0.2018
21144W        W37618   2.342  16.509  10.083  0.0457 -0.0888 -0.4676
21145W        W37619  10.133  16.269   4.140  0.2666 -0.0535  0.0937
21146W        W37620   3.463  17.910  10.165 -0.1289  0.0768  0.0879
21147W        W37621   1.125  10.075  10.200 -0.1512 -0.0968 -0.0517
21148W        W37622  12.030   9.540  14.030 -0.0978 -0.0072 -0.3342
21149W        W37623   1.622   5.858  11.646 -0.0365  0.0464 -0.2812
21150W        W37624   0.783   0.730   2.066 -0.2106  0.0012 -0.0611
21151W        W37625  10.406   5.126   3.834 -0.1893  0.1138 -0.1743
21152W        W37626  12.660  16.503  10.436 -0.0771  0.2012  0.1287
21153W        W37627  15.436   3.803   3.055 -0.1799  0.1483  0.1269
21154W        W37628  11.272  17.663   1.572 -0.0039  0.1210  0.3024
21155W        W37629  19.406   9.815   2.443  0.0200 -0.1330  0.0055
21156W        W37630  15.569  15.458   0.221  0.0899  0.0732  0.3470
21157W        W37631   6.361   8.885   1.799  0.0313 -0.1115 -0.0197
21158W        W37632  12.809   6.995  11.487 -0.0974 -0.0678 -0.1980
21159W        W37633  14.859   7.011   4.146  0.0598  0.1386 -0.0681
21160W        W37634  18.330   2.850   2.710 -0.1484 -0.1915 -0.2142
21161W        W37635  16.335  17.980   2.597  0.0501 -0.4546  0.0635
21162W        W37636   8.498   8.209  12.383  0.1805  0.1626  0.3774
21163W        W37637   8.144   0.239   2.809 -0.0008  0.0907 -0.2141
21164W        W37638   5.919   6.847   4.658 -0.1530 -0.1990  0.0293
21165W        W37639  14.494   1.459  12.073 -0.0852 -0.2861  0.3270
21166W        W37640  14.285  11.127   2.448  0.3341 -0.1105 -0.1258
21167W        W37641   7.008   1.619   0.699 -0.1011  0.0137  0.0104
21168W        W37642   3.207   4.367   1.826 -0.0421 -0.1413  0.1477
21169W        W37643  13.120   7.026   2.886  0.0111  0.2937 -0.1109
21170W        W37644  10.687   9.596  12.903  0.1548 -0.3212  0.1887
21171W        W37645  18.458  17.630   4.457  0.0162 -0.0052 -0.2072
21172W        W37646  16.541   9.617   0.043 -0.2579 -0.0821  0.1270
21173W        W37647  14.996  14.875   3.485 -0.0987 -0.1657  0.4242
21174W        W37648  18.230  10.990  14.681 -0.1851 -0.3006  0.1743
21175W        W37649  15.875   3.328   1.400  0.3498 -0.0931 -0.2665
21176W        W37650  15.284  11.615  12.063  0.0221  0.1320  0.2915
21177W        W37651  16.628   8.726  14.378 -0.0950  0.3414  0.1941
21178W        W37652  15.563  18.215  12.858 -0.2162  0.0693 -0.3297
21179W        W37653  14.608  14.433   0.837 -0.1991  0.1431  0.0201
21180W        W37654   5.768  13.930   0.588  0.0238 -0.1540  0.0214
21181W        W37655   2.599   3.140  11.354 -0.3163  0.1389 -0.1922
21182W        W37656  16.155   1.208  12.732  0.1074  0.0909 -0.3412
21183W        W37657   0.033  16.506  13.421 -0.0173  0.1905  0.0024
21184W        W37658   7.419  14.269  12.066 -0.2278  0.0090 -0.0854
21185W        W37659  15.631   1.651   4.263  0.0814 -0.0838 -0.0476
21186W        W37660  16.552  18.818  13.948  0.2276  0.2082 -0.2632
21187W        W37661  17.117  10.998   0.988  0.1958  0.1954 -0.2147
21188W        W37662  11.990  16.752   0.998 -0.1249  0.1018 -0.0399
21189W        W37663   4.835  11.404   0.406  0.2454  0.2066 -0.0435
21190W        W37664  12.252   6.408  13.070 -0.0229  0.1993  0.1195
21191W        W37665   2.913  11.471   5.186 -0.3706 -0.6356  0.0318
21192W        W37666   7.031   1.848  11.937 -0.1132 -0.2134 -0.1158
21193W        W37667  18.707  14.497   2.777  0.0223  0.1805 -0.1876
21194W        W37668   1.728   1.449  11.067 -0.0663 -0.1996 -0.2114
21195W        W37669   3.105  13.831  14.342  0.1907 -0.1745  0.1949
21196W        W37670   6.494   8.702   2.833 -0.1505  0.3297 -0.0185
21197W        W37671  11.246  18.621   1.035  0.0828 -0.0760  0.0821
21198W        W37672  16.512  17.025   4.928 -0.2417  0.3595  0.2388
21199W        W37673  13.885   5.239   1.445 -0.3038 -0.0914  0.0001
21200W        W37674  17.204  13.022   2.260  0.3378  0.2007  0.2405
21201W        W37675   7.401   5.120   4.209  0.0535  0.0546 -0.1494
21202W        W37676  11.868  10.332   3.760 -0.2120 -0.2182 -0.2148
21203W        W37677   8.857   0.040   0.349 -0.2447 -0.1439  0.0804
21204W        W37678   3.517  16.268  13.803 -0.2138 -0.1025 -0.1325
21205W        W37679   2.308   0.282   1.497 -0.1408  0.2266  0.0719
21206W        W37680   2.093  10.476  11.704  0.1570  0.2275  0.1846
21207W        W37681  18.619   6.029  10.717 -0.1701  0.1355  0.1001
21208W        W37682  18.927   6.880   1.798  0.3156  0.0665 -0.0499
21209W        W37683  10.203   5.566  13.925  0.3938 -0.2505  0.2059
21210W        W37684  17.768  16.968  11.242  0.3640 -0.4512  0.0486
21211W        W37685   1.459  14.558   1.638 -0.0196  0.0229 -0.0710
21212W        W37686  13.980  12.455   1.358  0.0919 -0.2563  0.1325
21213W        W37687  15.627   4.036   2.675  0.1637  0.3893 -0.1447
21214W        W37688   8.163  14.063   9.778 -0.1401 -0.1122 -0.2600
21215W        W37689  15.371  12.499  14.309 -0.1795 -0.2150 -0.0570
21216W        W37690  16.597  15.186  10.463  0.0050 -0.2100  0.2645
21217W        W37691   8.111   9.162  12.716  0.0005 -0.0521 -0.0943
21218W        W37692  18.414  19.118   1.285  0.0008  0.1760  0.4973
21219W        W37693  11.993   5.700   2.848 -0.2306 -0.1219  0.1637
21220W        W37694   3.630  17.115   0.128  0.1130 -0.0148 -0.0380
21221W        W37695  15.031  11.045  13.914 -0.0769 -0.1260 -0.1431
21222W        W37696  17.105   6.908   0.274 -0.1117  0.1897  0.0719
21223W        W37697  13.776  10.957  13.989  0.0598  0.0974 -0.0315
21224W        W37698  16.536  16.693   2.704 -0.0167  0.1536 -0.1036
21225W        W37699  19.320  18.885  12.380  0.3040  0.2251  0.3895
21226W        W37700   2.734   4.448   1.665 -0.0477 -0.1487 -0.3638
21227W        W37701   8.904  14.337  14.641  0.0249 -0.1558 -0.1196
21228W        W37702   9.517   8.186   2.011  0.3205 -0.1944  0.1381
21229W        W37703  12.803   9.131  11.576  0.3680 -0.1371 -0.0615
21230W        W37704  11.686   4.416  11.933 -0.3899  0.0148  0.0436
21231W        W37705   9.014  12.893  14.661 -0.0022  0.1992 -0.0311
21232W        W37706  17.861   7.823   2.907 -0.3282 -0.3093  0.2441
21233W        W37707  10.257  14.278   4.579 -0.1884  0.2913 -0.1799
21234W        W37708  18.240   9.906   4.597  0.0418 -0.0404  0.0704
21235W        W37709   3.633  12.397  13.219 -0.2211 -0.1847 -0.2046
21236W        W37710  16.263  11.176   3.379  0.3528  0.2053 -0.0456
21237W        W37711  19.451   5.590  11.352  0.2870  0.1743 -0.0350
21238W        W37712   0.298   5.641   0.756 -0.3838  0.0245 -0.2966
21239W        W37713   2.004  12.027  12.349 -0.0337 -0.1788 -0.0878
21240W        W37714  17.051  18.244  14.254  0.2687  0.2275  0.0836
21241W        W37715  17.099   8.658   1.326  0.0021 -0.2455 -0.0455
21242W        W37716  10.365   3.297   0.136 -0.0567  0.4034 -0.3814
21243W        W37717  18.030   4.078  10.859  0.1764  0.0469  0.0278
21244W        W37718   0.585   3.417  13.412  0.1695 -0.1535  0.1495
21245W        W37719   2.368   4.460   4.847  0.1400 -0.1189  0.2216
21246W        W37720   5.808  18.755  10.816  0.2862 -0.1301 -0.0614
21247W        W37721  13.152  12.171  13.554  0.1409  0.0737  0.0448
21248W        W37722  13.583  15.273  10.955  0.1690 -0.4439 -0.0832
21249W        W37723   8.377  17.409   1.413  0.0419  0.0727 -0.0255
21250W        W37724   3.018   6.570   5.139 -0.2417 -0.0455  0.1255
21251W        W37725   4.480   9.718  12.752 -0.2294 -0.1068 -0.0296
21252W        W37726  15.787  15.740   1.188  0.3210 -0.2157 -0.0669
21253W        W37727  10.749  17.450   1.682  0.0705 -0.2607  0.1678
21254W        W37728   0.440   9.974   2.598  0.4353  0.0057  0.3344
21255W        W37729   0.136  10.074   4.094  0.1016  0.1808  0.1618
21256W        W37730  10.963   8.405   0.282 -0.0170 -0.0211 -0.2656
21257W        W37731   1.910  17.799   2.688 -0.1396 -0.2822  0.0148
21258W        W37732  18.285   3.047  13.929 -0.1141 -0.2278 -0.0911
21259W        W37733   2.609   0.674  13.353  0.2510  0.2927  0.0975
21260W        W37734  18.415   8.395   2.527  0.1915 -0.2404  0.1080
21261W        W37735  18.741  15.045  13.767  0.0826 -0.1542 -0.1571
21262W        W37736  18.411  13.795   3.247 -0.0457 -0.1657  0.1501
21263W        W37737   4.479  10.484  13.220 -0.0361 -0.2773 -0.0736
21264W        W37738  15.385   7.341   4.431  0.0943 -0.1292 -0.2428
21265W        W37739  13.974  11.363   2.069  0.2006  0.0728 -0.1879
21266W        W37740   5.744   3.526  11.111 -0.2601 -0.2840 -0.0141
21267W        W37741   2.046   1.785  10.854  0.3351 -0.3340  0.1846
21268W        W37742  17.473   2.396   4.514  0.2039 -0.2274  0.0350
21269W        W37743   9.468   1.397   0.447 -0.0827 -0.0946 -0.1601
21270W        W37744  17.721   0.421  14.522  0.1533  0.0256  0.3002
21271W        W37745   0.664  16.309  12.889  0.1917  0.0189  0.0757
21272W        W37746   0.818  14.459   3.796  0.0771  0.1516 -0.4890
21273W        W37747   5.624   0.023  13.611  0.2554  0.1569  0.2169
21274W        W37748   2.748  12.468   2.018  0.4606 -0.1960 -0.1075
21275W        W37749   1.813  10.593   3.287 -0.3029  0.3987 -0.0358
21276W        W37750  10.220   4.252   5.316  0.1993 -0.0892 -0.1215
21277W        W37751   6.226  19.259  12.346 -0.2864 -0.1605  0.0408
21278W        W37752  18.314  10.032  13.677 -0.1725 -0.2140 -0.3185
21279W        W37753   3.460   9.428   1.654  0.1689 -0.0292 -0.0521
21280W        W37754   1.711  11.595   4.591 -0.1469 -0.1072  0.1844
21281W        W37755   0.794  10.562   1.938  0.1627  0.0193  0.0642
21282W        W37756  17.825   1.163   4.449  0.3098 -0.1555 -0.0569
21283W        W37757  15.337   0.408   1.141 -0.0844 -0.1124  0.0022
21284W        W37758   4.653  13.366  11.874 -0.0514  0.0196 -0.0155
21285W        W37759  15.754  17.975  12.463  0.2587 -0.0312 -0.0384
21286W        W37760  16.429   9.792  11.151 -0.1489 -0.2985 -0.0555
21287W        W37761   1.358  12.468   2.891  0.0965 -0.0072 -0.2078
21288W        W37762   9.406   0.894   4.065  0.0040 -0.1143 -0.5593
21289W        W37763  15.366  16.044   1.269 -0.0013  0.4102  0.1469
21290W        W37764   0.485  15.831   1.293  0.5285  0.0850  0.1479
21291W        W37765  16.621  18.811   0.650  0.0997 -0.1914  0.1737
21292W        W37766   0.433   2.510   3.259  0.0499  0.0488  0.3220
21293W        W37767  12.848   3.661   5.369 -0.2891 -0.1550 -0.2797
21294W        W37768   8.988   9.279  14.500 -0.4955 -0.2067  0.3575
21295W        W37769   8.123   3.611  12.891 -0.1350  0.0896 -0.0206
21296W        W37770   4.275   4.172  11.613 -0.2192 -0.1757  0.0533
21297W        W37771   3.703   2.769   2.188  0.0255 -0.1844  0.1728
21298W        W37772  14.920   1.154   3.695 -0.1035 -0.1709  0.1748
21299W        W37773  16.068  13.667  12.293 -0.0514 -0.0194  0.1745
21300W        W37774  15.870   6.377  12.218  0.0989  0.3097  0.1679
21301W        W37775   3.831  18.295  11.081  0.1370  0.0336  0.0189
21302W        W37776   0.505  11.213   0.559  0.2826  0.0337 -0.1139
21303W        W37777  10.231   7.732   2.493  0.1493  0.0590  0.1904
21304W        W37778  10.338   9.208  14.657  0.0259  0.2183  0.2778
21305W        W37779  10.704   9.256   3.411 -0.1523  0.1476 -0.1733
21306W        W37780  12.733  18.758  11.268 -0.0120 -0.0936  0.4002
21307W        W37781   2.565  14.799   4.289 -0.2989  0.0715  0.0345
21308W        W37782   9.579  15.874  14.184  0.0272  0.0266 -0.2556
21309W        W37783  16.427  16.763  14.690  0.4297  0.3007  0.1011
21310W        W37784   8.428  11.574   0.589  0.0884  0.2806  0.1590
21311W        W37785   5.900  16.161  11.977 -0.2939  0.4576 -0.0352
21312W        W37786  15.865  12.561   1.839 -0.1103 -0.1665 -0.0751
21313W        W37787  11.058   2.661   1.695  0.0721  0.0057  0.0395
21314W        W37788  17.567  15.085   2.498 -0.2974 -0.0896  0.1311
21315W        W37789   2.116  17.029  11.068  0.1177  0.2808  0.0026
21316W        W37790   1.383  13.230  13.659  0.4206  0.1736  0.1258
21317W        W37791   1.384   2.793  10.332  0.0506 -0.0652 -0.1406
21318W        W37792   7.863   2.429   2.701  0.0061 -0.3960 -0.1446
21319W        W37793   8.172  14.429   1.504 -0.1155 -0.3069  0.3676
21320W        W37794  10.804  12.699  11.540 -0.0749 -0.0691 -0.1398
21321W        W37795   0.639  14.922  12.690  0.0874 -0.4108 -0.1928
21322W        W37796   0.802  19.015   4.162 -0.1748  0.0309  0.1245
21323W        W37797  10.044   7.576   0.076  0.0128  0.1205  0.2908
21324W        W37798   3.819   8.829  12.831  0.0109 -0.0522  0.1350
21325W        W37799   0.291   7.118   2.240 -0.1360  0.1806 -0.0334
21326W        W37800   0.733   2.013   0.204  0.0167  0.0212  0.1594
21327W        W37801  11.364  15.335   3.674 -0.1720 -0.3320 -0.4169
21328W        W37802  16.427   6.516   3.463 -0.1505  0.1107  0.0420
21329W        W37803  13.048   9.451   3.547  0.3248  0.2174  0.0736
21330W        W37804  14.954   8.177  11.103 -0.1375  0.3226  0.2014
21331W        W37805   5.528  10.123   0.632 -0.1718  0.0433  0.1499
21332W        W37806   7.721  13.479  12.259 -0.1157 -0.0170 -0.0782
21333W        W37807  17.504  16.457  12.266  0.0795 -0.0582  0.2616
21334W        W37808   9.737   2.431   4.199 -0.1555  0.0126  0.0800
21335W        W37809  10.380   8.746   1.155  0.2888  0.1156  0.1066
21336W        W37810  16.960   3.540  11.306 -0.1129 -0.3654 -0.0400
21337W        W37811   0.951   5.341  11.563  0.0594 -0.1015  0.0178
21338W        W37812   9.805   0.027   4.185  0.3279  0.1438 -0.0840
21339W        W37813  12.341   1.156  13.386  0.1643  0.1912 -0.0211
21340W        W37814  17.327  13.847   2.177 -0.0945  0.0197  0.2149
21341W        W37815   7.176  12.476  11.078  0.0482  0.3667  0.0185
21342W        W37816   9.366  17.345   1.163 -0.0406  0.1044  0.2803
21343W        W37817   7.964   3.348   4.520  0.0756 -0.0271  0.1829
21344W        W37818   9.311  13.937   1.318 -0.2036  0.0082 -0.2583
21345W        W37819  12.477  14.901  12.748  0.2156  0.0891  0.1724
21346W        W37820  16.962   9.179   9.600  0.0532 -0.2268  0.1025
21347W        W37821  15.802  11.913  11.763  0.0123  0.0323 -0.4034
21348W        W37822  13.561   9.721  13.635  0.4702  0.1936  0.1958
21349W        W37823  13.560   0.591   3.895  0.1263 -0.0901 -0.1744
21350W        W37824   9.618   0.028   9.249 -0.5926  0.4382  0.0826
21351W        W37825   8.672   1.133  10.831  0.0404 -0.0335 -0.1583
21352W        W37826  18.697  10.397   1.264 -0.4282 -0.2412  0.2391
21353W        W37827   5.387  10.905   1.983  0.1324 -0.3387  0.2190
21354W        W37828   8.341  11.216  12.686 -0.1672  0.2181 -0.1037
21355W        W37829  17.085  14.983   3.066  0.2336  0.0756 -0.2339
21356W        W37830  15.454   0.472   3.559 -0.1306 -0.0289  0.0923
21357W        W37831  11.478   7.117  12.998  0.1721  0.0602  0.1921
21358W        W37832  15.300   4.181   5.026 -0.0777  0.2143 -0.1089
21359W        W37833  11.204  17.983  11.137 -0.1170  0.1121 -0.1709
21360W        W37834  14.111  13.409   4.406 -0.0169  0.2793 -0.0677
21361W        W37835   4.308   0.521  14.401  0.1869  0.0192 -0.1037
21362W        W37836   5.036   9.732  12.354 -0.4943  0.0168 -0.0674
21363W        W37837  15.294  16.911  11.644 -0.0585 -0.0877  0.0622
21364W        W37838   7.109   2.070   1.151 -0.1081  0.1361 -0.2291
21365W        W37839  17.940  10.672   0.292  0.0734  0.4284  0.2548
21366W        W37840   7.751   6.190   4.332  0.0977 -0.0469  0.2102
21367W        W37841  12.907  11.329  13.293  0.2048  0.0604 -0.0881
21368W        W37842   3.148  12.449  10.992  0.1464  0.1723  0.4361
21369W        W37843   5.966  16.782  12.668 -0.0948  0.1016 -0.1262
21370W        W37844  12.866   8.356  13.485 -0.0403 -0.0916  0.0848
21371W        W37845   6.647   9.862  12.155 -0.0730 -0.1724  0.2482
21372W        W37846   9.948   9.832   1.135 -0.1003 -0.1059  0.3890
21373W        W37847   9.412  14.622   3.222 -0.0289  0.3299  0.1701
21374W        W37848   3.983   4.622   0.272  0.0918 -0.0461  0.1740
21375W        W37849   6.090   7.476   2.536  0.0579 -0.2100 -0.4800
21376W        W37850   6.721   5.317   4.617 -0.1851  0.0446  0.0593
21377W        W37851  16.859  10.492  10.330 -0.1585  0.1342 -0.2058
21378W        W37852   0.189  18.086   0.972 -0.1235 -0.5395 -0.0245
21379W        W37853  18.286   4.860   3.590  0.3868 -0.2284 -0.1444
21380W        W37854  12.141   5.298  14.055 -0.2714  0.0165  0.1371
21381W        W37855  18.345  16.111  10.276  0.1386 -0.1872 -0.1355
21382W        W37856  15.731  18.958  11.891  0.1415  0.1851  0.4423
21383W        W37857   4.537  17.577  10.219  0.2134 -0.0771 -0.0302
21384W        W37858  18.926   9.931  10.456 -0.1822  0.1133  0.0496
21385W        W37859   6.911  14.581   5.006  0.2030 -0.4086 -0.0373
21386W        W37860   2.273  13.559  12.290 -0.0603  0.0582 -0.0441
21387W        W37861  12.594   8.905   0.862 -0.2556 -0.0537 -0.2287
21388W        W37862   5.555   3.050   2.377  0.0788 -0.0245 -0.2643
21389W        W37863   2.156  18.263   2.885  0.1629 -0.0600  0.2242
21390W        W37864   5.127   7.787   9.619  0.3710  0.3523 -0.0426
21391W        W37865   7.545  18.735  10.560  0.0095 -0.2292  0.1155
21392W        W37866  16.861   1.369   1.154  0.0505 -0.1168  0.1809
21393W        W37867  16.159  10.519  12.039 -0.4866  0.0784 -0.0074
21394W        W37868  10.985  10.991   0.142 -0.1516  0.1750  0.1377
21395W        W37869  11.126   5.346  14.531  0.0155 -0.1905 -0.0853
21396W        W37870   1.684  14.683  10.043 -0.0089  0.3556 -0.0620
21397W        W37871  17.748  11.352  13.369  0.1254  0.1597 -0.1120
21398W        W37872   0.337  13.729  12.137  0.0053 -0.0586  0.0094
21399W        W37873   9.054  17.760  12.578 -0.3167  0.0026 -0.4569
21400W        W37874   8.352   0.183   0.128  0.0712  0.0979 -0.0556
21401W        W37875   2.740  12.659  13.819 -0.3280  0.3585 -0.2433
21402W        W37876  17.258  10.450   4.076 -0.3755 -0.0487  0.2103
21403W        W37877  13.999   6.787  13.788 -0.2002 -0.0859 -0.1055
21404W        W37878  12.380   2.660  11.474 -0.1878 -0.3306 -0.0953
21405W        W37879   0.430   6.689   2.633 -0.0057  0.1517 -0.1454
21406W        W37880   6.362   8.904   9.932  0.2147 -0.3613  0.3848
21407W        W37881   4.227   7.893   4.405 -0.1972 -0.0903 -0.0061
21408W        W37882   6.355   4.074   3.715  0.2429 -0.0068  0.4662
21409W        W37883   8.946  17.034  10.800 -0.2043 -0.0875  0.0410
21410W        W37884  14.912  16.412  11.754  0.3059  0.1193  0.1029
21411W        W37885  19.427   0.760   4.801 -0.1011  0.0361 -0.1647
21412W        W37886  11.549   1.516   3.206 -0.0672  0.0827 -0.1321
21413W        W37887   5.299   6.998   0.206  0.1314  0.0281 -0.1057
21414W        W37888   4.365   1.626   1.924 -0.1925 -0.1259  0.0529
21415W        W37889   5.239   3.550   3.669  0.0487 -0.3462 -0.0367
21416W        W37890   0.828  15.674  13.827  0.0907 -0.0204  0.0797
21417W        W37891   4.466   8.367  12.179 -0.0994 -0.2667 -0.0143
21418W        W37892   8.570   2.371   3.863  0.0270  0.2833 -0.2685
21419W        W37893   1.845  11.424   0.308  0.0786 -0.1407 -0.0006
21420W        W37894   5.414   3.198   0.925 -0.0285 -0.0694 -0.0593
21421W        W37895   7.802   6.898   2.483 -0.3443 -0.0489  0.2145
21422W        W37896  12.822  10.165   2.874  0.2638  0.0587 -0.0260
21423W        W37897  15.725  10.894   0.905  0.3511 -0.2041 -0.0199
21424W        W37898   3.823   1.816  10.166 -0.3238 -0.0494 -0.0740
21425W        W37899   0.743   1.757  13.908 -0.0788  0.3019 -0.1693
21426W        W37900   5.471   1.510  10.017 -0.2469 -0.2120 -0.0305
21427W        W37901   4.953   7.539  12.388 -0.1768 -0.0430  0.1286
21428W        W37902   9.409  17.761   3.540  0.0104  0.2391 -0.1833
21429W        W37903  17.192   0.674  13.445 -0.1120  0.2709 -0.1806
21430W        W37904  11.067   5.848  11.184 -0.1192 -0.2115 -0.0622
21431W        W37905   4.296  17.919   9.882  0.0402  0.2324  0.1061
21432W        W37906  10.383   6.969   4.599 -0.2607  0.3500 -0.2339
21433W        W37907   6.906  16.790  11.288 -0.0643  0.0789 -0.2604
21434W        W37908  17.947   8.299   2.781 -0.0075 -0.1094  0.2061
21435W        W37909   3.587   5.242  13.148 -0.0915  0.2597  0.2886
21436W        W37910   6.121   3.333  10.346 -0.0513 -0.0256  0.0990
21437W        W37911   6.536  12.110  14.191 -0.5262 -0.0462  0.1463
21438W        W37912   5.120   8.622  12.507 -0.0959 -0.2428 -0.2212
21439W        W37913  12.141   1.606   0.218  0.1176  0.0799  0.3158
21440W        W37914  18.943  16.429  11.367 -0.1290  0.0211  0.0384
21441W        W37915  14.772   6.266   2.890  0.0345  0.3887 -0.0279
21442W        W37916   9.422   1.870   1.385 -0.0863  0.4064 -0.1975
21443W        W37917   3.135   8.696   4.515 -0.2561 -0.2049 -0.1763
21444W        W37918   0.247   1.676   9.339  0.0526 -0.1323  0.2506
21445W        W37919  16.888  11.757   1.770 -0.1161  0.0381 -0.2097
21446W        W37920  18.095  10.305   0.709  0.0979  0.1999 -0.2030
21447W        W37921   3.383   4.283  13.217  0.0432 -0.0470 -0.0052
21448W        W37922  12.571  17.318   3.166 -0.0501  0.2135 -0.1297
21449W        W37923  11.841  15.784  10.856  0.1600  0.3148  0.0154
21450W        W37924   3.574   8.837   1.935 -0.0058 -0.1978 -0.3955
21451W        W37925  12.530   8.759   1.745 -0.5126  0.0125  0.2313
21452W        W37926   9.999  15.854  12.843  0.1035  0.1338  0.0992
21453W        W37927  12.134  13.730  12.081 -0.0604 -0.0985  0.0733
21454W        W37928   5.676   0.601   4.746 -0.2232  0.0593  0.0469
21455W        W37929   2.682  11.422   0.119  0.1825 -0.3606  0.2022
21456W        W37930  13.369   6.977   5.194 -0.0706  0.2676 -0.3180
21457W        W37931   8.842  11.542   0.215  0.2471 -0.1941 -0.2203
21458W        W37932   7.126  14.955   4.443 -0.1016  0.0871 -0.1147
21459W        W37933  11.604  16.274  10.228  0.0909  0.1376 -0.1000
21460W        W37934   3.280   1.336  13.176 -0.0515  0.2128 -0.0005
21461W        W37935  10.025  15.464   0.556 -0.1605  0.0775 -0.2902
21462W        W37936  18.259  13.591   4.483 -0.2237 -0.0358 -0.0918
21463W        W37937  13.222  18.070   3.876 -0.0030 -0.1921 -0.0725
21464W        W37938  15.900  19.049  12.875  0.0435  0.1225 -0.0045
21465W        W37939   2.481  16.476  11.848  0.3853 -0.2577  0.0401
21466W        W37940   7.440  14.108   0.575 -0.3670 -0.1523  0.0497
21467W        W37941  11.723  17.412  12.586  0.0459 -0.0836  0.1083
21468W        W37942   2.399   9.467   4.689  0.0234 -0.4885  0.0122
21469W        W37943   8.722   7.280  13.591  0.1512 -0.0578  0.1773
21470W        W37944  12.732   7.294   2.835 -0.1174 -0.0848 -0.0066
21471W        W37945  11.781   6.799  13.174 -0.3349  0.0350  0.0757
21472W        W37946  11.768  11.882   4.908 -0.4700  0.1489  0.2821
21473W        W37947   3.835  17.601  14.714 -0.0194 -0.1195 -0.0090
21474W        W37948  18.395   6.533   2.245 -0.0882 -0.1555 -0.0877
21475W        W37949  14.948   4.360  12.262 -0.1205 -0.3064 -0.1417
21476W        W37950   0.661   9.819  10.783  0.1843 -0.0935 -0.2492
21477W        W37951  18.924   2.945  14.134 -0.0100  0.3385  0.3320
21478W        W37952   9.969  12.569   0.389 -0.1573  0.0769  0.1824
21479W        W37953   3.014  17.895   4.709 -0.0923  0.1420  0.0396
21480W        W37954  10.398  11.171  10.281  0.2146  0.2387 -0.1536
21481W        W37955  15.120   7.974   3.712  0.4121 -0.0002  0.2503
21482W        W37956  16.963  10.047   4.457 -0.0245  0.1580  0.1463
21483W        W37957  18.495   7.280  12.790 -0.0747 -0.0713 -0.2241
21484W        W37958   1.123   9.051  11.109  0.0131 -0.2635 -0.2061
21485W        W37959  14.165  11.957  13.105  0.2602  0.0562 -0.1324
21486W        W37960   3.120  18.181  11.713 -0.1217 -0.0699  0.2158
21487W        W37961   4.866  10.841  11.953 -0.0939  0.1245 -0.1415
21488W        W37962  15.527  12.421  12.560 -0.3918 -0.2097 -0.0219
21489W        W37963  12.462   1.008  10.364  0.3151 -0.3514 -0.1692
21490W        W37964  14.094  17.909   1.598  0.1438  0.0867 -0.2728
21491W        W37965   7.366   7.533   1.200 -0.2219  0.2068 -0.2715
21492W        W37966   4.401   6.496   1.283  0.0232  0.0625  0.1510
21493W        W37967   1.556   0.154   4.317 -0.1018 -0.0141  0.0870
21494W        W37968  10.281  11.735  13.360 -0.0743 -0.0022  0.3972
21495W        W37969   4.345   7.904   2.818 -0.2504 -0.1694  0.0619
21496W        W37970   2.928   6.878   3.754  0.3865 -0.2263 -0.1351
21497W        W37971   7.845   4.047   0.661 -0.1118  0.2573  0.2127
21498W        W37972  18.917   1.993   4.584 -0.1541 -0.1094 -0.1114
21499W        W37973  18.797  12.205   9.317 -0.0592  0.3200 -0.0404
21500W        W37974   7.358  19.319  10.239  0.0837  0.3648 -0.1140
21501W        W37975   7.380   9.185   2.208  0.2629 -0.0512 -0.2069
21502W        W37976  16.381  15.604  11.780  0.1652 -0.0858  0.0340
21503W        W37977  14.784   3.956   4.090 -0.2479  0.0643 -0.2485
21504W        W37978  15.579   6.966  11.776 -0.4389 -0.0928  0.2117
21505W        W37979  18.227  15.767   0.190 -0.1687  0.3016  0.2486
21506W        W37980   7.076  17.749   9.494  0.0970  0.0656  0.0567
21507W        W37981  12.916   5.742  10.907 -0.1471 -0.2683  0.0290
21508W        W37982  15.938  16.198  12.301 -0.0754  0.0149  0.0951
21509W        W37983   9.245  16.081  13.882 -0.0324  0.4416 -0.1864
21510W        W37984   6.824  15.808   1.417 -0.2203 -0.2320  0.2945
21511W        W37985  14.108  11.869  14.005 -0.1077 -0.1180  0.1136
21512W        W37986   7.965   9.275  10.954  0.0209 -0.2330  0.0976
21513W        W37987  10.330  14.720   0.680  0.2543 -0.0021  0.0731
21514W        W37988  18.538   7.509  14.261 -0.0649  0.0008  0.2921
21515W        W37989   9.002  12.684  11.836  0.0924  0.3492 -0.1863
21516W        W37990   6.175  19.289   1.824  0.3618  0.1244 -0.3340
21517W        W37991  18.423   7.579   3.552 -0.2024 -0.3873  0.0754
21518W        W37992  12.369   6.162  12.623 -0.1324  0.3443 -0.2574
21519W        W37993  16.985  19.304  10.184 -0.1647  0.0173 -0.1152
21520W        W37994  15.871   8.574   0.675  0.0075  0.0708 -0.1419
21521W        W37995   4.883   0.723  10.264  0.1645  0.3374 -0.0201
21522W        W37996   8.203  11.061   3.729  0.2181 -0.0979 -0.2929
21523W        W37997   8.008  17.762   1.100  0.1986 -0.0778  0.0925
21524W        W37998   7.300  17.695   2.222 -0.2089  0.4375  0.0372
21525W        W37999  17.387   1.356  10.048  0.3972  0.2784 -0.4529
21526W        W38000   4.237  11.463   1.923 -0.3254 -0.1392 -0.1134
21527W        W38001  12.210   5.710   1.968  0.4291  0.0030  0.1491
21528W        W38002   7.762  13.749   0.405  0.1039  0.1794  0.1123
21529W        W38003   9.652   6.672   4.509 -0.0317 -0.2009  0.2595
21530W        W38004   6.454   9.889  14.127  0.1427  0.0426  0.1865
21531W        W38005  12.114  18.202  11.394 -0.0950  0.1944  0.0484
21532W        W38006  16.322   8.600   4.144 -0.0507 -0.4322  0.2020
21533W        W38007   3.944  10.595  13.041 -0.1511 -0.1496  0.1543
21534W        W38008   8.712  10.744   3.986 -0.1243 -0.2928 -0.2384
21535W        W38009   3.122   9.131  12.435 -0.1872 -0.1570  0.0611
21536W        W38010  13.836   3.009   4.965 -0.3178 -0.3999  0.0109
21537W        W38011  15.414  12.126   2.751 -0.1686  0.1505 -0.3757
21538W        W38012   1.323  11.174   2.125 -0.1554 -0.2098  0.1898
21539W        W38013  13.290  19.525  10.294  0.2397  0.2663  0.2118
21540W        W38014   3.489   3.370   4.036  0.1066  0.1819  0.0977
21541W        W38015   5.911   1.500  12.132 -0.1847 -0.1778 -0.0776
21542W        W38016   1.414  17.619  10.831  0.1580  0.2898  0.0176
21543W        W38017  14.246   6.203   3.007 -0.0723 -0.2505 -0.3127
21544W        W38018  14.258   7.478  12.924  0.1951  0.2495 -0.0435
21545W        W38019   2.901  10.994   0.032 -0.0724 -0.0620 -0.1775
21546W        W38020   1.036  18.964  12.619  0.0069 -0.0532 -0.0299
21547W        W38021   5.314  17.325   4.767 -0.3516  0.2663  0.0614
21548W        W38022   0.707  17.280  10.602  0.2104  0.0362  0.0973
21549W        W38023   8.746   2.819  10.770  0.1317  0.0819  0.2120
21550W        W38024   9.588   3.550   2.674 -0.2892  0.1250  0.0626
21551W        W38025   4.473   2.459   2.342 -0.1313 -0.1004 -0.3888
21552W        W38026   6.359  10.689   3.440 -0.1447 -0.2293 -0.3589
21553W        W38027  17.587  13.775   3.516 -0.0351  0.0428 -0.0093
21554W        W38028  18.924  13.035  10.499 -0.0561  0.2663 -0.2737
21555W        W38029  15.120  17.404  12.941  0.1069 -0.1357  0.0715
21556W        W38030   1.718   2.658  13.400 -0.0853 -0.0488 -0.6444
21557W        W38031   7.682  18.786  11.404  0.0994 -0.1767  0.0496
21558W        W38032   0.482   3.728  13.040 -0.4010  0.0871 -0.1013
21559W        W38033   0.207  13.706  10.366 -0.1261 -0.1390  0.0848
21560W        W38034  11.666  11.333  10.642  0.1582  0.0332 -0.1937
21561W        W38035   0.740  10.205  14.085 -0.1175 -0.2306  0.2070
21562W        W38036   8.621  16.510  12.196 -0.4624 -0.3043  0.2799
21563W        W38037  11.197  13.830   5.329 -0.3448  0.1998 -0.0451
21564W        W38038  11.900   7.372   9.769  0.0955 -0.1270  0.1446
21565W        W38039   7.401  14.870   3.005 -0.2819  0.0488  0.2717
21566W        W38040   2.373  10.250   2.084 -0.0212 -0.1596 -0.0920
21567W        W38041   8.258  12.774   1.056 -0.1843 -0.3195 -0.0801
21568W        W38042  10.488   9.465   4.545 -0.1316 -0.0383 -0.0568
21569W        W38043  16.901   8.838  12.381 -0.3025  0.0703 -0.1405
21570W        W38044   6.966   5.086   1.425  0.0609 -0.1822 -0.0924
21571W        W38045   0.997   2.871  14.576 -0.0337 -0.0072  0.1576
21572W        W38046  13.160  12.350   2.687  0.4744 -0.0713  0.0597
21573W        W38047   4.181   1.004   9.585  0.1204 -0.1573  0.2892
21574W        W38048   9.462  13.791   2.935  0.2106  0.2387  0.0803
21575W        W38049  16.321   7.252   5.713  0.1447 -0.0226 -0.1155
21576W        W38050   7.365   7.168   2.613  0.0386 -0.0611  0.2306
21577W        W38051  14.703   7.902   2.324  0.1687  0.1330  0.3448
21578W        W38052  15.986   1.269  11.556 -0.1480  0.1363  0.2307
21579W        W38053   2.006  16.996   4.436  0.0643  0.2757  0.0952
21580W        W38054  13.990   4.277   4.266 -0.0860  0.0111  0.1116
21581W        W38055  13.016  10.999   1.783  0.1526  0.0595  0.0042
21582W        W38056  12.642   9.236  11.128  0.1233 -0.4155  0.1020
21583W        W38057  15.942   7.948   4.201  0.2218  0.2523 -0.3213
21584W        W38058  12.504  14.017   4.169 -0.3095  0.1094  0.0370
21585W        W38059  10.638  10.222  11.639 -0.3298 -0.0252 -0.3385
21586W        W38060  14.216  12.605  13.981 -0.0815  0.0682  0.2762
21587W        W38061   4.400   0.342  11.084 -0.0344  0.1235  0.0658
21588W        W38062   6.039   8.764   4.616  0.0976 -0.0878 -0.0315
21589W        W38063  12.544  10.244  10.583 -0.2585 -0.1748 -0.0065
21590W        W38064  10.852   0.723  14.058  0.3096  0.0705  0.2964
21591W        W38065  12.004  13.051  10.893 -0.0097  0.1707 -0.1109
21592W        W38066  12.010  14.175   0.732 -0.1619  0.2356 -0.0165
21593W        W38067   9.842   6.468   3.383  0.0419 -0.0303  0.2955
21594W        W38068  10.847  13.255  11.168 -0.0838 -0.0576  0.1096
21595W        W38069   6.907   8.927  11.276  0.0305 -0.0528 -0.0299
21596W        W38070   9.734  17.606   0.970 -0.2070  0.0435  0.1003
21597W        W38071   4.369  12.891   4.202 -0.0506 -0.1906 -0.0939
21598W        W38072  16.362  11.788   3.239  0.0361  0.0637  0.0708
21599W        W38073   3.633   5.301   0.311 -0.0441 -0.2376  0.0264
21600W        W38074  11.585  15.351   2.749  0.0368 -0.0519  0.2018
21601W        W38075  10.134  18.912   4.553 -0.2077 -0.2458 -0.0320
21602W        W38076  18.223  10.091  14.220  0.1175  0.1461  0.2691
21603W        W38077  13.350  16.189   1.438  0.2158 -0.2405 -0.2183
21604W        W38078   1.474   5.864   4.295 -0.2030  0.1209 -0.1702
21605W        W38079   2.551   6.704   1.613 -0.1519  0.1677 -0.1627
21606W        W38080   0.514  10.892  10.730  0.3255 -0.0923  0.0837
21607W        W38081   4.029  13.257   2.820  0.0439 -0.1658  0.0222
21608W        W38082  17.830  17.843   4.492 -0.3557  0.0043 -0.0099
21609W        W38083   6.716   5.421   3.201 -0.3557 -0.0037 -0.0464
21610W        W38084   2.597  17.182  13.231 -0.1881 -0.0415  0.1546
21611W        W38085   0.766  18.532   0.696 -0.0668  0.2010  0.0395
21612W        W38086  17.398   5.287  14.292 -0.0288  0.1059  0.1559
21613W        W38087   0.570  12.037  12.002 -0.2336  0.2146 -0.1204
21614W        W38088  17.633   4.622   4.201  0.0213 -0.0559 -0.1245
21615W        W38089   1.507  12.614   9.657 -0.0356 -0.1300  0.4366
21616W        W38090  13.404   2.462  10.307 -0.0810  0.1617  0.0416
21617W        W38091  15.555   1.084  13.734  0.1028  0.0206 -0.0382
21618W        W38092  12.361  12.762  10.514  0.0244 -0.2818  0.1384
21619W        W38093  18.635  13.047  14.620 -0.2644  0.0711 -0.5425
21620W        W38094   5.968  17.129   1.852  0.2047 -0.1060  0.2670
21621W        W38095  12.706   7.746  12.809  0.0734 -0.0348  0.0294
21622W        W38096   3.783   3.433  11.654 -0.0995  0.0400  0.0984
21623W        W38097  11.550  17.411   2.688  0.1285 -0.0396  0.1096
21624W        W38098  10.953   7.007   1.487 -0.0016 -0.0658 -0.0381
21625W        W38099  11.832   1.108   0.958 -0.0609  0.1171  0.1111
21626W        W38100   0.908   7.022   1.462 -0.3745 -0.1253 -0.0171
21627W        W38101  11.669  15.469   1.763 -0.0623 -0.1004 -0.0495
21628W        W38102  11.257   2.399   2.055  0.2085 -0.0128  0.0720
21629W        W38103   8.781   6.880  11.850  0.2514  0.0580  0.3769
21630W        W38104   9.352   7.288  13.999 -0.1905  0.2568 -0.0818
21631W        W38105   1.626   9.798   0.143  0.2950 -0.1759  0.0757
21632W        W38106  15.888  14.990   3.211 -0.0377  0.2202 -0.3590
21633W        W38107  13.110  19.465  10.818  0.0016  0.1232  0.2874
21634W        W38108  16.225  16.771  10.615 -0.1328 -0.3850  0.1908
21635W        W38109   9.286  11.126   1.337  0.0846  0.0365  0.0213
21636W        W38110  18.613  10.230   0.734 -0.0068  0.3540  0.0266
21637W        W38111   8.436  15.775   0.444 -0.3798  0.0077  0.1396
21638W        W38112  11.931  18.742   5.290  0.1561  0.2597  0.1212
21639W        W38113  14.910  18.808   9.490 -0.0241  0.2790 -0.2163
21640W        W38114   0.661  10.416   4.228 -0.1062  0.0508 -0.0564
21641W        W38115   0.648  11.918   2.496 -0.0211  0.2042  0.0725
21642W        W38116   8.725  19.220   9.915 -0.0204  0.2294  0.6153
21643W        W38117  17.378   0.446  11.117  0.0167 -0.0126 -0.0738
21644W        W38118   7.768  13.082   2.414 -0.0471 -0.3420  0.3783
21645W        W38119   2.684   9.204  13.254 -0.1011 -0.1506  0.4144
21646W        W38120  11.011   5.068   1.089  0.0333  0.0377 -0.1581
21647W        W38121   9.713  15.918   2.262 -0.0067  0.1701 -0.1335
21648W        W38122   7.297  13.635  13.578  0.1180  0.0091  0.0887
21649W        W38123  15.571   3.832  13.934  0.0687 -0.0419  0.1114
21650W        W38124  14.899   0.532  12.245  0.0008  0.0932  0.1119
21651W        W38125  11.200   4.566   9.534 -0.0394  0.2135  0.0438
21652W        W38126  16.079   9.975   2.411 -0.1368  0.3241  0.2589
21653W        W38127  11.986  18.016  11.897  0.1911 -0.1872 -0.0099
21654W        W38128   7.882  17.071  10.343  0.3179 -0.0804  0.0556
21655W        W38129  19.256  14.230   2.336 -0.2552  0.1319 -0.0618
21656W        W38130  13.358  18.361  13.879 -0.0020  0.0278 -0.1558
21657W        W38131   5.474   6.506   1.543 -0.3856  0.3602 -0.1948
21658W        W38132  16.039   5.562  10.971  0.2450 -0.3403  0.1201
21659W        W38133  10.973  10.080  10.380  0.1010 -0.0275 -0.0852
21660W        W38134   8.592   9.444   0.576  0.1454  0.2796  0.1926
21661W        W38135   0.601   0.923  11.553  0.0863 -0.0412  0.2122
21662W        W38136   4.709   3.409   2.170  0.0038 -0.1804  0.1181
21663W        W38137   9.974  11.835  13.799 -0.0637 -0.1461  0.5934
21664W        W38138   6.768  12.768  13.632  0.2397 -0.1670  0.0784
21665W        W38139   2.684  17.831  11.851 -0.0315  0.0401 -0.1399
21666W        W38140   1.996   0.104  13.687  0.3701  0.2562  0.3068
21667W        W38141  10.112   6.823   3.134 -0.1666  0.2171 -0.0167
21668W        W38142   2.330   4.768   3.427 -0.0014 -0.1988  0.1124
21669W        W38143   6.512   0.331  13.343 -0.0385 -0.1185  0.2641
21670W        W38144   8.057   4.756   2.273  0.0424 -0.0531  0.0069
21671W        W38145  13.435  12.068  11.210  0.0736 -0.0999 -0.1665
21672W        W38146   3.935  14.095   2.869  0.1603  0.0517 -0.1752
21673W        W38147  10.167  13.454   0.101 -0.2729 -0.1880  0.0141
21674W        W38148   5.693   8.291  10.733 -0.1708  0.1424 -0.1626
21675W        W38149   6.448   7.769  14.403 -0.1650  0.0772 -0.0389
21676W        W38150   1.969   4.572   3.001 -0.1244  0.1978  0.1879
21677W        W38151  10.606  12.107   1.506 -0.0578 -0.0571  0.2794
21678W        W38152   5.756  13.928   3.274  0.0194  0.0396  0.0601
21679W        W38153  18.619   5.260   3.784 -0.4260 -0.2592  0.2738
21680W        W38154   5.379   2.383   1.332 -0.0402  0.0944  0.3055
21681W        W38155   7.589  14.807  13.249  0.1531 -0.0462 -0.0753
21682W        W38156  16.982  17.630  14.328  0.1381 -0.0451 -0.1305
21683W        W38157  12.427  18.034   2.261 -0.3350  0.0484 -0.1319
21684W        W38158  14.695  19.462   0.340  0.0106 -0.3468 -0.1431
21685W        W38159  18.682   4.592  13.422  0.0724  0.0008 -0.0749
21686W        W38160   9.045  16.819  12.249 -0.0831 -0.1006 -0.6613
21687W        W38161   6.100   1.861   4.062  0.2792 -0.3804  0.4531
21688W        W38162   4.664   9.955  14.181  0.1628 -0.1490 -0.2736
21689W        W38163  16.808  16.675  12.594  0.2395 -0.2992 -0.4332
21690W        W38164   1.258   8.338  12.873 -0.1070  0.4375  0.1780
21691W        W38165  16.095   3.347   4.042 -0.0004 -0.1463  0.2401
21692W        W38166   2.758  17.852   2.613 -0.0592  0.0015  0.1201
21693W        W38167   4.981  16.698  13.084 -0.1160  0.4301 -0.1473
21694W        W38168  17.450   3.245  11.347  0.3256  0.2075 -0.1398
21695W        W38169  19.206  14.527  11.116 -0.3411 -0.1841 -0.2145
21696W        W38170  11.192   7.103  12.611 -0.0730  0.0551  0.0400
21697W        W38171  17.609   0.000  11.455 -0.0498 -0.0507 -0.0624
21698W        W38172  17.529   0.017  10.824  0.0502 -0.0807  0.2085
21699W        W38173  15.240  12.517   0.529  0.1165  0.1715  0.0879
21700W        W38174  16.309   0.546   3.372 -0.3311 -0.3147 -0.1096
21701W        W38175  12.054  18.890   4.179 -0.0802  0.1074 -0.1620
21702W        W38176   7.771  13.197  10.237  0.0892  0.0466 -0.0009
21703W        W38177   9.826   0.449  13.878 -0.1394  0.0656 -0.1349
21704W        W38178  10.910  16.696  11.609 -0.1672 -0.1428  0.0422
21705W        W38179  11.944  17.352  11.542  0.0752  0.1698 -0.1659
21706W        W38180  13.099  13.950   2.034 -0.1166 -0.2406  0.0175
21707W        W38181  19.202   3.379   4.772 -0.2332 -0.2146  0.0171
21708W        W38182  13.740  17.611   3.425 -0.1160 -0.0237 -0.1723
21709W        W38183   2.466   0.187  13.609 -0.0233  0.2651  0.0391
21710W        W38184  19.295  15.844   4.153 -0.3089 -0.2644 -0.0067
21711W        W38185  15.955  12.152  13.635 -0.2008 -0.3080 -0.2057
21712W        W38186   1.401  17.155   0.581  0.2677 -0.0554  0.1152
21713W        W38187  18.552   4.156   1.262 -0.3875 -0.1357 -0.3003
21714W        W38188  11.222   4.515  11.549 -0.1546  0.1433  0.2770
21715W        W38189   8.330   1.909   4.551 -0.0766  0.3415 -0.1069
21716W        W38190  10.789   0.160   0.141  0.0599  0.1328  0.1938
21717W        W38191  10.006   2.924  11.088 -0.1673 -0.0212  0.2034
21718W        W38192   5.698   7.828  11.721 -0.1250  0.1357 -0.2918
21719W        W38193  11.630  11.419   2.355 -0.0569  0.1960 -0.1263
21720W        W38194  16.221  10.463   9.614 -0.2076 -0.1171 -0.3037
21721W        W38195  14.633   2.098  11.584 -0.1610 -0.1966 -0.0263
21722W        W38196  13.042  16.712  13.812 -0.1859  0.1736  0.1046
21723W        W38197  14.808  17.225  12.555  0.1697 -0.0704  0.2231
21724W        W38198  19.351  12.713  12.157 -0.6403 -0.1409 -0.1585
21725W        W38199   1.060  11.333  11.463 -0.1677  0.2486 -0.1209
21726W        W38200   7.403   6.814   4.804  0.0613  0.1107 -0.2427
21727W        W38201  10.121  15.035  11.041 -0.0856 -0.1777 -0.0700
21728W        W38202   8.331  18.111   3.323  0.3184  0.0147  0.0008
21729W        W38203  10.836  19.192  10.445  0.3370 -0.2202  0.6050
21730W        W38204   6.360  18.291   9.395 -0.0031 -0.1179 -0.1689
21731W        W38205   3.268   0.540   3.585 -0.1281 -0.2773 -0.2683
21732W        W38206   9.318   6.269   0.443  0.4584  0.2667  0.0283
21733W        W38207   5.031   8.536   4.566  0.1666  0.2453  0.2547
21734W        W38208  13.660  17.630  13.625 -0.3010 -0.2547  0.1306
21735W        W38209  10.351  17.946   4.403  0.2439 -0.1680 -0.2834
21736W        W38210   4.139  19.363   0.415 -0.1890 -0.0741 -0.2282
21737W        W38211  17.409   9.942   4.764 -0.2122  0.1715  0.1710
21738W        W38212  12.725  16.048   4.687  0.0349 -0.1214 -0.1096
21739W        W38213  15.795   2.851   0.642  0.1521  0.2634 -0.0128
21740W        W38214   0.293   7.630  14.239 -0.1044 -0.1769 -0.2399
21741W        W38215   8.526   1.124   2.835 -0.2311  0.2988 -0.0008
21742W        W38216  18.838   5.422  12.760  0.4150 -0.1031  0.1446
21743W        W38217  14.311   6.517  14.053  0.1678  0.2593 -0.2262
21744W        W38218   1.301  14.939   0.850  0.0954  0.1514 -0.3057
21745W        W38219  10.236   0.442  10.518  0.0571 -0.6787 -0.1126
21746W        W38220   3.716   5.139   4.564 -0.0128  0.1916 -0.0739
21747W        W38221   9.777  13.814   0.177  0.0130  0.0109 -0.0654
21748W        W38222   8.254  17.001   0.524  0.0604  0.1168 -0.0184
21749W        W38223  11.485  11.772  12.811 -0.1597 -0.1352  0.1052
21750W        W38224  10.749   7.910   1.549 -0.0273 -0.2231  0.0698
21751W        W38225  13.951  19.571  13.887 -0.0807  0.1983  0.0075
21752W        W38226  10.110   4.401  13.694  0.0584  0.2576  0.3633
21753W        W38227   4.368  11.713  12.272 -0.1978  0.3162  0.1252
21754W        W38228  10.748   9.332  11.269 -0.1505 -0.3216  0.2227
21755W        W38229  18.031  13.991  11.684  0.1237 -0.0039  0.0893
21756W        W38230   7.273   8.043   1.406 -0.1240  0.0267 -0.0981
21757W        W38231   9.510  17.176  12.055 -0.0796 -0.0296  0.2062
21758W        W38232   1.553   0.084   0.232 -0.1910  0.3820 -0.0977
21759W        W38233  12.117  18.492   2.264 -0.3098  0.0188  0.3125
21760W        W38234   0.840  11.824   3.899 -0.0292  0.0084 -0.2974
21761W        W38235   9.450   4.669   1.905 -0.0454  0.0808  0.0356
21762W        W38236  12.525  16.735  11.352  0.2450 -0.1280 -0.0084
21763W        W38237  19.058   6.983   2.806 -0.2449 -0.1693 -0.0860
21764W        W38238   9.494  10.777   1.705 -0.1779  0.1751 -0.3762
21765W        W38239  14.426   3.742  14.605 -0.0540 -0.0471  0.1285
21766W        W38240  13.743   7.658  11.281  0.0939  0.0957 -0.2672
21767W        W38241   3.914  12.147  13.654  0.1046  0.0022 -0.0399
21768W        W38242   4.007  15.796  10.376  0.0254  0.0354  0.2582
21769W        W38243   3.735  13.140  10.515 -0.0063  0.3382 -0.0948
21770W        W38244   7.624  16.753   3.677  0.4176  0.2499  0.0101
21771W        W38245   1.008   1.666   1.025 -0.1105 -0.2030 -0.1705
21772W        W38246  18.814  16.869   3.160 -0.0142 -0.2039  0.0270
21773W        W38247   3.356   0.822  10.238 -0.3339 -0.0536 -0.0591
21774W        W38248   3.813   6.219  14.546  0.1211  0.1312  0.0050
21775W        W38249   8.394  19.250   3.685 -0.1040 -0.1328 -0.0349
21776W        W38250   8.075   7.861  12.991 -0.1063 -0.1813 -0.1027
21777W        W38251  15.554  12.440   3.980  0.0740 -0.0686  0.1473
21778W        W38252  11.829   8.063  11.227  0.0607 -0.0396  0.1864
21779W        W38253  18.585   8.125   4.002 -0.2497 -0.0342  0.0280
21780W        W38254  16.799   7.063  13.549 -0.1337 -0.0406 -0.1265
21781W        W38255  10.170   2.113   0.974  0.2706 -0.2331 -0.0617
21782W        W38256  13.229   3.346   4.452 -0.0864 -0.2669 -0.0084
21783W        W38257  12.998  18.062  14.183 -0.2617  0.3072  0.0746
21784W        W38258  15.266   1.046  10.858 -0.2615 -0.3385 -0.1283
21785W        W38259  17.064  17.986   1.058  0.1340  0.0623 -0.2052
21786W        W38260  11.924   2.575  12.815  0.1167  0.0991 -0.1263
21787W        W38261   6.289   7.253   1.638  0.2685  0.0202  0.0824
21788W        W38262  12.648   7.578   2.374  0.0324 -0.1239  0.0946
21789W        W38263  19.220   7.506  11.977 -0.1541 -0.2603 -0.1949
21790W        W38264  13.533  16.489  12.718 -0.0242 -0.0247 -0.4128
21791W        W38265  12.959   8.786   2.927 -0.0761 -0.0988 -0.0953
21792W        W38266  16.542   8.331   5.050 -0.1859 -0.3430 -0.0067
21793W        W38267   5.288   7.096   2.949 -0.0202 -0.0938 -0.0114
21794W        W38268   6.397   8.086   0.079 -0.1442 -0.2133 -0.0402
21795W        W38269  11.184  18.919  12.982  0.0678  0.0932 -0.1316
21796W        W38270   1.523   2.493   0.165  0.0507 -0.1093 -0.2662
21797W        W38271  11.045  11.877   4.095  0.1314  0.0841  0.0326
21798W        W38272  17.229  15.187   5.739 -0.0411  0.0518 -0.1937
21799W        W38273  16.292  17.629  12.576 -0.4126  0.2257 -0.3663
21800W        W38274  16.218  19.162  14.244 -0.2107 -0.0854  0.0380
21801W        W38275   3.673   1.142   4.774 -0.1772  0.2140  0.2362
21802W        W38276  15.337  19.468   4.250  0.0490 -0.0625 -0.0799
21803W        W38277  18.615  18.873  13.497 -0.1480 -0.1208 -0.0654
21804W        W38278   8.425  16.412   3.418  0.3866 -0.2899 -0.0355
21805W        W38279  11.235  11.164  12.219  0.2208 -0.1271  0.1871
21806W        W38280  13.785  18.202  14.329  0.1375 -0.2967 -0.0390
21807W        W38281   0.356   3.788   9.934 -0.1038  0.2458  0.2413
21808W        W38282  12.250   0.482  11.102  0.2403  0.2783 -0.0534
21809W        W38283  12.112  19.501  14.541 -0.1615  0.1918 -0.1590
21810W        W38284  15.502   5.382  13.443  0.1502 -0.0040 -0.0654
21811W        W38285   1.763   6.660   1.143 -0.0364 -0.0088 -0.0092
21812W        W38286   1.895   5.673   2.171 -0.2927 -0.1556 -0.4182
21813W        W38287   3.468  16.039   4.481  0.0978 -0.0457 -0.1078
21814W        W38288  12.651  10.045  14.143  0.2039 -0.6289 -0.0061
21815W        W38289  12.131  15.097  10.859 -0.0101  0.1171 -0.0454
21816W        W38290   4.254   0.419  12.681 -0.0309 -0.1045 -0.2030
21817W        W38291   9.382   3.032   9.947 -0.1224 -0.1449 -0.4458
21818W        W38292   7.255   7.298  12.757  0.2510  0.3386 -0.1547
21819W        W38293   0.889  11.726   4.444  0.1219 -0.0853 -0.1191
21820W        W38294  13.954  12.422  13.071  0.1110 -0.1022 -0.0153
21821W        W38295  12.276   9.398  12.802 -0.0224 -0.3356 -0.2621
21822W        W38296   6.216   9.995  11.246  0.1150  0.0774  0.2569
21823W        W38297  17.938  10.952  10.853 -0.3721  0.0851  0.0445
21824W        W38298   5.086   0.109  12.794  0.0303  0.0240 -0.2080
21825W        W38299   1.534   2.427   1.224  0.0149  0.4542 -0.0880
21826W        W38300  10.124   2.294  12.539  0.2767 -0.0074 -0.2008
21827W        W38301   2.856   5.450  10.171 -0.0109 -0.1461 -0.1979
21828W        W38302  15.090  12.442   3.789 -0.0250  0.2471  0.0012
21829W        W38303   7.050   6.426   4.885 -0.3168  0.2532 -0.0870
21830W        W38304   8.312   0.813   0.187 -0.0499 -0.2841  0.2230
21831W        W38305  18.709   0.550  13.303  0.3274 -0.2602  0.1782
21832W        W38306   9.858   9.101   5.089  0.2833 -0.0986 -0.1315
21833W        W38307  11.099   4.984   1.599 -0.5734  0.1198  0.1667
21834W        W38308  11.442   6.725  14.554 -0.5813  0.0974  0.2071
21835W        W38309   3.119   9.149  10.494  0.0317  0.2083  0.0742
21836W        W38310  12.118  14.727   3.649  0.3952  0.1344  0.0266
21837W        W38311  18.540   8.072   1.523 -0.3552  0.3137  0.2936
21838W        W38312  11.727  16.594   9.902 -0.0173 -0.2533 -0.0740
21839W        W38313  15.964  19.396  12.446  0.3275  0.1968 -0.2280
21840W        W38314   5.445  13.636   4.626 -0.2076 -0.2159  0.1532
21841W        W38315  15.957  10.497   0.708  0.2646  0.1752  0.3266
21842W        W38316   1.782   7.251  12.018  0.0918 -0.3955  0.0905
21843W        W38317  16.184  14.929   2.607 -0.0092  0.0557  0.1173
21844W        W38318   6.659   0.793  10.203  0.0364 -0.0870  0.0384
21845W        W38319   4.964   7.114  14.392  0.2377  0.2175  0.1170
21846W        W38320  10.122   2.125   4.093  0.0580 -0.4766 -0.0147
21847W        W38321  18.244   1.256  14.553 -0.1948 -0.0184 -0.1503
21848W        W38322  16.102   0.396   2.136 -0.1708 -0.1145  0.1065
21849W        W38323  14.791   0.535  10.445 -0.0252 -0.0709 -0.1869
21850W        W38324  13.993  17.682   0.412 -0.2886  0.0335 -0.1559
21851W        W38325  18.846  14.454   1.942  0.0988  0.0306 -0.0654
21852W        W38326  18.048  15.761   2.793  0.0077 -0.3439 -0.1607
21853W        W38327   7.840  10.972   4.625  0.1741 -0.0570  0.1125
21854W        W38328  11.062  14.815   1.904 -0.0037  0.1333 -0.0478
21855W        W38329  14.712  18.122   3.657 -0.0726  0.1148  0.0407
21856W        W38330  18.156   7.445  10.137 -0.2052  0.0103  0.3750
21857W        W38331   6.664   2.027   4.172 -0.0329 -0.0347 -0.1601
21858W        W38332   6.178  14.671  10.708 -0.0888 -0.1771 -0.0583
21859W        W38333  15.522  10.219   2.779 -0.0426 -0.0991  0.3410
21860W        W38334  15.372   8.606  10.299  0.0383 -0.0736 -0.0629
21861W        W38335  13.777   5.036  11.418 -0.1616  0.0880  0.0756
21862W        W38336  10.350   2.035  13.745 -0.0843  0.0649  0.1698
21863W        W38337  14.679   9.105   3.370  0.0751  0.0172 -0.2107
21864W        W38338   0.660  10.323   2.903  0.1114  0.1905  0.0597
21865W        W38339   1.723   3.400   0.213  0.0336  0.1268  0.1540
21866W        W38340  12.851   1.564   4.254 -0.2140  0.3862  0.0071
21867W        W38341  13.191  18.961   3.738  0.1524  0.0556 -0.3819
21868W        W38342  17.043  15.144  12.317  0.1795 -0.3972  0.1249
21869W        W38343   5.481  10.729  13.858  0.0277  0.0482 -0.2365
21870W        W38344  16.545  17.039   0.809 -0.1789  0.1050  0.0388
21871W        W38345  18.455   1.374   1.465 -0.2573 -0.2307 -0.3435
21872W        W38346   4.516  14.748  10.062  0.2201  0.0775 -0.2289
21873W        W38347  10.924   5.863  14.476 -0.0882 -0.2223 -0.4252
21874W        W38348   0.620  15.293   3.680 -0.2416  0.0001 -0.1810
21875W        W38349   9.276  19.059   0.579 -0.3327  0.2147 -0.0359
21876W        W38350  12.301  19.070  11.089 -0.1240  0.2580  0.0404
21877W        W38351   4.947  12.520  10.084 -0.1850 -0.1715 -0.0899
21878W        W38352  13.848   4.802   4.776 -0.1214  0.1247  0.0529
21879W        W38353   7.485  19.392   0.840 -0.0779 -0.1055 -0.4680
21880W        W38354  12.428  11.789  10.747 -0.3887  0.2862 -0.0550
21881W        W38355   5.310  13.728  13.918  0.0825 -0.1861  0.1801
21882W        W38356  14.543  10.300  13.013  0.2279  0.4095  0.0095
21883W        W38357   3.364   6.494   0.107 -0.1343  0.1876 -0.1074
21884W        W38358  16.056   1.662  11.916  0.1918 -0.2949  0.0067
21885W        W38359  15.408   9.393  13.495 -0.1258 -0.0128  0.1145
21886W        W38360   3.773   8.300  12.865 -0.4127  0.2212 -0.0622
21887W        W38361   2.730  18.870   3.365  0.3810  0.2067  0.0196
21888W        W38362   2.769  16.856   9.876 -0.1649  0.2436  0.1844
21889W        W38363  12.876  10.637   0.603  0.0710 -0.3596 -0.3159
21890W        W38364  14.591   8.053  12.117 -0.1410  0.1568  0.1741
21891W        W38365  10.001   5.362  14.398 -0.1893  0.0190  0.1624
21892W        W38366   2.746   1.885  11.220 -0.1305  0.0196 -0.2909
21893W        W38367   8.651   1.973   3.613  0.0117  0.0952 -0.0482
21894W        W38368   3.327  16.854   2.969 -0.1010 -0.1413  0.3012
21895W        W38369   4.530  16.176  14.564 -0.1432  0.0397  0.0763
21896W        W38370   6.622  13.536   9.760 -0.1815 -0.2236  0.2335
21897W        W38371   3.523   4.771  13.067  0.2210 -0.2571 -0.1687
21898W        W38372   9.450   7.190  10.507  0.0675  0.0388 -0.1270
21899W        W38373   5.734   6.613  10.309  0.0442  0.1078  0.1270
21900W        W38374  17.094  18.763   4.903  0.2435  0.2599  0.0117
21901W        W38375   3.528   4.248  12.731 -0.0446  0.0210 -0.1999
21902W        W38376   5.118  14.728   2.980 -0.0138  0.0859 -0.0921
21903W        W38377  17.817   0.899   8.935 -0.1899 -0.1993 -0.1920
21904W        W38378  11.135   0.321  13.919  0.0139 -0.0106  0.0875
21905W        W38379  16.534  16.889  11.330  0.0559 -0.2006 -0.0470
21906W        W38380  19.085  13.471   5.278 -0.1283  0.2553  0.3609
21907W        W38381  18.094   3.478   0.106  0.1253  0.1806 -0.1229
21908W        W38382  10.519  12.817   0.985 -0.0626 -0.4841 -0.1105
21909W        W38383  19.515   4.507   0.171 -0.0992  0.2406  0.0046
21910W        W38384   5.927   2.416  11.742  0.1131 -0.0999 -0.0907
21911W        W38385   1.791   4.576   3.948  0.0336 -0.1157 -0.4286
21912W        W38386  16.664   4.544   4.211 -0.2429  0.1557  0.1998
21913W        W38387   8.222   8.693  13.539  0.0885  0.0114 -0.1201
21914W        W38388   4.869   2.296  12.181  0.1499  0.2340  0.2990
21915W        W38389   8.255  17.016   1.713 -0.2145 -0.1203 -0.0490
21916W        W38390   0.564   0.761   3.352 -0.3768  0.1798 -0.3794
21917W        W38391   9.469  19.421  12.006 -0.2809 -0.0345  0.4544
21918W        W38392   3.235  12.581   0.262  0.2578 -0.0334  0.0681
21919W        W38393  11.571   2.085  11.353  0.0464  0.0212 -0.0963
21920W        W38394  13.264  18.756   2.976 -0.2613  0.0139 -0.4726
21921W        W38395   7.943   6.885   4.852 -0.2050 -0.1837  0.1867
21922W        W38396   2.244  17.744   3.871  0.1117 -0.0880 -0.2921
21923W        W38397   5.043  18.351  13.412  0.1730 -0.1750 -0.2337
21924W        W38398  11.445   7.419   3.978 -0.0070  0.0365 -0.0817
21925W        W38399  11.265   9.522  13.840 -0.2451 -0.2902  0.0252
21926W        W38400  11.737  12.082   3.693  0.0647 -0.0175 -0.3506
21927W        W38401   6.516   0.889   2.984  0.0469  0.3833 -0.1761
21928W        W38402  17.660  18.870  12.872  0.4167 -0.0005 -0.0141
21929W        W38403   4.694  10.387   3.689  0.0118 -0.1341 -0.0674
21930W        W38404   0.009   3.863   2.425 -0.0176  0.1812  0.3035
21931W        W38405   5.377   1.752  12.190  0.3056  0.4014 -0.5353
21932W        W38406   1.857   0.006  12.270 -0.0754 -0.0201 -0.0375
21933W        W38407   1.662   2.162   3.643 -0.2073  0.2558  0.2470
21934W        W38408  17.514   6.877  12.725  0.1252  0.1767  0.0973
21935W        W38409  13.798   8.491   2.460  0.0694  0.1279 -0.3298
21936W        W38410  11.601  14.981  12.035  0.0491  0.0832 -0.0457
21937W        W38411   4.880   5.002   3.613 -0.1566 -0.0648 -0.1662
21938W        W38412   0.020  19.159  13.101 -0.0107 -0.3083  0.2600
21939W        W38413   6.130  12.372  12.850  0.1155  0.1909  0.0509
21940W        W38414   6.785   8.512   0.552 -0.0734 -0.0339 -0.0706
21941W        W38415   3.889  13.756   2.038 -0.0705 -0.0267 -0.0292
21942W        W38416  11.504  17.219   0.121  0.0882  0.0880  0.6280
21943W        W38417  18.437   6.922   2.665 -0.1705  0.1483  0.1142
21944W        W38418   0.858  17.207   0.610  0.0013 -0.1840  0.0978
21945W        W38419  14.073  11.790   4.904  0.1005 -0.1379  0.1298
21946W        W38420  10.825   5.390   3.775  0.1650 -0.4465 -0.1781
21947W        W38421  15.977  10.991   4.238 -0.1907 -0.1198  0.2956
21948W        W38422  19.011  17.195  12.658 -0.1269 -0.1207  0.3424
21949W        W38423  14.312  18.641  12.981  0.1822 -0.0716 -0.3186
21950W        W38424  10.649   5.068   1.481  0.0476  0.0050 -0.2254
21951W        W38425   9.435   2.847   3.997  0.1729  0.0923  0.1890
21952W        W38426   1.125  15.586   2.906  0.0894  0.2806 -0.0903
21953W        W38427   8.951  12.170   4.491  0.2178  0.1182  0.1008
21954W        W38428  11.403   3.318  14.575 -0.1336 -0.0855  0.1424
21955W        W38429   1.173  18.482  10.810 -0.0734 -0.0791 -0.0271
21956W        W38430   5.512   0.254   1.057  0.2554  0.1117 -0.2599
21957W        W38431   6.671  12.093  11.747  0.0276  0.0245 -0.1193
21958W        W38432  13.942   7.892  12.950 -0.0370 -0.0890 -0.0334
21959W        W38433  11.771   7.897   2.468  0.0789  0.1627 -0.2477
21960W        W38434   0.338   3.151   0.518  0.2757 -0.0619  0.1271
21961W        W38435   8.001  18.454   3.699 -0.1035  0.0425  0.0452
21962W        W38436  12.959   8.654  12.721  0.1648  0.2352 -0.1075
21963W        W38437   7.121   8.676   2.861 -0.0051 -0.0300 -0.0240
21964W        W38438  13.824  15.166   4.279  0.0198  0.0435 -0.1297
21965W        W38439  18.220   7.835   0.497 -0.2534  0.0636 -0.0274
21966W        W38440   1.266   5.670   3.449 -0.0227 -0.2162 -0.0001
21967W        W38441   2.294   0.157  10.892 -0.2273 -0.1499  0.1816
21968W        W38442   2.128  16.112  10.654  0.2859 -0.3292 -0.1674
21969W        W38443   9.200  17.207   3.915 -0.1187  0.5026  0.0894
21970W        W38444   7.989   9.153   3.456 -0.1511 -0.2028  0.1157
21971W        W38445   7.912  18.268  14.305 -0.1229 -0.0569 -0.2847
21972W        W38446  11.346  17.165   3.421 -0.0103  0.2204  0.0009
21973W        W38447  18.284   5.634   2.426  0.2867  0.0721  0.1949
21974W        W38448   8.504  13.703  14.002  0.0403  0.0266  0.1300
21975W        W38449   7.572   1.037  13.137 -0.0553 -0.0049  0.0491
21976W        W38450  13.968  16.196   2.061  0.0052 -0.5159  0.0072
21977W        W38451  18.098  17.772   5.325 -0.1229 -0.2922 -0.1310
21978W        W38452   5.212  18.630   3.744  0.1145 -0.4626 -0.0443
21979W        W38453  17.128   2.321   0.259  0.2239 -0.0442  0.2019
21980W        W38454  10.523  13.203  13.708  0.0427  0.0026  0.0611
21981W        W38455   5.264   4.305   4.583 -0.2508  0.3729  0.0094
21982W        W38456  19.396  11.487   2.095 -0.1364  0.0291 -0.0204
21983W        W38457  10.850  16.847   9.865  0.0249  0.4263  0.0229
21984W        W38458  18.740  16.948   2.084 -0.4524 -0.2856  0.0613
21985W        W38459   1.277  12.977  14.122  0.2919 -0.0137  0.0413
21986W        W38460   6.879   1.772   3.179 -0.0148 -0.0739  0.0164
21987W        W38461   4.163  15.797   1.694  0.1384 -0.0561  0.1256
21988W        W38462   4.112  18.769   0.078 -0.1461  0.1231 -0.1895
21989W        W38463   4.489   8.716  10.452 -0.2263  0.2517 -0.2310
21990W        W38464   9.780   0.979   2.652 -0.0234 -0.0087  0.0384
21991W        W38465   9.557   7.119   1.849  0.4222 -0.3457 -0.1238
21992W        W38466   4.476   0.229   0.482 -0.3330  0.1162  0.2494
21993W        W38467   2.001  10.284   5.610 -0.0633 -0.1508  0.2672
21994W        W38468  12.529  17.119  10.599 -0.4193 -0.1970  0.2233
21995W        W38469   6.277  15.946   0.581  0.0591 -0.3463 -0.0246
21996W        W38470  17.495   8.210   3.073 -0.0919 -0.0214 -0.3802
21997W        W38471   6.989   6.277   2.561 -0.1179  0.1106 -0.0578
21998W        W38472  18.814  14.543  12.587  0.1983 -0.0846  0.1962
21999W        W38473   8.304  12.113  12.896  0.3038 -0.1274  0.0240
22000W        W38474   8.449   2.105  13.134  0.2995 -0.2807  0.0131
22001W        W38475  14.574   1.335   4.451 -0.2119 -0.1093  0.0708
22002W        W38476  13.088  13.259   0.162 -0.1651  0.2532 -0.0214
22003W        W38477  14.588   0.425  14.153 -0.2124  0.2023  0.2333
22004W        W38478   5.988  17.891  11.876 -0.2256 -0.0816  0.2679
22005W        W38479  12.532   6.877   1.772  0.1448 -0.3401 -0.1764
22006W        W38480   3.550  11.482  11.577 -0.1765  0.0774  0.2409
22007W        W38481  10.798   4.981   2.326  0.2546  0.1506  0.2690
22008W        W38482   8.430  11.247  11.274  0.3056  0.0214 -0.1054
22009W        W38483   9.965  17.422  11.871  0.0147 -0.1733 -0.2235
22010W        W38484   2.106  19.379   3.729 -0.0185  0.6166  0.0634
22011W        W38485  13.394   0.538  12.459  0.1081  0.3108  0.1125
22012W        W38486  12.864  18.669   0.089  0.1141 -0.1186  0.2872
22013W        W38487   0.861   2.977   1.869  0.2394 -0.2799 -0.0044
22014W        W38488  14.698  10.740  11.898 -0.3943 -0.0025  0.0851
22015W        W38489   3.913  15.527  11.271 -0.0362  0.1478  0.0451
22016W        W38490  16.619   0.470  10.434 -0.1608 -0.0282 -0.2374
22017W        W38491   3.649   7.366  14.536  0.0688 -0.0313  0.4314
22018W        W38492   9.368   3.713   4.624  0.1554  0.1771 -0.0298
22019W        W38493   6.932   0.778  13.982 -0.1759 -0.1919  0.2234
22020W        W38494  10.382   1.242   4.022  0.2816  0.2815  0.3235
22021W        W38495   6.285  13.436  13.604  0.1972  0.3066  0.2253
22022W        W38496  16.838  19.309   4.141 -0.0511  0.1219 -0.0219
22023W        W38497   3.762   3.224  14.050  0.2541 -0.0471  0.2841
22024W        W38498   5.069  13.431   2.937  0.0204 -0.2212  0.1150
22025W        W38499   5.359  13.098   1.789 -0.0823 -0.1199  0.1028
22026W        W38500   4.320  17.822   1.144 -0.2496 -0.0049 -0.1586
22027W        W38501  15.556  13.425  12.126  0.2239  0.1346 -0.0506
22028W        W38502   6.440   3.191  14.704  0.1392 -0.3507 -0.0646
22029W        W38503  13.967   7.594   1.870 -0.1726 -0.0332  0.1363
22030W        W38504  12.183   7.782  14.099 -0.2037 -0.0067  0.0702
22031W        W38505  18.284  16.519  14.136 -0.0712  0.0460 -0.0945
22032W        W38506  17.519   5.740   2.791  0.0302 -0.1029 -0.1299
22033W        W38507   4.607  13.619   3.676  0.1211 -0.0165  0.1132
22034W        W38508   8.148  16.658  10.934 -0.0015 -0.1825  0.0851
22035W        W38509   7.955  14.641   4.175 -0.1467 -0.2971  0.0206
22036W        W38510  10.074   8.759   4.400 -0.0710  0.0432 -0.0605
22037W        W38511  15.226   0.694   1.817 -0.2041 -0.5480 -0.2729
22038W        W38512   8.003   4.254  11.235 -0.1637 -0.2602 -0.2953
22039W        W38513   1.449  10.539   4.714 -0.0638  0.1580 -0.2772
22040W        W38514   9.589   0.501   0.516  0.0117 -0.0719  0.0317
22041W        W38515  16.626   9.173  11.630 -0.0468 -0.1546  0.0180
22042W        W38516   1.156  16.875   4.794 -0.1671 -0.1409  0.0830
22043W        W38517   3.410  11.867   2.974 -0.0163  0.1283  0.0200
22044W        W38518  11.202  15.583   2.452  0.1407 -0.0776  0.0614
22045W        W38519  12.830   1.264   2.494 -0.2531  0.0886  0.0692
22046W        W38520   2.702   8.165  14.348 -0.1847 -0.1857 -0.0084
22047W        W38521   4.412  15.205  11.762  0.0398 -0.0105 -0.0927
22048W        W38522  15.426   2.550   0.025  0.0318 -0.5668  0.1148
22049W        W38523   3.634   0.868   2.693  0.3253 -0.1518  0.0497
22050W        W38524  16.902  15.251  14.367  0.1514  0.2140 -0.0185
22051W        W38525  10.856  14.791  10.367  0.1097  0.0106  0.4231
22052W        W38526  14.882  15.855  11.787 -0.0223  0.1318 -0.0872
22053W        W38527  11.647  11.708   2.760 -0.0364 -0.0345 -0.3772
22054W        W38528   6.618   5.114  13.333  0.0234 -0.2234 -0.2265
22055W        W38529  19.125  18.743   1.070 -0.2122  0.2046 -0.3466
22056W        W38530   3.182  16.285  12.764  0.3493 -0.0506 -0.0544
22057W        W38531   5.661  12.945  13.257  0.0263  0.0518  0.3789
22058W        W38532  18.475  17.867  14.569  0.0431  0.2225  0.1721
22059W        W38533   1.961   1.657  13.090  0.0304 -0.2148  0.2489
22060W        W38534   3.802   8.148  12.009 -0.4591 -0.0871 -0.0283
22061W        W38535  15.127   7.562  10.445 -0.1845  0.3107 -0.2042
22062W        W38536  14.600   1.950  13.624  0.1489 -0.4463 -0.3268
22063W        W38537  11.816   0.531  12.871  0.0837  0.2153  0.0472
22064W        W38538   3.671   0.039  10.940 -0.1050  0.0214  0.3348
22065W        W38539   8.674   8.672   2.105 -0.0277 -0.0172 -0.0105
22066W        W38540  16.530  17.974  14.313  0.0797 -0.1128  0.4480
22067W        W38541   3.419   1.692  11.807 -0.2361  0.0353 -0.1119
22068W        W38542   8.762   8.551  11.179  0.1640  0.0250  0.0994
22069W        W38543  17.350   7.389  12.063  0.2388  0.1965  0.1446
22070W        W38544   5.665  19.067   4.564 -0.1778 -0.2759  0.1627
22071W        W38545   8.839  18.609  12.011  0.3090  0.3128 -0.0642
22072W        W38546   8.965  10.124   0.172 -0.5104  0.0939 -0.1810
22073W        W38547  13.243  14.029   0.161 -0.2850 -0.0691  0.1162
22074W        W38548  11.824   0.670   1.419 -0.4100  0.0213 -0.3358
22075W        W38549  12.343  19.212  10.396 -0.3298 -0.3782  0.2125
22076W        W38550  13.922   3.809  14.531 -0.1155  0.0122  0.0637
22077W        W38551   3.228   6.393   0.902  0.0266  0.0146  0.1203
22078W        W38552   2.953  13.824   2.855  0.0926  0.0795  0.1736
22079W        W38553   8.888   1.563   1.258 -0.3779 -0.1395 -0.0283
22080W        W38554   8.271   8.594  11.983 -0.1964 -0.1229 -0.0795
22081W        W38555   6.502   2.266   1.522  0.2042  0.0210 -0.0881
22082W        W38556  19.398   1.992  10.805  0.1260 -0.0463 -0.1112
22083W        W38557  17.075  14.902  10.415 -0.0447 -0.0722 -0.1083
22084W        W38558   3.144   3.620   1.367  0.1974 -0.0704 -0.3939
22085W        W38559   2.253  17.477  11.879 -0.2183  0.3615  0.0032
22086W        W38560   0.634   0.273   4.550  0.1133  0.1199 -0.1631
22087W        W38561   1.334   8.695  12.564 -0.4455  0.0751  0.3479
22088W        W38562   4.603  11.202   3.305 -0.2244 -0.1638  0.0079
22089W        W38563  11.309  10.552   2.095  0.0038 -0.2185 -0.0647
22090W        W38564  18.157  13.752   9.892 -0.0255 -0.1817 -0.0661
22091W        W38565   4.525   7.638   0.730  0.0127 -0.0956 -0.0426
22092W        W38566  11.680   9.529  12.101  0.2520 -0.1986 -0.0040
22093W        W38567   6.870  14.708  13.051 -0.0447 -0.4140 -0.2182
22094W        W38568  13.994   7.597  10.619 -0.1851  0.0215  0.0568
22095W        W38569   3.399  19.517   4.285  0.0443  0.1042 -0.0268
22096W        W38570   8.181   4.095   1.497 -0.1598  0.3606  0.0167
22097W        W38571  17.309   6.135   1.280 -0.0883 -0.0817  0.0961
22098W        W38572   5.357   7.857   1.045 -0.0583  0.2509 -0.0816
22099W        W38573  14.940  15.681  13.690 -0.2585  0.2623 -0.1976
22100W        W38574   1.367   9.810   1.048 -0.1095  0.2245  0.3026
22101W        W38575  17.894   1.347   1.092  0.0164 -0.3557  0.1475
22102W        W38576   2.728  17.631   4.152 -0.0227  0.0650 -0.4952
22103W        W38577  15.032   8.250  13.598 -0.1706  0.1831 -0.2983
22104W        W38578  16.978   4.595  14.636 -0.1693  0.2135 -0.0611
22105W        W38579   3.456   3.562  14.247  0.1437  0.0040  0.1016
22106W        W38580   0.853  13.867  11.779 -0.0120  0.0528  0.2490
22107W        W38581   3.756   5.320   3.601 -0.1722 -0.4773 -0.1272
22108W        W38582  19.462   9.854  12.586  0.1303  0.0312 -0.2117
22109W        W38583   1.271  11.468   4.798  0.0236  0.2025  0.3397
22110W        W38584  17.947  17.471   4.160  0.1594  0.1359 -0.1598
22111W        W38585  13.411  17.194   4.983 -0.0870  0.0752 -0.1422
22112W        W38586  16.235   7.397   3.884 -0.0050 -0.1552 -0.2397
22113W        W38587   9.217  14.098  13.001  0.0738 -0.0077  0.2960
22114W        W38588   7.970   8.159  14.369  0.0376  0.0419  0.0252
22115W        W38589   2.424  10.276  13.076  0.1579 -0.0491 -0.1013
22116W        W38590   4.942  15.620   2.212  0.1919 -0.0244  0.5539
22117W        W38591   5.038  16.711   3.612  0.0489 -0.1774 -0.3063
22118W        W38592   9.410  15.351   4.067 -0.1544  0.3364  0.1395
22119W        W38593  16.880  16.506  13.524  0.0383 -0.0595 -0.1804
22120W        W38594  13.681   5.032   0.997 -0.0699  0.1220 -0.1561
22121W        W38595   0.999   9.042   1.662  0.0087  0.0159  0.0454
22122W        W38596  14.497  12.137  14.041  0.2671 -0.4876  0.0614
22123W        W38597   7.870   0.841  10.341  0.0405  0.1299  0.0894
22124W        W38598   3.438   0.151   0.125  0.2786 -0.1014  0.2006
22125W        W38599  10.500   0.283   9.663 -0.0308 -0.0333 -0.0615
22126W        W38600   4.030   3.831   1.540  0.0068  0.1128  0.0141
22127W        W38601  11.891  19.211  13.474 -0.1127 -0.3022  0.0069
22128W        W38602   4.998   0.684  11.686 -0.0454  0.1099  0.0875
22129W        W38603   2.536   2.682  12.802 -0.2414 -0.0978  0.1975
22130W        W38604   9.918   0.343   3.800 -0.3109  0.3554  0.0051
22131W        W38605  10.291  14.542  12.747 -0.2282  0.2339  0.0367
22132W        W38606  17.743   6.810  10.863  0.0477  0.0261 -0.1114
22133W        W38607   8.775  16.127   5.170  0.3692 -0.0346  0.3759
22134W        W38608  13.914   8.207   1.550  0.0865  0.4337  0.1401
22135W        W38609  15.359  15.434   9.726  0.1123 -0.3060  0.2672
22136W        W38610   2.737  12.436   0.236  0.1461 -0.0096 -0.0359
22137W        W38611  10.370  19.138  10.297  0.2255  0.2035 -0.0694
22138W        W38612   0.897   4.956  11.228  0.3014  0.0711 -0.3352
22139W        W38613   5.907   5.751  13.655 -0.2842  0.0851 -0.1128
22140W        W38614   7.216   5.666   3.848 -0.2506  0.0862 -0.1009
22141W        W38615   9.462   4.030  12.973  0.2864  0.0956  0.0129
22142W        W38616   6.062  12.348  13.935  0.1679  0.1690  0.0306
22143W        W38617  16.731  17.081   1.280  0.0546 -0.0717 -0.1960
22144W        W38618  16.104  12.495  10.188  0.0233 -0.0490  0.1789
22145W        W38619  13.555  19.211   2.201 -0.1705  0.0523 -0.1369
22146W        W38620   6.961  10.277  10.548 -0.0256  0.0855 -0.2956
22147W        W38621   8.115  18.119  12.519  0.1909  0.2398  0.1024
22148W        W38622   0.107   0.170  11.692  0.1734 -0.3969  0.0461
22149W        W38623   3.377   2.879   2.621 -0.3197  0.1264  0.4143
22150W        W38624   8.048   7.416   2.950 -0.3315 -0.2310 -0.2388
22151W        W38625   4.462  12.507  12.051 -0.2205 -0.0935  0.0979
22152W        W38626  14.113   1.657   0.921  0.1334  0.3292  0.3116
22153W        W38627  17.382  15.366  14.354  0.4038 -0.1796 -0.0641
22154W        W38628  14.376   4.057   0.849  0.0225  0.0544  0.0420
22155W        W38629  10.492  14.517  13.236 -0.4368 -0.0605  0.0728
22156W        W38630  10.883   9.482   2.922  0.0711  0.1327 -0.0463
22157W        W38631  19.441  15.824  10.369  0.1592 -0.1045 -0.0572
22158W        W38632  18.462  12.976  11.499 -0.1083 -0.1136 -0.4110
22159W        W38633   4.490   5.081   4.110  0.2025 -0.0474  0.2864
22160W        W38634   9.820  10.568   5.483 -0.0452  0.2052 -0.1163
22161W        W38635  16.294   6.869   0.282 -0.1940 -0.2095 -0.3112
22162W        W38636   2.200   3.270  12.255  0.0949  0.1215  0.1580
22163W        W38637  15.077   4.137  10.517  0.0167 -0.0037 -0.0934
22164W        W38638  15.293  13.443  14.180  0.2974  0.3180  0.3295
22165W        W38639  15.225  11.092  12.940 -0.1215  0.2394  0.2114
22166W        W38640   7.350   0.222  11.644 -0.0094 -0.1114 -0.0391
22167W        W38641  15.440   4.156  13.387 -0.0446  0.2158  0.1680
22168W        W38642  12.397   0.913  12.119  0.5511  0.0130 -0.1224
22169W        W38643   1.279   5.384  13.199  0.1114  0.0332  0.1954
22170W        W38644   0.527   0.455  11.533 -0.1144  0.1407  0.0364
22171W        W38645   7.742  15.821  10.691  0.0233 -0.1336 -0.1970
22172W        W38646   1.205  15.869  13.500 -0.2088  0.3266  0.1011
22173W        W38647   3.586  14.944   3.182 -0.0427 -0.1730  0.2780
22174W        W38648   2.110  18.678   2.457  0.0219 -0.1645  0.0099
22175W        W38649   4.113   4.322   3.661 -0.3046  0.0836  0.0516
22176W        W38650  13.566   7.331   1.102  0.3498 -0.1898 -0.0865
22177W        W38651   8.718  17.806   1.758  0.2047 -0.0416 -0.4930
22178W        W38652   2.551   5.280  14.244 -0.0723  0.0596  0.1404
22179W        W38653  17.149  18.836  13.116  0.1627 -0.0692  0.2435
22180W        W38654  16.784   5.067  14.397 -0.1603 -0.3041  0.1058
22181W        W38655   6.010  10.347  10.372  0.2238 -0.1339 -0.3647
22182W        W38656   8.425  10.461  13.752  0.0019  0.1581  0.1152
22183W        W38657   8.731  18.758   2.168 -0.0918  0.0682  0.2005
22184W        W38658  10.686   7.531  10.318  0.2186  0.0585 -0.2457
22185W        W38659   1.916   5.406  11.736  0.0260 -0.1938  0.2014
22186W        W38660   1.568   2.256  10.585  0.1056 -0.3729  0.2550
22187W        W38661  17.735  12.294   0.751  0.3019 -0.5525 -0.1564
22188W        W38662  15.762  16.045   1.720 -0.1355 -0.1209  0.1306
22189W        W38663  11.945   4.419  13.175 -0.2288  0.0088  0.0569
22190W        W38664   5.839  12.602   1.871 -0.1261  0.0930  0.1236
22191W        W38665  16.946  10.877   0.395 -0.2081  0.1659  0.0243
22192W        W38666   2.309   3.621  11.431  0.4275  0.2211 -0.2757
22193W        W38667   2.065   9.966   1.752  0.1142  0.1442 -0.0687
22194W        W38668   7.412   4.766   2.935 -0.1180 -0.0464  0.1062
22195W        W38669   7.551   2.142   1.419  0.0329 -0.1564 -0.0004
22196W        W38670  10.197  11.090  12.793  0.0718 -0.3418  0.4360
22197W        W38671   2.595  14.116   4.256 -0.0638  0.0340 -0.1615
22198W        W38672   1.337   7.599  12.276  0.1279 -0.0211  0.0007
22199W        W38673   7.180  10.381   0.120  0.2309 -0.1505 -0.2058
22200W        W38674  12.367  18.967  14.142  0.3321 -0.3108 -0.0202
22201W        W38675  16.728  19.312  14.099 -0.1159  0.2238  0.3199
22202W        W38676  16.146  11.067  10.794  0.0327  0.2369  0.1324
22203W        W38677   6.884   1.335   1.518 -0.2660 -0.1602 -0.0032
22204W        W38678   5.900  17.259  10.786 -0.1487 -0.1603 -0.2473
22205W        W38679  16.073  14.087  11.316 -0.1412  0.0060  0.0136
22206W        W38680   8.486  13.150  13.813  0.2392  0.1641 -0.0889
22207W        W38681  10.653   6.094   1.312  0.4193  0.0979 -0.1582
22208W        W38682  10.663  18.204  13.164  0.0935 -0.2747 -0.0733
22209W        W38683  18.488  13.874  10.807 -0.1698  0.0314  0.2330
22210W        W38684  17.173   0.279   2.026 -0.3676 -0.3271 -0.0656
22211W        W38685   7.730   6.797  10.225 -0.0753 -0.2012 -0.0322
22212W        W38686  17.087  17.688   0.295  0.0077  0.0289  0.2457
22213W        W38687   2.163   7.475   2.585 -0.1630 -0.0716 -0.4791
22214W        W38688   0.928   0.867   0.366 -0.1033 -0.1599 -0.0362
22215W        W38689  12.825  10.888   0.098  0.0577  0.1833  0.0322
22216W        W38690   1.966  12.253  12.894  0.2840 -0.1123  0.3664
22217W        W38691   0.026   2.394  14.218  0.2002  0.1519  0.0652
22218W        W38692  18.389  13.443   2.849  0.1505  0.1827  0.2312
22219W        W38693  12.029  17.779   0.380  0.0415  0.0628 -0.0641
22220W        W38694  14.429   8.145   1.444 -0.0636 -0.0294 -0.3467
22221W        W38695  15.482   0.004   1.454 -0.2468 -0.1268 -0.0504
22222W        W38696   6.618  13.405   0.526  0.1899  0.0735 -0.0503
22223W        W38697   2.231  11.633   4.365  0.0380  0.1742  0.1767
22224W        W38698   6.248  12.562   4.098  0.1964 -0.2674  0.3003
22225W        W38699   4.204   5.423  14.316 -0.0172 -0.0814  0.2567
22226W        W38700   4.556  19.337   3.087  0.0204  0.1198  0.1316
22227W        W38701   6.450   7.494   3.921  0.3090 -0.0737  0.1803
22228W        W38702   3.163   1.773  13.261 -0.1597 -0.1760 -0.1920
22229W        W38703   1.298  16.881   2.379 -0.0666 -0.0680  0.0467
22230W        W38704   4.933  15.153  13.099 -0.0412  0.2132  0.3377
22231W        W38705  16.177  10.103   0.581 -0.0592 -0.3847 -0.2472
22232W        W38706   2.994  18.758  12.662  0.0718 -0.3270  0.1963
22233W        W38707   6.476  13.039  11.048 -0.1354 -0.2286 -0.3687
22234W        W38708   6.310   5.469   2.663  0.1678  0.0426 -0.0206
22235W        W38709  15.335  10.369   0.563  0.2203 -0.2501  0.2849
22236W        W38710  16.140   1.983   4.802 -0.2851 -0.0709  0.3080
22237W        W38711  11.622   2.654   5.594  0.2814  0.1685 -0.0539
22238W        W38712  18.006  14.641   0.908 -0.0986  0.2214 -0.2218
22239W        W38713   1.508   5.673  12.558 -0.1671  0.2683 -0.2503
22240W        W38714  15.855  17.299  11.829 -0.1173  0.2252  0.2022
22241W        W38715   7.063   0.075  10.443  0.3572  0.2691  0.0248
22242W        W38716   8.639  14.578  13.856 -0.0286  0.2134  0.3625
22243W        W38717   0.267   7.395   0.363 -0.0484 -0.1830  0.2090
22244W        W38718  17.825  11.675   3.556  0.0551 -0.0165 -0.0669
22245W        W38719   1.458  16.164  11.906  0.5407 -0.5053  0.2358
22246W        W38720  14.771   3.734   3.662  0.0328  0.0252 -0.0710
22247W        W38721   3.000  15.235   4.261 -0.1160 -0.0638 -0.2169
22248W        W38722   4.706   2.836  12.242 -0.2402  0.0546 -0.0875
22249W        W38723   6.118  14.160  11.803 -0.0279  0.3276  0.0678
22250W        W38724  17.982   0.974  12.202 -0.1827  0.3473 -0.0869
22251W        W38725  17.248   9.290   4.230 -0.2371  0.1127 -0.0753
22252W        W38726  15.616   2.232   2.054  0.0446  0.1300 -0.1530
22253W        W38727  17.358  16.290  11.218  0.2680 -0.0773  0.0917
22254W        W38728   7.515  15.427  10.373 -0.2636 -0.1684 -0.0563
22255W        W38729   0.371  10.829  11.217  0.2954  0.1550  0.0767
22256W        W38730  13.634  10.445   0.055 -0.1236  0.4794  0.3974
22257W        W38731   7.252   6.040   3.470  0.1550 -0.2110  0.0987
22258W        W38732   6.396  11.258   2.153 -0.0091 -0.2106 -0.1465
22259W        W38733  13.900   2.998  11.176 -0.1307  0.0728 -0.1298
22260W        W38734   4.559   5.919   5.230 -0.1931  0.1366  0.0221
22261W        W38735   6.354  18.570  14.007 -0.2346  0.2815  0.0600
22262W        W38736   9.141   6.941   2.704  0.0955 -0.0941  0.0337
22263W        W38737   1.941  15.688   4.276  0.0943  0.0222  0.0059
22264W        W38738   1.350   5.187   3.277  0.2527  0.2543  0.2256
22265W        W38739   7.726   4.312   1.131 -0.0870 -0.3086  0.2773
22266W        W38740  16.951   9.804  13.472  0.0420 -0.3058 -0.2459
22267W        W38741   6.438  10.973  13.866 -0.2052 -0.2594  0.1665
22268W        W38742   6.975   7.449   5.104  0.0057 -0.2932  0.0742
22269W        W38743  13.140  12.860   0.451  0.3000  0.0158  0.1840
22270W        W38744   8.825   8.179  13.241 -0.0601  0.4318  0.1086
22271W        W38745   7.426   3.366   1.850 -0.1570  0.0396 -0.3175
22272W        W38746   9.728  10.166   0.808  0.2841 -0.2720 -0.1119
22273W        W38747   5.270   8.349   5.004 -0.2690 -0.0178 -0.0231
22274W        W38748   3.386  15.209  14.198  0.0936  0.1499 -0.0632
22275W        W38749  13.218  10.026   0.162  0.3446  0.2733  0.0903
22276W        W38750  15.224   4.102   3.442  0.0405  0.1457 -0.2533
22277W        W38751  14.387   8.528   5.182 -0.3226 -0.2391  0.1260
22278W        W38752  19.536   7.369  14.671  0.3388  0.0762  0.1278
22279W        W38753   6.455   1.454  13.067  0.2594 -0.0542  0.0601
22280W        W38754  16.644   1.381   3.751  0.0764  0.1695  0.1212
22281W        W38755  10.449  16.696   1.074 -0.1855 -0.0509  0.3659
22282W        W38756   8.505  13.817   0.765 -0.3969 -0.1271  0.0841
22283W        W38757   6.559   2.515  10.855  0.0256 -0.0682 -0.1927
22284W        W38758  15.252  14.178   1.528  0.0986  0.0720  0.3418
22285W        W38759   9.728  14.599  11.269 -0.1950  0.0815  0.4136
22286W        W38760   8.330  18.767   0.410  0.1485  0.1813 -0.0937
22287W        W38761  14.879  12.945   4.189 -0.2600  0.4234 -0.0677
22288W        W38762  11.283  11.739   1.997  0.0208 -0.0274  0.1366
22289W        W38763  13.553   6.364  11.336 -0.0125  0.1591  0.0018
22290W        W38764   3.408  12.513   1.523  0.0770  0.3396 -0.0688
22291W        W38765  13.711   0.340  11.479 -0.3625 -0.2403  0.2953
22292W        W38766   3.435   7.142  14.073  0.2720  0.1327  0.0255
22293W        W38767  18.090   7.698  14.095  0.2765 -0.3749 -0.0482
22294W        W38768   6.518   7.102   4.314  0.1586  0.0555 -0.2189
22295W        W38769  11.980   6.420  11.649 -0.1484  0.3280  0.1421
22296W        W38770  17.586  11.765   2.258 -0.1411 -0.0451  0.1717
22297W        W38771  18.414  19.128  12.058  0.0767  0.1252  0.1808
22298W        W38772   1.687  18.190  10.957 -0.1162  0.0826 -0.1436
22299W        W38773  16.797   4.171  13.519 -0.1977 -0.0872  0.2525
22300W        W38774  10.505  16.315   2.751  0.0463  0.0815  0.0937
22301W        W38775   0.094   3.837  11.608 -0.2158 -0.2896 -0.1352
22302W        W38776  13.136   3.030   3.116  0.0450 -0.3953 -0.4780
22303W        W38777   1.614   5.600  10.442  0.1355  0.1429  0.2799
22304W        W38778   7.993   7.873   4.370 -0.4499 -0.0411  0.2272
22305W        W38779  11.023   3.080   3.658 -0.0682  0.2519  0.0340
22306W        W38780  17.072   6.953   2.188 -0.2209 -0.0978  0.0346
22307W        W38781  18.760  19.433  10.360 -0.0976  0.2259  0.0012
22308W        W38782   5.401   2.320   4.854 -0.1685  0.1121  0.0139
22309W        W38783  10.606   3.024   0.790  0.1661  0.0543 -0.0225
22310W        W38784  10.292   0.394   2.862 -0.0564  0.1642  0.0469
22311W        W38785   7.829  16.814   2.868  0.0583  0.2561 -0.0961
22312W        W38786  10.946   8.639   4.209  0.0445 -0.4860  0.2488
22313W        W38787   9.882   5.222   1.047  0.1824  0.0829  0.1552
22314W        W38788  11.958  16.562  10.437  0.2253 -0.0139  0.0037
22315W        W38789  13.022   6.009  13.818 -0.0181  0.1075 -0.0062
22316W        W38790  18.531  17.654  12.454 -0.0487  0.0947 -0.1643
22317W        W38791   6.327  15.475   0.724 -0.1975  0.0864  0.2376
22318W        W38792   0.153   4.142  14.271 -0.0745 -0.0637 -0.1982
22319W        W38793  14.728   9.893  12.439  0.1943 -0.1096 -0.0331
22320W        W38794  19.330   2.388  10.344  0.1441  0.3338  0.2160
22321W        W38795  17.826   0.249  14.059  0.1164 -0.0249 -0.1920
22322W        W38796  10.247  18.049   3.644  0.0315  0.0367 -0.0831
22323W        W38797  16.384   6.275  11.048 -0.1989 -0.4007 -0.1298
22324W        W38798  16.236  18.026  10.338 -0.0599 -0.1584  0.0799
22325W        W38799   2.760   1.423  13.122  0.0965  0.2011  0.3487
22326W        W38800  11.590   5.218   4.865 -0.0323  0.0152  0.1359
22327W        W38801  12.130  15.630   2.066 -0.0791 -0.3714 -0.0262
22328W        W38802   9.735  16.034   5.061 -0.0117 -0.2430  0.0705
22329W        W38803  12.129   2.466   1.543  0.0333 -0.4382  0.2469
22330W        W38804   8.377   3.510   2.187  0.3430 -0.1557 -0.1730
22331W        W38805   5.556   8.494  14.473  0.0503 -0.1731  0.1664
22332W        W38806  16.898   5.193   3.029 -0.2424  0.5195 -0.3364
22333W        W38807   0.905   3.739   0.758 -0.1345 -0.0635  0.0867
22334W        W38808   4.177  17.181  14.583  0.0296 -0.3949  0.3368
22335W        W38809   2.973   4.226   3.226  0.0778 -0.2986  0.0584
22336W        W38810  16.485  14.985   1.760 -0.0034  0.0813 -0.1739
22337W        W38811   6.485   8.385  12.845  0.0199  0.1160 -0.0075
22338W        W38812  15.119   4.701   4.821 -0.0335 -0.1121  0.0005
22339W        W38813   3.236  18.047   0.889 -0.2261  0.1353  0.2105
22340W        W38814  17.493  19.106   0.278  0.0934  0.1031 -0.1659
22341W        W38815  10.778   6.210  13.512  0.1404 -0.3730 -0.0764
22342W        W38816  11.441   0.825  10.756  0.3250  0.0819 -0.0653
22343W        W38817   2.859   5.339  11.049 -0.1522 -0.2580  0.0675
22344W        W38818   3.317   9.901   4.110  0.1066  0.2267 -0.1861
22345W        W38819  10.909   8.480   4.697  0.1522 -0.0629 -0.0541
22346W        W38820   5.691  18.322  11.663  0.3640  0.0260 -0.1818
22347W        W38821   2.123   1.565   0.201 -0.0961 -0.2046 -0.1925
22348W        W38822   7.578   9.511   2.604  0.2336  0.1901 -0.0554
22349W        W38823  14.621  16.085  13.478  0.1366  0.3208  0.1569
22350W        W38824  19.166   1.669  14.251 -0.0287 -0.4964 -0.0677
22351W        W38825  14.068  16.328  12.780 -0.1901  0.3167 -0.1715
22352W        W38826  15.356  18.319   2.344  0.0631 -0.4107  0.1967
22353W        W38827   0.691  18.412  11.908  0.0251 -0.0032  0.1048
22354W        W38828   1.096   3.396  13.626 -0.1150  0.1379 -0.2103
22355W        W38829   2.075  12.630  13.436 -0.3693  0.2619  0.1407
22356W        W38830   0.921   3.385   4.900  0.0084  0.1190  0.0771
22357W        W38831   6.941   5.946   2.967  0.0744  0.1236 -0.1220
22358W        W38832  16.564   2.238  13.268 -0.0787  0.0979 -0.0267
22359W        W38833  14.041  12.853  11.556  0.3233  0.0355  0.1004
22360W        W38834  17.549  15.885   2.958 -0.4082 -0.1908  0.0583
22361W        W38835   7.543   3.358   1.354  0.0170 -0.0635 -0.3100
22362W        W38836  18.356  17.112  11.816 -0.3632 -0.1882  0.1664
22363W        W38837  12.241  18.871   1.794 -0.2025 -0.1528 -0.1952
22364W        W38838  19.100  19.388  13.702  0.2955  0.1023 -0.0537
22365W        W38839  13.512   3.763   1.775  0.0288  0.0944 -0.2141
22366W        W38840   9.292  12.728  11.419 -0.0829  0.0601  0.0797
22367W        W38841  17.464   7.270   0.385  0.0619 -0.3797  0.4581
22368W        W38842   1.497   9.430   0.522  0.2112  0.0178  0.1651
22369W        W38843   0.465   0.636   5.155 -0.2001 -0.1069 -0.1720
22370W        W38844   2.389  18.783  12.702 -0.0089  0.0431  0.2779
22371W        W38845   3.321   9.126   3.673 -0.3226  0.3211 -0.1083
22372W        W38846   7.089  11.316  11.925 -0.1484  0.1118 -0.0582
22373W        W38847   8.144  17.973   5.236 -0.3702 -0.2049 -0.1004
22374W        W38848   9.533   0.625   1.982  0.2063 -0.0993  0.1986
22375W        W38849  11.327   3.062   1.416 -0.0852 -0.1352 -0.1502
22376W        W38850  13.678  13.097   4.548  0.0109 -0.0554 -0.0147
22377W        W38851  14.741   2.576  11.148 -0.0173 -0.0599 -0.0337
22378W        W38852   5.050   1.496  12.639 -0.1513  0.1829  0.1909
22379W        W38853   9.063   1.089  11.382  0.1715 -0.1479 -0.1802
22380W        W38854   2.016  16.472  11.099 -0.0324  0.1558 -0.2402
22381W        W38855  14.322   4.691   2.611  0.0366  0.3461  0.2198
22382W        W38856   8.042   6.350   1.325 -0.0060 -0.0883 -0.0330
22383W        W38857  11.300  16.603  10.446 -0.0828  0.2299 -0.0581
22384W        W38858  10.498   4.030  12.782 -0.2090 -0.1844  0.0844
22385W        W38859  15.644   2.387  11.392 -0.4535  0.2383 -0.0914
22386W        W38860  15.942  12.726  10.923  0.0057 -0.0623  0.1210
22387W        W38861  18.807  15.502  13.051 -0.1000 -0.1563 -0.0765
22388W        W38862   3.056   9.322  13.734  0.0951 -0.2012 -0.2341
22389W        W38863   3.906  18.269   1.818 -0.1862  0.1290  0.0084
22390W        W38864  17.861   8.092  13.300 -0.0797  0.2012 -0.0698
22391W        W38865   7.217   9.552  13.649 -0.1137 -0.2862  0.3809
22392W        W38866   4.861   5.640   4.876 -0.0608  0.0135  0.0290
22393W        W38867   6.610  19.275  12.074 -0.0967 -0.1149  0.1831
22394W        W38868  11.442   6.659   4.327 -0.2771  0.0665  0.2121
22395W        W38869  18.095  13.502  13.114  0.0757 -0.2639 -0.1935
22396W        W38870   2.429  14.013  13.499 -0.2978 -0.0738 -0.0884
22397W        W38871  16.708   5.936   1.370  0.0207  0.1568 -0.1891
22398W        W38872  12.720  18.786  11.876 -0.3386  0.1247  0.1456
22399W        W38873  15.611   8.894  12.669  0.3119 -0.0310  0.0123
22400W        W38874   7.081  10.039   1.786 -0.0359 -0.3805  0.1840
22401W        W38875   6.248   9.440  11.391  0.0332  0.1587  0.0973
22402W        W38876  14.219  14.241   1.245 -0.1363 -0.0436  0.0722
22403W        W38877  10.442   4.878  11.838  0.4359 -0.0315  0.2665
22404W        W38878  11.671   5.324  10.326  0.1330  0.1407  0.0771
22405W        W38879   3.241   5.249   9.759 -0.0334 -0.0183 -0.0312
22406W        W38880  16.384   0.565   0.045  0.1845  0.2302 -0.2140
22407W        W38881   9.686  16.355  13.369  0.1936 -0.2039 -0.1124
22408W        W38882  13.240   4.155   0.867  0.2929 -0.0503  0.4996
22409W        W38883   6.719   0.241  12.414 -0.0056  0.0279  0.0220
22410W        W38884   3.857  16.209   3.494  0.1006 -0.1620 -0.2943
22411W        W38885  17.534   6.828   1.148  0.2383  0.5115  0.0053
22412W        W38886   8.770  14.160  14.146 -0.3035 -0.3252 -0.0290
22413W        W38887  14.228   2.186  12.932 -0.1514 -0.0955  0.3491
22414W        W38888  14.382  13.828  14.429  0.3921  0.0880  0.0003
22415W        W38889   4.269   1.625  12.174 -0.2393 -0.5333  0.0170
22416W        W38890   1.803  18.099  11.952 -0.0068 -0.4080  0.2839
22417W        W38891   1.920  19.255  14.241  0.0268 -0.2731 -0.0230
22418W        W38892  15.446  12.777  10.675  0.1924 -0.1430  0.0508
22419W        W38893   0.895   3.758   4.416 -0.0175  0.0311  0.0176
22420W        W38894   4.877  11.918   4.266  0.1791 -0.0475  0.4899
22421W        W38895   9.818  16.419   1.912 -0.2069 -0.1593  0.2165
22422W        W38896  15.850   6.076   4.288  0.1992 -0.2297 -0.0535
22423W        W38897  13.008   8.592  14.688 -0.3293  0.1625 -0.1330
22424W        W38898   3.327   0.081  12.442  0.4282  0.0914 -0.5493
22425W        W38899   4.073   8.351   2.777 -0.0894 -0.2912  0.0635
22426W        W38900   1.468  10.836   3.503  0.1231 -0.0469  0.0913
22427W        W38901   7.296  18.943  10.940 -0.0533 -0.2833 -0.1842
22428W        W38902  17.160   1.878   3.701 -0.4425 -0.1972 -0.4173
22429W        W38903   6.437   1.655   1.997 -0.1099 -0.2517  0.0452
22430W        W38904   8.866  12.022  12.409 -0.2737  0.4119 -0.1783
22431W        W38905   4.284   1.911   0.774 -0.2256 -0.2055 -0.3748
22432W        W38906   1.659  17.171  13.411 -0.4050 -0.0375  0.0979
22433W        W38907   3.016   3.600  13.932 -0.1034  0.2978  0.0262
22434W        W38908   5.623   8.869   0.224  0.4016 -0.0190 -0.3583
22435W        W38909  14.357  16.674   3.683 -0.0374  0.6002  0.0915
22436W        W38910  12.764   1.632   5.422  0.1844  0.0223 -0.1177
22437W        W38911   4.246   6.965  13.515  0.1144  0.1211  0.0492
22438W        W38912  14.757  11.417  12.176 -0.0096 -0.0275 -0.0917
22439W        W38913   7.707  14.002   4.452 -0.0582  0.2018 -0.0139
22440W        W38914  16.679   0.002  11.153  0.2258 -0.0908 -0.2174
22441W        W38915  16.107  13.351   3.052 -0.0485  0.0790 -0.1528
22442W        W38916   7.306  13.817  11.558  0.3192  0.2490  0.1608
22443W        W38917   2.485  14.920   3.728  0.2312  0.1496 -0.1669
22444W        W38918  17.438  11.007  11.497 -0.2543  0.1433 -0.0445
22445W        W38919   0.797   6.567   3.492  0.0797  0.1674 -0.2277
22446W        W38920  16.926   5.063  12.630 -0.0184  0.3778  0.0735
22447W        W38921   9.246   4.785  14.445 -0.1493 -0.1380 -0.0846
22448W        W38922   1.410  11.562  11.710  0.4557  0.3420 -0.0890
22449W        W38923  15.552  10.903  14.028 -0.2009  0.1125 -0.1132
22450W        W38924  17.513  16.630   1.013  0.2308 -0.0871  0.4631
22451W        W38925  18.833   1.259  14.426  0.1913  0.0942 -0.3004
22452W        W38926  17.127  15.758   1.675  0.0988  0.2210  0.1960
22453W        W38927  11.705   5.235  11.481  0.2175 -0.0104 -0.2426
22454W        W38928   8.012   0.425  10.841  0.0700 -0.0652 -0.2852
22455W        W38929   2.213   9.521  12.053 -0.3352  0.1918  0.2853
22456W        W38930   8.452   2.445  12.754  0.0046 -0.1116 -0.0554
22457W        W38931   8.881  13.080  10.792 -0.2200  0.1149  0.3952
22458W        W38932   3.880  14.451   1.393 -0.1876 -0.1850 -0.1421
22459W        W38933   5.143  17.652   2.623  0.0245  0.2903  0.0008
22460W        W38934   8.342   5.915  13.861  0.1418 -0.0113  0.0303
22461W        W38935  11.999   3.201   3.343  0.1898 -0.2553  0.0038
22462W        W38936  16.505  12.024   1.723  0.0660  0.1050 -0.0572
22463W        W38937   5.433  16.321  12.384 -0.2926 -0.3272 -0.1069
22464W        W38938  11.048  14.925  11.888 -0.3528 -0.0075 -0.3144
22465W        W38939   5.893   7.668   5.026 -0.0583 -0.0509 -0.1177
22466W        W38940  11.438   2.591   2.861 -0.2450 -0.3937 -0.2843
22467W        W38941  11.060  18.279  14.109  0.0719 -0.1174 -0.0476
22468W        W38942   8.942  14.599   2.883 -0.2300  0.1682 -0.0146
22469W        W38943   8.190   0.510   2.357  0.0351  0.1169 -0.0843
22470W        W38944   9.404   2.776   4.680 -0.0875  0.1639  0.0653
22471W        W38945   3.946  13.138  14.638 -0.2966 -0.1958  0.2559
22472W        W38946   1.728   3.190  13.391 -0.1372  0.1277 -0.2252
22473W        W38947   5.554  11.492  13.721 -0.6728 -0.0092 -0.0015
22474W        W38948  10.816  13.787  12.986  0.0222 -0.1570  0.1570
22475W        W38949  15.841   1.314   5.300  0.2373  0.1661 -0.2051
22476W        W38950   3.510  15.776   1.861  0.5050 -0.2698  0.0674
22477W        W38951   4.723  11.505  13.304  0.2642 -0.1392  0.1880
22478W        W38952  13.238  16.422   3.825  0.1897  0.0460 -0.0393
22479W        W38953   0.685   7.908  10.650 -0.0934 -0.2357 -0.1010
22480W        W38954   9.267  12.245  13.942  0.1178  0.2047  0.4522
22481W        W38955   3.616   8.608  14.097  0.1522  0.3565  0.2755
22482W        W38956  10.153  17.919  11.922 -0.1757  0.0871  0.3454
22483W        W38957  18.934  12.391  12.073  0.4097  0.0689  0.1661
22484W        W38958   1.510  19.047  10.727 -0.1162  0.2720 -0.1656
22485W        W38959   4.679   1.345   4.762  0.3650 -0.0189 -0.1221
22486W        W38960  10.753   7.616  14.543  0.1383  0.1169  0.0926
22487W        W38961   4.728  16.977  14.365 -0.0628  0.0566 -0.2565
22488W        W38962  18.011  17.194  10.681  0.1776  0.1357 -0.1075
22489W        W38963   7.671  18.063   0.903 -0.1770 -0.1402 -0.0874
22490W        W38964  12.182   5.706   4.179 -0.0223  0.1199  0.0946
22491W        W38965   5.132  12.986  10.413 -0.1489 -0.2519 -0.0778
22492W        W38966   7.699   5.930   1.287 -0.4973  0.1540  0.0651
22493W        W38967   3.683   4.275  12.283  0.0187  0.0629  0.0182
22494W        W38968   8.788   9.625  10.906 -0.0651 -0.2642  0.1540
22495W        W38969  16.684   0.521   3.075 -0.2150 -0.0045 -0.0461
22496W        W38970   1.285   7.619   4.181 -0.3364 -0.0616  0.5135
22497W        W38971   0.113   0.326   5.393 -0.1208  0.2454 -0.1793
22498W        W38972  15.518  19.404  12.675  0.2872  0.4186 -0.3214
22499W        W38973   8.442  15.414   4.164  0.0959  0.1111 -0.3627
22500W        W38974   2.261   9.933  11.064  0.0396 -0.1546 -0.0318
22501W        W38975   5.999   7.140   4.219  0.2397 -0.2885 -0.0775
22502W        W38976  11.997   1.358   3.590  0.1734  0.0029 -0.1616
22503W        W38977  16.111  14.368  13.536  0.1030  0.0375  0.3110
22504W        W38978  18.551   8.764   2.241 -0.2879 -0.1297  0.1583
22505W        W38979   4.029   4.671  13.861  0.0498 -0.2751 -0.1006
22506W        W38980   2.765   7.627   9.862 -0.0761 -0.1582 -0.1937
22507W        W38981   6.684   2.384   2.355 -0.1771 -0.1722 -0.0840
22508W        W38982   5.519   0.347  12.547 -0.0316  0.1516 -0.1812
22509W        W38983   3.270   9.111  11.056  0.1606  0.1508  0.1497
22510W        W38984  15.761  15.180   2.597 -0.1454  0.0347  0.1227
22511W        W38985   5.153   7.466   2.548 -0.5674  0.1339 -0.0758
22512W        W38986  17.517   5.772  14.222 -0.0384 -0.0166  0.0800
22513W        W38987   3.516   6.191  12.862  0.2233 -0.1031  0.1686
22514W        W38988  14.232   6.886   3.430  0.3608  0.0153  0.0421
22515W        W38989  15.649  14.167  11.051  0.0617  0.0721  0.0825
22516W        W38990   5.309  13.951   1.898  0.0613 -0.2727  0.2058
22517W        W38991   5.054  12.632  10.772 -0.3524  0.2406  0.1142
22518W        W38992   5.021   5.731   3.268 -0.4663 -0.0719  0.1473
22519W        W38993  10.308  13.925   0.240 -0.1591  0.2563  0.1552
22520W        W38994   3.188   8.695  12.026  0.0395  0.0006  0.0694
22521W        W38995   0.221  12.709   0.741  0.2719 -0.1132 -0.1230
22522W        W38996   0.442  13.505  10.950  0.0382  0.0944  0.3250
22523W        W38997   8.414  13.508   0.373 -0.0052  0.2753  0.1771
22524W        W38998   9.014   3.382   0.223  0.2271 -0.0311 -0.3228
22525W        W38999   9.537  10.826   5.168 -0.0898 -0.0209  0.1460
22526W        W39000  19.131   2.098  13.469 -0.1178  0.0657  0.2699
22527W        W39001  12.846   4.634   3.124  0.1494  0.1139 -0.2625
22528W        W39002  16.384   2.008   4.353  0.2045 -0.0337 -0.1167
22529W        W39003  10.813  17.426  10.629  0.1021 -0.0043 -0.1937
22530W        W39004  18.118   5.493   3.854 -0.0528 -0.1651 -0.0858
22531W        W39005   6.255  15.958  11.185  0.2155  0.1712  0.1439
22532W        W39006   9.809  14.787  11.900 -0.0633 -0.1617  0.2940
22533W        W39007  15.059   0.661   3.225  0.2619 -0.2440 -0.1301
22534W        W39008   1.575   5.291  14.282  0.1506  0.2947 -0.3023
22535W        W39009  19.421  19.357   1.456 -0.0101  0.1288  0.0547
22536W        W39010  15.079  14.634   0.572  0.1625  0.1298  0.0533
22537W        W39011  12.883   6.285   2.200  0.1250  0.2071 -0.0878
22538W        W39012   4.222   5.321   4.608  0.2963  0.0787  0.2427
22539W        W39013   9.288  11.641   1.325 -0.1696  0.0322 -0.1244
22540W        W39014  19.106  18.495  12.111 -0.1089 -0.1063  0.1746
22541W        W39015  12.659  13.075   1.337 -0.1777  0.2157 -0.0053
22542W        W39016  18.587   4.289  11.555  0.0970 -0.4341  0.1511
22543W        W39017  18.271  11.191  13.454 -0.3142 -0.0325 -0.0448
22544W        W39018  16.661   3.812   1.152  0.0004 -0.1189 -0.0909
22545W        W39019  10.625  19.141  11.677 -0.2440  0.1614  0.0477
22546W        W39020  11.248  16.675   3.511 -0.1708  0.0914 -0.4451
22547W        W39021   0.883   3.077  12.800  0.2499  0.0244 -0.2265
22548W        W39022  13.454  15.336   2.034 -0.1238  0.2464  0.3581
22549W        W39023  12.936  17.877  12.336  0.2736 -0.0979 -0.3024
22550W        W39024   6.181   7.232   0.508 -0.1180  0.0480 -0.1182
22551W        W39025   3.614   9.176  10.491  0.3899 -0.3858  0.4154
22552W        W39026   8.809   8.365  14.327 -0.0010  0.0986  0.2819
22553W        W39027   3.238   8.273  13.033  0.1898 -0.4138  0.1588
22554W        W39028   3.724  19.124  12.330  0.1504 -0.0441  0.1050
22555W        W39029  10.483  13.607  11.507  0.0714 -0.1540  0.1754
22556W        W39030  15.314  13.828  10.761 -0.0270  0.0240  0.1027
22557W        W39031   8.427  18.253   0.472 -0.0173 -0.0187 -0.1024
22558W        W39032  15.454   5.536  10.017 -0.0801  0.2746  0.1195
22559W        W39033   3.924   3.618   3.118 -0.2004 -0.2039  0.0172
22560W        W39034   9.101   1.415  10.967 -0.1874 -0.1033  0.2607
22561W        W39035  18.651   3.675  11.718  0.2581  0.2041  0.2283
22562W        W39036  12.984   4.595  10.894  0.0070  0.0648 -0.1255
22563W        W39037   8.426   3.015   1.983 -0.3293  0.0105 -0.0407
22564W        W39038  16.468  11.795  10.529  0.0884 -0.2752  0.2882
22565W        W39039  13.350   2.633  13.634  0.2508  0.0042  0.0800
22566W        W39040   5.069   6.673   2.892 -0.0455 -0.0575 -0.2897
22567W        W39041   3.697   0.821  11.339 -0.1732  0.2389 -0.3893
22568W        W39042   8.924   9.914  12.755  0.2217 -0.1176  0.3491
22569W        W39043   0.835  15.968   0.018 -0.2233  0.0192 -0.0961
22570W        W39044  16.681   4.784  13.478  0.1325 -0.1740 -0.0730
22571W        W39045   9.029   9.491   0.908  0.2859 -0.0719 -0.1129
22572W        W39046  18.148   8.797   5.435 -0.0768 -0.0191  0.0625
22573W        W39047  11.914   6.136   3.924 -0.1069  0.4645 -0.1140
22574W        W39048   5.613  16.352   2.087 -0.2249 -0.4487 -0.0012
22575W        W39049   0.708   9.348   0.571 -0.4270  0.0423 -0.0685
22576W        W39050  11.542  14.369   4.359  0.0917 -0.0816  0.5509
22577W        W39051   5.740  10.307  14.138  0.0354 -0.1455 -0.0014
22578W        W39052  13.583   5.762  11.436 -0.2717 -0.0462  0.0536
22579W        W39053   4.676   5.344   9.795  0.3220 -0.0344 -0.0799
22580W        W39054  19.463  17.518   0.020  0.1351  0.0811  0.1532
22581W        W39055  19.198   2.011  12.631 -0.0892 -0.0803  0.1528
22582W        W39056  12.700  15.918   2.920  0.0650 -0.1711 -0.2670
22583W        W39057   2.240  17.098   1.170  0.0090  0.0992  0.0671
22584W        W39058   2.949   6.391   2.341  0.0216 -0.0078 -0.5170
22585W        W39059   9.657   2.162  10.737 -0.0254 -0.4198  0.0003
22586W        W39060   3.840   4.537   9.477 -0.1351 -0.2766 -0.0118
22587W        W39061  17.463   0.002  14.297  0.1247 -0.1541  0.0595
22588W        W39062   3.965   3.409  13.653 -0.2208 -0.0293  0.2278
22589W        W39063   6.087  10.456   3.043  0.1177  0.0923  0.1089
22590W        W39064  12.619  19.373  14.243 -0.0406  0.0325 -0.2104
22591W        W39065   0.434   5.746   4.782 -0.0559  0.0191 -0.1913
22592W        W39066   0.112   0.915   3.510  0.1690  0.1739 -0.0329
22593W        W39067   5.759   9.637   0.675  0.2039 -0.0896 -0.3735
22594W        W39068   1.469  12.041   4.593  0.4314  0.2051 -0.4071
22595W        W39069  14.491   6.089   2.040  0.0405  0.1714 -0.0646
22596W        W39070  19.039   3.703   3.854  0.2913  0.0897  0.0924
22597W        W39071   8.883  18.568  10.623 -0.0075 -0.0241 -0.0358
22598W        W39072  14.668   1.360  10.259  0.0823 -0.2447  0.3012
22599W        W39073  11.323  14.966  14.385  0.2167  0.4124 -0.0902
22600W        W39074   0.820  16.143   4.189 -0.2212 -0.1029  0.0315
22601W        W39075   6.767  16.034   2.356 -0.1178  0.0672  0.3273
22602W        W39076   8.821   5.110  14.559  0.1026 -0.2834 -0.2237
22603W        W39077   9.804   9.061  12.475 -0.1713 -0.1173  0.3573
22604W        W39078   5.028  18.287  11.026  0.1867  0.1404  0.2407
22605W        W39079  16.196  13.081   3.446  0.2198  0.0922  0.2272
22606W        W39080  13.084  14.426   0.827 -0.0308  0.1434 -0.0465
22607W        W39081   6.807   6.239   2.102 -0.0652 -0.0182 -0.1153
22608W        W39082  14.495   5.961   3.860 -0.0387 -0.1702  0.1436
22609W        W39083   6.126  15.487  10.936 -0.1079  0.3235 -0.0492
22610W        W39084   4.358  12.128   5.278  0.1051  0.2547 -0.1177
22611W        W39085   0.024   7.967   1.894  0.2761  0.0190 -0.2029
22612W        W39086  14.375  12.826   3.090  0.2686 -0.1449 -0.0731
22613W        W39087   9.800   4.388  11.667  0.0138 -0.1761 -0.2115
22614W        W39088   1.473   1.203  14.270 -0.4344 -0.1836  0.0058
22615W        W39089  12.672   1.390   4.772 -0.4984 -0.2055 -0.2918
22616W        W39090   8.206  17.479  10.615  0.1844  0.3360  0.0018
22617W        W39091   9.824   0.977   0.390  0.0763  0.2522  0.3441
22618W        W39092   0.002  16.069   2.772 -0.1976 -0.1222 -0.1733
22619W        W39093  10.279  10.575   0.249 -0.1164  0.2341 -0.1531
22620W        W39094   4.502  17.421   3.177  0.0155  0.3045  0.2258
22621W        W39095   0.758   9.983   3.932 -0.0357 -0.2758 -0.0170
22622W        W39096   0.626   0.768   4.516  0.2901  0.1980  0.0692
22623W        W39097   4.718   0.131  12.330 -0.0540  0.2566 -0.0716
22624W        W39098   8.450   9.772  11.989 -0.0272 -0.1558  0.2298
22625W        W39099  17.232  16.192   2.512  0.1847  0.4063  0.0637
22626W        W39100   2.425   2.969  14.303  0.2490 -0.3449 -0.0887
22627W        W39101  14.685  12.599   3.458 -0.1260  0.0795  0.1850
22628W        W39102  17.222   5.706   3.823 -0.3955 -0.0190 -0.0289
22629W        W39103  10.431  14.825   2.668  0.0366  0.0782 -0.0258
22630W        W39104  17.680   0.815   1.299  0.3719 -0.0701 -0.0166
22631W        W39105   9.676  17.440   3.826 -0.4306 -0.0723 -0.2185
22632W        W39106   9.101  16.732  11.168 -0.0995  0.0323  0.3272
22633W        W39107  11.761  12.439  14.659  0.4100 -0.1074 -0.0324
22634W        W39108   9.637  11.918  12.748  0.1610 -0.2471 -0.2710
22635W        W39109   7.345  11.302   0.392  0.0257  0.2313 -0.0824
22636W        W39110  18.899   6.255  11.133  0.0734 -0.0761  0.5548
22637W        W39111   4.940  10.589  12.374 -0.0046 -0.1235 -0.2324
22638W        W39112   4.522   7.632  10.949  0.0868  0.1048  0.1471
22639W        W39113   1.983   0.742  13.072  0.0294  0.0776 -0.3886
22640W        W39114   2.494   9.495  13.582 -0.2406  0.1273  0.0995
22641W        W39115   5.562  15.129  10.193 -0.1371 -0.0215  0.0545
22642W        W39116   3.648  14.519   3.444  0.0880 -0.1016 -0.1089
22643W        W39117  16.445  19.215   1.507  0.0520  0.0074 -0.1760
22644W        W39118   3.537  16.720   3.411  0.1586 -0.2953  0.1993
22645W        W39119   2.767   0.850   1.246  0.1793  0.2304 -0.0225
22646W        W39120  14.251  14.722   1.085 -0.4212 -0.1550 -0.0753
22647W        W39121  12.854   1.002  14.113 -0.1811  0.1596  0.0724
22648W        W39122   2.111   5.939   4.994 -0.2259 -0.0784  0.1638
22649W        W39123  17.158   4.832   3.347 -0.0086  0.3367 -0.1995
22650W        W39124   1.472   7.632   0.598 -0.1180  0.0616 -0.0173
22651W        W39125  19.565  14.589  10.193 -0.2825  0.0703  0.1392
22652W        W39126  10.500  16.868   3.494 -0.3484  0.0176 -0.1620
22653W        W39127   6.296   1.607   3.263 -0.4044 -0.2170 -0.1522
22654W        W39128   1.971  10.249   0.233 -0.1985 -0.0231 -0.1113
22655W        W39129  11.705  18.068   4.801 -0.1026 -0.0159 -0.1384
22656W        W39130  12.595   4.488   4.446  0.2904  0.1725 -0.1330
22657W        W39131   7.624  11.738   0.324  0.2340 -0.0741  0.0171
22658W        W39132  15.197   5.243  11.297  0.2343 -0.0899 -0.0831
22659W        W39133   0.161   9.282   1.796  0.4867 -0.1226  0.1675
22660W        W39134   0.029  17.893   4.235 -0.0803 -0.0237  0.0613
22661W        W39135  12.821  19.185  10.428 -0.0782  0.0431 -0.0291
22662W        W39136   5.320   6.561  14.018 -0.1118  0.0564 -0.2592
22663W        W39137  17.009  17.661  11.327  0.0959  0.0653 -0.1589
22664W        W39138  11.182   8.992   3.459 -0.3021  0.2711 -0.2793
22665W        W39139  14.244  13.766   4.755 -0.2184 -0.0055 -0.2473
22666W        W39140   5.294   0.606   1.906 -0.3214 -0.2188 -0.0639
22667W        W39141   5.496   7.983  14.469 -0.0626 -0.1760 -0.0728
22668W        W39142   8.801   4.651  14.226  0.1284 -0.4339 -0.1940
22669W        W39143   3.222  12.734   1.909 -0.0618  0.2060 -0.1268
22670W        W39144   4.774  12.799  11.828 -0.0597 -0.0160 -0.1002
22671W        W39145   0.904   3.793   1.911 -0.1693  0.1798  0.3362
22672W        W39146  10.018  18.989  13.255 -0.1282 -0.0497  0.1044
22673W        W39147  10.480   9.466  10.809  0.0488  0.2570 -0.0112
22674W        W39148   8.394   9.655   2.439  0.0633 -0.0506 -0.2678
22675W        W39149  14.540   2.855   4.035  0.0570 -0.3323  0.0436
22676W        W39150  14.289   2.652  13.070  0.0432 -0.3044  0.1529
22677W        W39151   1.808  11.439  12.606  0.2577  0.2921 -0.2010
22678W        W39152  11.709   5.087  13.711  0.0637  0.0263  0.0001
22679W        W39153   8.278   6.901  11.496  0.2665 -0.2538 -0.0079
22680W        W39154  16.176  15.751   3.019  0.1801 -0.2713 -0.2608
22681W        W39155   7.035  19.239  13.061 -0.2083  0.0849 -0.0637
22682W        W39156  17.435   9.830  10.748 -0.1301  0.1203 -0.0659
22683W        W39157  16.490   1.566  12.481  0.1950  0.1816  0.1929
22684W        W39158   9.506   3.157  13.824  0.1859  0.3940  0.1601
22685W        W39159   7.846   8.386   2.589 -0.1228  0.1050  0.2499
22686W        W39160   6.895   3.280   1.887 -0.0458  0.0237  0.1125
22687W        W39161  16.534   0.693   4.709  0.1111 -0.2738  0.1103
22688W        W39162  19.077  12.709  10.845 -0.2831 -0.2944 -0.3328
22689W        W39163   9.281  14.294   0.924  0.2598 -0.4344 -0.1403
22690W        W39164  11.855   3.360  12.553  0.3367 -0.0695 -0.0828
22691W        W39165  18.630  17.545  13.928  0.3128 -0.1107 -0.1219
22692W        W39166   1.992  17.676  10.988 -0.2075  0.1829  0.0426
22693W        W39167   3.091   7.329   2.944  0.0236 -0.3261 -0.1502
22694W        W39168  12.924   0.268   0.078  0.2094 -0.1853 -0.0827
22695W        W39169  10.927  14.697  13.109  0.0463 -0.1593 -0.2826
22696W        W39170  19.413   3.021   9.084  0.0609 -0.3297  0.1775
22697W        W39171   9.388   1.834  13.764 -0.1112 -0.2307 -0.1737
22698W        W39172   7.926   1.668   3.196  0.3911  0.0419 -0.3124
22699W        W39173   2.394   8.027   4.717 -0.0230 -0.1256  0.1875
22700W        W39174   1.696   9.958  12.649  0.0463  0.0961  0.1727
22701W        W39175   8.725   8.608  11.719  0.2575 -0.0157  0.1258
22702W        W39176   4.938   8.166   2.866 -0.5863 -0.1269  0.2002
22703W        W39177   8.038   8.246   0.179  0.3908 -0.0897 -0.1232
22704W        W39178  17.612   5.425   3.982  0.0371 -0.0732  0.1461
22705W        W39179  10.858  16.908   0.876 -0.0844 -0.4758  0.2778
22706W        W39180  15.625   7.075   3.864 -0.1532  0.0385  0.1991
22707W        W39181  11.136  19.452  14.588  0.0775  0.1834  0.0606
22708W        W39182   4.604  18.520   2.003 -0.2105 -0.0312  0.4011
22709W        W39183  12.951  17.992  10.790 -0.1558  0.1894 -0.0288
22710W        W39184  10.308   6.394  10.822 -0.0448  0.2212  0.3050
22711W        W39185  16.021  18.622  12.152  0.3890 -0.3246 -0.0105
22712W        W39186  15.610  18.820  14.421  0.2686  0.3665  0.2886
22713W        W39187   9.122  18.019   2.699 -0.0393 -0.0712 -0.0667
22714W        W39188   5.566   7.730   2.269  0.3959 -0.2233  0.1192
22715W        W39189  17.851  12.419  10.362 -0.1455 -0.1041 -0.0418
22716W        W39190  13.372   0.182   1.413  0.1448  0.0779 -0.4796
22717W        W39191   5.658   6.175  13.838 -0.1828  0.2942 -0.0642
22718W        W39192  13.161   8.053   0.036  0.4085  0.0209  0.1628
22719W        W39193   5.738   4.856   0.088 -0.1535  0.4091 -0.1548
22720W        W39194   1.189   8.285  10.175 -0.1659 -0.1381 -0.0904
22721W        W39195  11.714  11.993  14.289  0.0157 -0.0611  0.0588
22722W        W39196   9.365   6.833   4.867  0.0514 -0.2557 -0.0477
22723W        W39197   8.449  16.533   3.938  0.1093  0.2008 -0.4046
22724W        W39198   6.418   4.802  13.745 -0.3006  0.0379  0.1482
22725W        W39199   4.280  16.266  13.906  0.0183  0.1281 -0.1192
22726W        W39200   5.302  15.703   4.637  0.2540 -0.1579  0.2220
22727W        W39201   6.463  15.075   3.838  0.0723  0.1847 -0.1495
22728W        W39202   9.111  16.414   1.703  0.3809 -0.0460  0.0335
22729W        W39203  11.490   0.218  14.301  0.3294  0.0636  0.3391
22730W        W39204  14.817   0.614  13.749  0.1355  0.1218 -0.1690
22731W        W39205  17.728   9.839  12.301  0.2556 -0.0804  0.0519
22732W        W39206  15.355  11.645   2.549 -0.2844  0.0345 -0.0885
22733W        W39207  15.233  10.256   3.366 -0.0997  0.1587  0.1444
22734W        W39208  17.328  11.285   2.449 -0.0412 -0.1093 -0.1376
22735W        W39209   5.638  11.305   1.672 -0.0102 -0.1665 -0.0932
22736W        W39210  16.149  16.017  11.037  0.2826  0.1822 -0.1589
22737W        W39211   3.789   8.186  10.825  0.2386 -0.0055  0.0857
22738W        W39212  11.270   2.832  13.629  0.0253 -0.1688  0.2689
22739W        W39213  19.351   7.504   0.535  0.4248  0.4998 -0.3340
22740W        W39214  12.220   2.783   2.728 -0.3581 -0.0165  0.0479
22741W        W39215  13.226   4.790   1.859  0.3603 -0.0447  0.2944
22742W        W39216  18.062  16.837  11.555 -0.1459  0.1016  0.0538
22743W        W39217  12.467  16.125   2.118  0.0733 -0.3646  0.1464
22744W        W39218  13.159  14.980  10.827  0.1961 -0.0407 -0.0179
22745W        W39219  16.547  15.653  10.325  0.1183 -0.3833 -0.0635
22746W        W39220   6.911   8.804  14.257  0.1614 -0.1295 -0.0937
22747W        W39221   8.913  18.264  12.925  0.2056 -0.0925  0.1699
22748W        W39222   3.304   4.477   4.496  0.0611  0.3072  0.0000
22749W        W39223  13.679   3.352  14.002  0.1296 -0.0368  0.0402
22750W        W39224   7.187  14.525  13.386  0.2140  0.1078 -0.0539
22751W        W39225   6.374  16.736   8.992 -0.2909 -0.2588 -0.0955
22752W        W39226  13.385  11.559   3.455  0.3029 -0.0696  0.1576
22753W        W39227  11.172  16.418   9.980 -0.0809  0.2698  0.1948
22754W        W39228  18.327   8.392  12.576 -0.0329  0.0207 -0.2307
22755W        W39229  14.604   2.317   2.432  0.1307  0.1230 -0.3133
22756W        W39230   4.563  14.854   9.193  0.0244 -0.1513 -0.1786
22757W        W39231  18.368  16.938   2.478 -0.1480 -0.5207 -0.4296
22758W        W39232   9.755  10.756   4.637  0.1863  0.1040 -0.0628
22759W        W39233   7.375   4.136  11.995 -0.0718 -0.1386  0.0780
22760W        W39234  10.092  16.016  13.860  0.1812 -0.0380 -0.3680
22761W        W39235   9.853   9.322   0.267  0.2686 -0.2506  0.0959
22762W        W39236  19.000  17.598  12.179 -0.0848 -0.0389 -0.2263
22763W        W39237   9.664   8.198   4.910  0.3866 -0.1247  0.0757
22764W        W39238   7.548   4.744  12.859 -0.1880  0.2172  0.1612
22765W        W39239   8.545  12.720  14.495  0.0438  0.0859 -0.1671
22766W        W39240  14.247  12.281   2.211  0.1572 -0.0783 -0.0146
22767W        W39241  18.009   0.391  10.243 -0.1591  0.1665 -0.0768
22768W        W39242  17.306  14.552  10.183 -0.1041  0.0096  0.0292
22769W        W39243  14.966  16.699  10.736 -0.1570 -0.1562 -0.1950
22770W        W39244  17.585  12.643  13.428  0.2070  0.1513 -0.1143
22771W        W39245   2.907   1.192  14.091 -0.0163 -0.1155  0.0140
22772W        W39246   5.820   1.004  11.310  0.1793 -0.2098 -0.2090
22773W        W39247   9.265   0.591  13.038  0.1267  0.1027  0.2977
22774W        W39248  10.550  16.670   2.309  0.1428  0.0014 -0.1186
22775W        W39249  19.554   7.832  11.512 -0.1979 -0.0438 -0.2446
22776W        W39250  11.069  10.478  11.865 -0.0519  0.0692 -0.1203
22777W        W39251  16.229   8.836   5.181 -0.2012  0.0272  0.2349
22778W        W39252   4.556   0.794   3.621  0.1931 -0.2117  0.2668
22779W        W39253  15.188   9.009  10.557  0.0954 -0.3644  0.0807
22780W        W39254   9.019  12.287  11.430 -0.1756  0.3442  0.3292
22781W        W39255   4.034  12.363   1.967 -0.1008  0.3546 -0.0536
22782W        W39256  17.947   6.593   2.468  0.0950 -0.0673 -0.0169
22783W        W39257   1.850   1.721   1.938  0.0740 -0.0011 -0.2326
22784W        W39258   6.039   1.611   0.278 -0.1440 -0.2334 -0.1378
22785W        W39259  11.243  12.438   1.183  0.2541  0.1303  0.1047
22786W        W39260  10.703   8.042   4.292  0.1128 -0.1854  0.2071
22787W        W39261   3.482   5.699  13.349 -0.2304  0.1552 -0.0830
22788W        W39262   4.700   2.013   4.453 -0.2342  0.2334  0.0012
22789W        W39263   0.078  10.646  10.518  0.1530  0.3105 -0.2385
22790W        W39264   0.710   6.250  12.840 -0.1503 -0.0473  0.0112
22791W        W39265   6.120   9.534   2.388  0.2844  0.0769  0.2671
22792W        W39266   4.694  19.491  11.905  0.1156 -0.1439 -0.0072
22793W        W39267  10.334   5.796   4.727  0.1313  0.0881 -0.1795
22794W        W39268   6.088   6.028  14.225  0.0246 -0.1542  0.3581
22795W        W39269   2.875   2.079   3.127  0.1091  0.0271  0.2699
22796W        W39270  12.629  10.503   3.279  0.1491 -0.1771  0.3824
22797W        W39271   2.925   8.931   3.928  0.2805  0.0629 -0.1756
22798W        W39272  12.346  11.110   1.238  0.3008 -0.0035 -0.1460
22799W        W39273   7.019  19.060   2.903 -0.3287 -0.1571 -0.0661
22800W        W39274   9.516  15.895   3.206 -0.1888  0.1297 -0.0782
22801W        W39275  10.387  13.201  12.283  0.1129 -0.2606 -0.1153
22802W        W39276   6.533  16.923   2.430  0.0491  0.0528  0.1298
22803W        W39277  12.374   6.485  10.846  0.1135 -0.0778 -0.2850
22804W        W39278  15.251  11.137   3.261  0.1010  0.4220 -0.2908
22805W        W39279   3.914   7.035   1.662  0.0322  0.3810 -0.1504
22806W        W39280   1.682  12.653   1.029 -0.0585 -0.0375  0.0032
22807W        W39281  17.817  10.955   2.407 -0.3557 -0.2132 -0.2206
22808W        W39282   9.146   2.253  12.727 -0.3701 -0.2475  0.0346
22809W        W39283   5.984  15.288  14.357 -0.3336  0.0196 -0.3373
22810W        W39284  11.202   3.334   4.510 -0.0942  0.1487 -0.4527
22811W        W39285   6.184  12.071   4.264  0.0421  0.0959 -0.0137
22812W        W39286   1.608  13.896   1.567 -0.1751 -0.0281  0.0113
22813W        W39287   4.632   3.505   2.663 -0.2231 -0.1071 -0.2106
22814W        W39288  13.207   2.095   0.826 -0.0518 -0.1245  0.2773
22815W        W39289   7.533   7.070  11.952  0.0364 -0.1891  0.4721
22816W        W39290   1.295  11.856  14.125 -0.2556 -0.2397  0.0132
22817W        W39291  19.330  14.982   0.909  0.1786 -0.0482 -0.0641
22818W        W39292  15.029   2.143   0.674  0.4446  0.0225  0.2699
22819W        W39293  18.481  10.425   4.747  0.2393 -0.0775  0.0168
22820W        W39294   4.806   7.123   2.735 -0.2914  0.0160  0.2883
22821W        W39295   0.392   1.857   1.683  0.0003  0.0577 -0.0336
22822W        W39296  11.275   2.172   2.559 -0.0514  0.2877  0.0435
22823W        W39297  19.046   5.463  10.533  0.1685 -0.1683  0.0625
22824W        W39298   4.716  18.761  13.149  0.0777 -0.2096 -0.0130
22825W        W39299  12.539   1.253  11.777 -0.1157 -0.0314  0.2620
22826W        W39300   2.426   9.901   3.415 -0.1979  0.2812 -0.0094
22827W        W39301   9.190  10.687  11.043  0.1380 -0.0422 -0.0490
22828W        W39302  10.346  17.975   1.169 -0.1936 -0.0919 -0.0244
22829W        W39303  18.863  14.993  11.341 -0.3621 -0.0897  0.0479
22830W        W39304   7.164  12.514   2.194  0.0986 -0.3543  0.2138
22831W        W39305   4.561   5.149   0.856 -0.2776 -0.3708 -0.0196
22832W        W39306   8.977   6.317  13.262  0.1226  0.1396 -0.1654
22833W        W39307  11.424  10.090  14.685 -0.0288  0.2136  0.0279
22834W        W39308  13.624   0.462  12.032  0.1554 -0.1558 -0.0665
22835W        W39309   0.169   0.454   3.189  0.0410 -0.0288 -0.0233
22836W        W39310  16.021  17.011   3.662  0.2016 -0.0977  0.0203
22837W        W39311   8.858  11.333   1.029  0.1147 -0.0937  0.0071
22838W        W39312  11.389  10.398  10.589 -0.2614 -0.1363 -0.1692
22839W        W39313  15.676  13.409  12.667  0.0784 -0.2538  0.1560
22840W        W39314  10.334   3.143   3.799 -0.0718 -0.2042 -0.2026
22841W        W39315   5.031  10.108   0.980  0.1849  0.1622 -0.3746
22842W        W39316   6.568   9.820   4.333  0.1779 -0.2648 -0.2166
22843W        W39317   0.044   1.623  12.194 -0.0511 -0.0327  0.0254
22844W        W39318  12.113   1.538  10.433  0.1533  0.1190  0.0729
22845W        W39319  10.006   1.650   0.642  0.0153 -0.0931  0.2853
22846W        W39320   8.088   9.671   1.055  0.2747 -0.0696 -0.1912
22847W        W39321   8.143   4.672   4.192 -0.1279  0.2705  0.0616
22848W        W39322   2.265  16.233   2.183  0.0392  0.0067 -0.1555
22849W        W39323   3.598  16.568   2.503  0.1190  0.0360 -0.0167
22850W        W39324   7.676  18.939  12.920  0.2687  0.4924  0.1029
22851W        W39325   6.155   0.592   2.711  0.1507 -0.1039  0.0818
22852W        W39326  18.022  16.906  14.249  0.0790  0.0828  0.1531
22853W        W39327   1.588   7.853   3.758  0.0188 -0.1326  0.4534
22854W        W39328  10.776   7.468   5.811 -0.0387  0.1534 -0.0891
22855W        W39329  11.434   9.549   4.452 -0.1432 -0.4042 -0.2760
22856W        W39330   4.820  10.804   5.448 -0.1172 -0.0520  0.2942
22857W        W39331  17.006   1.509   1.671  0.0690 -0.3379  0.3599
22858W        W39332   2.577  10.711   2.599 -0.0656  0.0435 -0.1398
22859W        W39333   0.204  14.448   3.024 -0.1206  0.0660 -0.0118
22860W        W39334  15.671  16.479   4.200  0.0438  0.0172  0.1139
22861W        W39335  15.572  17.857  13.215  0.2582  0.1001  0.0894
22862W        W39336   6.420   7.229   1.178 -0.5139  0.0153 -0.1269
22863W        W39337   8.291   0.965  11.160 -0.1919 -0.1844  0.0068
22864W        W39338   0.780   0.478  10.130  0.0611  0.2277  0.0193
22865W        W39339   7.818   6.428   2.344 -0.2051  0.1179  0.1283
22866W        W39340   2.000   1.653  10.152  0.0088  0.2432  0.0030
22867W        W39341   4.481   9.845  13.695 -0.0948  0.0524 -0.0141
22868W        W39342  15.409  15.572   1.645  0.2620 -0.3143 -0.0014
22869W        W39343  10.154  13.194   4.694 -0.0400 -0.3412  0.1551
22870W        W39344   1.308  19.340  11.742  0.1762  0.0649  0.1645
22871W        W39345  14.302   6.850  12.931  0.0633 -0.1855 -0.0709
22872W        W39346  14.649   9.824   4.531  0.2464 -0.0556  0.1228
22873W        W39347  19.481  15.766  13.047 -0.0868  0.0509 -0.0482
22874W        W39348   2.450  10.106   1.462  0.1485  0.0209 -0.0484
22875W        W39349   3.946   8.385   0.582  0.1294 -0.1330  0.1208
22876W        W39350  11.454   1.901   1.993 -0.0401 -0.0762 -0.3174
22877W        W39351   6.398   4.434  12.865  0.2071  0.2225  0.0905
22878W        W39352   3.121  15.110  12.143  0.0653 -0.0384 -0.3129
22879W        W39353  19.417   2.304   2.674 -0.0899 -0.0404 -0.3861
22880W        W39354   4.459   7.104  14.235  0.1713 -0.0412 -0.1212
22881W        W39355  16.200   5.782  12.628 -0.1127  0.0877 -0.0023
22882W        W39356  11.817   0.515  11.345 -0.0683  0.1420 -0.3594
22883W        W39357   1.090   0.914  10.953  0.0201 -0.1582  0.3462
22884W        W39358  17.289   4.302   1.727 -0.1099  0.2359 -0.0269
22885W        W39359   7.078   4.141   3.239 -0.1394  0.3019 -0.0310
22886W        W39360  16.979   0.472   1.509  0.0647  0.2675  0.2259
22887W        W39361  12.425   7.984   0.424 -0.1944 -0.2168  0.3042
22888W        W39362   7.405  14.255  14.623  0.0511  0.0310  0.1400
22889W        W39363  10.466   4.024   3.616  0.0662 -0.3123 -0.1747
22890W        W39364   4.259  15.453   2.306  0.0282 -0.1143 -0.2996
22891W        W39365   4.707   8.907   0.097  0.1762 -0.2971  0.2824
22892W        W39366   5.581   8.875   2.044  0.1013  0.2845  0.2528
22893W        W39367  17.448   0.827  14.717  0.2457  0.3512  0.1152
22894W        W39368   5.049  17.624  13.286 -0.1352 -0.2144 -0.0967
22895W        W39369   4.566  14.372   3.736 -0.0600  0.1651 -0.1060
22896W        W39370   8.435  17.819  11.341  0.1304 -0.1720  0.1465
22897W        W39371   2.130  10.326  13.651  0.3102  0.1392  0.1843
22898W        W39372  11.755  14.917   2.467  0.3028  0.4003 -0.4895
22899W        W39373   7.585   9.460  13.982  0.0635  0.2595 -0.0194
22900W        W39374  19.576   0.930   9.836  0.4422  0.0236  0.3316
22901W        W39375   3.823  11.541   0.207 -0.0546 -0.0764 -0.3115
22902W        W39376   5.530   2.345   0.381  0.0456 -0.0008 -0.0966
22903W        W39377  10.644  12.511  12.097  0.0214 -0.2078  0.1617
22904W        W39378   2.818   2.654   2.356  0.1168 -0.0018 -0.1668
22905W        W39379   0.732  18.739  14.176 -0.1055 -0.0973  0.1156
22906W        W39380   8.018  12.519  12.671  0.1682 -0.2341  0.0869
22907W        W39381   5.208  13.337  12.582  0.0506 -0.1193  0.2791
22908W        W39382  13.248   9.307  13.755 -0.3641  0.2311 -0.0174
22909W        W39383   8.524   1.552   1.585 -0.2789 -0.1566  0.4031
22910W        W39384  17.794   4.734   1.162 -0.3633  0.2864  0.0106
22911W        W39385  17.994  13.126  12.785 -0.3958 -0.0469  0.0337
22912W        W39386  19.155   2.798  11.421 -0.1161 -0.1076 -0.0349
22913W        W39387  12.610  13.660   1.300  0.1663 -0.2143 -0.1575
22914W        W39388  16.443   3.225  14.101 -0.0348  0.2432 -0.1713
22915W        W39389  11.786   3.232   3.831  0.2136  0.2988 -0.0438
22916W        W39390   3.846  15.778  13.251 -0.2630  0.4699  0.0321
22917W        W39391   8.057  12.004  10.876 -0.3589 -0.3003 -0.1560
22918W        W39392  16.729  18.292   2.581  0.3685  0.0349 -0.1447
22919W        W39393   3.034   8.016   5.631 -0.0519 -0.0929  0.0314
22920W        W39394   2.641   5.029   1.193  0.0213  0.0596 -0.3436
22921W        W39395   3.293   6.573   1.434 -0.2237  0.0605 -0.2675
22922W        W39396  12.174  19.300   1.320  0.0256  0.1771 -0.3465
22923W        W39397   7.643  12.654   2.127  0.0644  0.0960  0.0404
22924W        W39398  12.849   6.252   0.749  0.1985  0.3055  0.1729
22925W        W39399  11.916  11.328   4.770 -0.0084 -0.0974  0.3564
22926W        W39400   6.870  11.530   3.433  0.1169  0.1406 -0.0005
22927W        W39401  10.023  12.181   0.760  0.2699 -0.2511 -0.0336
22928W        W39402   5.448  13.229   3.777  0.0195 -0.0894  0.1801
22929W        W39403  10.680   7.675   3.390  0.0175 -0.1038  0.1574
22930W        W39404  13.506   8.042  13.132  0.0743  0.1693 -0.0118
22931W        W39405   4.772   9.028  10.816 -0.0892  0.3174  0.0769
22932W        W39406  10.624  16.211  10.376  0.0868 -0.1209  0.3205
22933W        W39407   4.921   1.192  13.949 -0.2128  0.0516  0.0170
22934W        W39408  15.453   3.384   1.822  0.2678  0.2963  0.3119
22935W        W39409  10.587   6.688   2.477  0.2054 -0.3244  0.2027
22936W        W39410   9.666   6.920  11.499  0.2582 -0.3501  0.1229
22937W        W39411   5.253   4.054   2.200 -0.3350  0.0130 -0.3650
22938W        W39412   5.556  18.488   0.775 -0.1121  0.0650 -0.1257
22939W        W39413  11.199   1.244  11.008  0.0194  0.0211  0.1247
22940W        W39414  18.534  12.952  12.799  0.0536  0.0033  0.1234
22941W        W39415  10.073   1.188   9.524 -0.2864 -0.1107  0.1590
22942W        W39416   6.222   9.638   4.739 -0.0933  0.1787  0.2119
22943W        W39417  16.118   9.772  13.833 -0.1678  0.3303 -0.1010
22944W        W39418  10.784  16.515   3.223 -0.0860 -0.3846  0.2471
22945W        W39419   7.671  19.321   4.067 -0.2374 -0.3439 -0.3346
22946W        W39420  17.746   8.079  10.683  0.1028 -0.0173 -0.1726
22947W        W39421  11.850   7.085  11.075 -0.0269  0.0790 -0.0567
22948W        W39422   8.522  14.864  12.677 -0.0551  0.2085 -0.1184
22949W        W39423  12.123  17.743  11.277  0.2101  0.1945  0.0680
22950W        W39424   4.577   1.475   3.424  0.3700  0.2316 -0.0546
22951W        W39425   2.555   2.081   2.760 -0.1595  0.1381  0.0650
22952W        W39426   8.536  16.002   9.721  0.1242  0.1037  0.1464
22953W        W39427   9.178  18.475  10.984 -0.1759  0.1305  0.2339
22954W        W39428   2.961   6.221  12.231 -0.2257 -0.0004  0.1400
22955W        W39429  18.585   4.769   2.524  0.3438  0.0435 -0.2213
22956W        W39430   8.359   5.265   1.511 -0.1633 -0.3635 -0.2592
22957W        W39431   3.866  10.578   4.410  0.1793  0.2879 -0.0563
22958W        W39432  17.469  12.968   1.824  0.0173 -0.0590 -0.0580
22959W        W39433   1.633  15.856  10.828 -0.0376 -0.0920 -0.2043
22960W        W39434   4.053   3.490   3.977  0.1019 -0.1083 -0.0078
22961W        W39435  19.261   0.363   1.322  0.2284 -0.4899  0.1162
22962W        W39436  19.264   6.215  11.976  0.0767  0.3400 -0.0427
22963W        W39437   0.891   9.758   1.547  0.0925  0.1063  0.1920
22964W        W39438   5.991   8.337   2.947  0.0974  0.3988 -0.0321
22965W        W39439   3.772   0.389   3.992  0.3189 -0.0109 -0.4010
22966W        W39440   7.652  15.956   1.736  0.0897 -0.1444 -0.0949
22967W        W39441  15.314  10.650   3.019 -0.0194 -0.5413  0.2062
22968W        W39442  10.272   3.706  11.508  0.3960 -0.1293 -0.2499
22969W        W39443  15.084   7.386   2.236  0.0052 -0.2899 -0.0881
22970W        W39444  13.597  18.468  12.926  0.2347 -0.0713 -0.0043
22971W        W39445  11.304   1.912   3.437  0.1462 -0.1725 -0.1675
22972W        W39446  19.558  16.059  13.798  0.0998  0.0707  0.1739
22973W        W39447   0.372   8.927  13.436  0.0195  0.5656 -0.2038
22974W        W39448  12.700   3.163  14.157 -0.0518  0.0100 -0.0124
22975W        W39449  10.893   5.610  11.902  0.3268 -0.0651  0.0238
22976W        W39450  19.202  14.742  14.631  0.0321 -0.0504 -0.0411
22977W        W39451  12.179   4.707  12.275  0.1697  0.2033 -0.0603
22978W        W39452   9.667   1.479  14.492 -0.0027  0.1693  0.1838
22979W        W39453  18.994  10.869  11.728  0.0257  0.0831  0.1036
22980W        W39454  16.185   2.507   4.417 -0.1967 -0.2262  0.0397
22981W        W39455   3.059   3.773   5.422  0.0081 -0.1033 -0.0311
22982W        W39456   4.318   3.713  13.247  0.3096 -0.0997  0.3029
22983W        W39457   4.652  16.446   2.661  0.0851  0.1262 -0.0716
22984W        W39458   3.823  16.309  10.516 -0.0988  0.0582 -0.1703
22985W        W39459   3.495   9.649  12.450  0.1290 -0.2039  0.0383
22986W        W39460   1.605   6.294   4.961 -0.1650 -0.2607  0.1671
22987W        W39461   1.150   9.714  14.441 -0.0960 -0.0785 -0.1915
22988W        W39462   2.197   7.976  14.238  0.0587 -0.1490 -0.0351
22989W        W39463   4.915  11.238  11.699  0.2277 -0.1762 -0.2263
22990W        W39464   2.282   8.686  13.957  0.4216  0.1743 -0.1666
22991W        W39465  12.115   4.916   3.726  0.0522  0.1308  0.0590
22992W        W39466  15.515  15.110  14.540  0.1616 -0.2619  0.2747
22993W        W39467  19.306   2.068  13.997 -0.0321  0.4048  0.3448
22994W        W39468  15.272   1.393  11.303 -0.1473 -0.2147  0.2253
22995W        W39469  12.340   3.912   0.618  0.4415  0.0626  0.1828
22996W        W39470   0.002  15.896  12.528 -0.0017  0.1283 -0.4529
22997W        W39471   5.017   7.397   0.116 -0.2789  0.0567 -0.0423
22998W        W39472  12.394  15.717   0.373 -0.1969 -0.0635 -0.0815
22999W        W39473  16.450  10.376   0.877 -0.0622  0.2595  0.1181
23000W        W39474   9.586   5.017  12.855  0.1774 -0.0435  0.0686
23001W        W39475   3.690   8.943  13.695  0.3550 -0.2247  0.0562
23002W        W39476  14.368  10.263   1.984  0.0779  0.2994 -0.0849
23003W        W39477   1.762   2.836   1.460 -0.2468 -0.3625  0.0297
23004W        W39478   3.211   0.782  11.719 -0.1759  0.1185  0.1605
23005W        W39479  13.395  19.311   3.173 -0.5044  0.0360  0.3378
23006W        W39480   6.384   0.778  12.910  0.1535 -0.3797 -0.0681
23007W        W39481   6.503   8.550   0.989  0.1363  0.0707 -0.1840
23008W        W39482   4.893   7.168   3.950  0.2863  0.0251  0.1040
23009W        W39483  10.123  19.405   2.670  0.0959 -0.2697  0.1089
23010W        W39484   6.442  15.836  14.340  0.1245  0.4663 -0.3489
23011W        W39485  12.549   0.516   4.425 -0.1051 -0.0332 -0.1411
23012W        W39486  16.228   5.638  13.817 -0.0325 -0.2926 -0.2932
23013W        W39487  11.587  16.353   5.255  0.1198  0.2968  0.0551
23014W        W39488  18.887   9.258  14.322 -0.0272  0.0461  0.0858
23015W        W39489  17.336   4.760  11.080 -0.1234 -0.2610  0.4920
23016W        W39490  16.325   2.057  13.847 -0.4550  0.0930 -0.1066
23017W        W39491   9.803   7.271   3.083  0.0417  0.4010 -0.0605
23018W        W39492   4.450   5.502   1.228  0.1241 -0.0058  0.3344
23019W        W39493  17.778   1.112  13.708  0.1738  0.4450 -0.1324
23020W        W39494   8.328   8.552  14.269 -0.0402 -0.0697 -0.1816
23021W        W39495  13.580  16.937  11.664 -0.3397  0.1871  0.4065
23022W        W39496  12.837   1.286  10.522 -0.2134 -0.0520  0.1441
23023W        W39497  10.603  16.542  12.944  0.0526  0.0873 -0.0580
23024W        W39498  15.699  17.172  13.805 -0.2182 -0.2979  0.5061
23025W        W39499  11.346  19.114   1.879  0.3095 -0.1964 -0.2200
23026W        W39500   1.439   4.518  10.724  0.0140  0.2395  0.4140
23027W        W39501   0.284   3.283  10.942  0.2388 -0.2006  0.2136
23028W        W39502   4.384   5.178   0.339  0.2552 -0.0030  0.0399
23029W        W39503   3.999   7.604   0.721  0.0436  0.3068  0.1906
23030W        W39504  12.069   6.257  14.070 -0.3042 -0.0042  0.0316
23031W        W39505  10.419  17.423   4.277 -0.2516  0.1332  0.0690
23032W        W39506   8.739  14.791   5.259 -0.1541 -0.2811 -0.1001
23033W        W39507   9.057   6.994   9.534  0.2205  0.0657  0.0339
23034W        W39508  16.862  18.179   4.900  0.1244  0.0009 -0.1604
23035W        W39509   3.564   9.426  13.908  0.1215  0.0906 -0.1691
23036W        W39510   7.527   1.026   0.497  0.0403  0.0327 -0.0913
23037W        W39511   1.215  11.166  11.975 -0.2896  0.1479 -0.0374
23038W        W39512  11.667   6.170   3.459  0.0209 -0.1943  0.2045
23039W        W39513   3.860   9.861  13.649  0.0957  0.4172 -0.0316
23040W        W39514  12.523   6.763   0.140 -0.0913 -0.1329  0.0861
23041W        W39515  15.828  17.577   3.608 -0.1722  0.1077 -0.0031
23042W        W39516   0.059  18.867   2.661 -0.1221  0.0278  0.1741
23043W        W39517   8.434   1.518   3.122 -0.0551  0.2195  0.1873
23044W        W39518  15.513  14.719   3.389  0.0673  0.1023  0.0411
23045W        W39519   5.672   8.085  12.219 -0.0522 -0.1773 -0.0058
23046W        W39520   6.956   9.317   4.387 -0.0231  0.0793  0.1922
23047W        W39521  16.821   5.787  10.284 -0.3464 -0.0990  0.1562
23048W        W39522  15.841  11.803   0.675 -0.2173 -0.2043 -0.2319
23049W        W39523   4.375   4.640   1.278  0.1773  0.0873  0.0556
23050W        W39524   2.442   3.100   3.041 -0.2662 -0.1257 -0.1524
23051W        W39525  11.095  16.977  10.701 -0.0964 -0.2104 -0.1377
23052W        W39526  16.135   0.187   0.689 -0.3494 -0.0270  0.1051
23053W        W39527  18.285  10.083  10.905  0.2957 -0.0902 -0.0981
23054W        W39528   7.508   9.028  12.160 -0.2452 -0.2502 -0.2824
23055W        W39529   0.955   9.854   2.480 -0.2005  0.0046  0.2476
23056W        W39530  18.985   7.621  12.874  0.0543  0.2573  0.1141
23057W        W39531   6.718   0.855   0.726  0.0348 -0.1368 -0.0387
23058W        W39532  14.946   5.371   1.473  0.1699  0.1521 -0.2243
23059W        W39533  10.664  16.104   4.056 -0.0238  0.2716  0.0258
23060W        W39534  15.437  15.893  13.000 -0.0321  0.3524  0.0305
23061W        W39535   2.094   2.842  11.985  0.0449 -0.1340 -0.1875
23062W        W39536   4.941  10.402  11.575  0.0546  0.4044  0.2217
23063W        W39537  15.197   0.219   3.889 -0.5987  0.0494 -0.1617
23064W        W39538  15.643  11.355  12.290  0.0054  0.0105  0.1275
23065W        W39539   4.877   7.380   1.133 -0.0595 -0.1273  0.0494
23066W        W39540  11.570  17.490   0.583 -0.0268  0.2229 -0.2510
23067W        W39541   4.804   3.191   0.942  0.0210  0.0011 -0.0243
23068W        W39542   0.393   9.798  11.240 -0.0329 -0.1119 -0.2154
23069W        W39543  18.593  14.629   9.971  0.0010 -0.0143 -0.0026
23070W        W39544   0.964  10.634   3.266  0.3756  0.1216  0.2353
23071W        W39545   6.638  13.510  11.075 -0.2394 -0.2917 -0.0784
23072W        W39546   3.254   8.498   2.737 -0.0539  0.2833 -0.3732
23073W        W39547   1.428  11.127   3.907 -0.1177 -0.0098  0.1703
23074W        W39548  11.594  13.192   0.510  0.1321  0.0156 -0.0189
23075W        W39549  11.750   7.707  12.167  0.0925 -0.0781  0.0478
23076W        W39550  10.508  16.862   4.230 -0.4434 -0.0394 -0.0037
23077W        W39551  18.166  16.562  13.263  0.0471 -0.1459  0.0282
23078W        W39552   6.157  10.797  12.317  0.0226  0.2577 -0.1185
23079W        W39553   2.582   8.782   1.487 -0.0991  0.0847 -0.0571
23080W        W39554  13.395   3.779  12.925  0.3037  0.2320  0.0862
23081W        W39555   3.648   8.050  14.071 -0.1960 -0.4025  0.3788
23082W        W39556   3.075   5.808  13.710 -0.2361 -0.0957  0.1304
23083W        W39557  11.219   4.487   1.474 -0.0795  0.1557 -0.2876
23084W        W39558  13.345  12.474  10.887 -0.1561  0.0126 -0.1427
23085W        W39559  12.662   3.233   5.195 -0.3392  0.1327  0.3898
23086W        W39560  10.498   9.350   2.616 -0.1343  0.3174 -0.2190
23087W        W39561  18.701   5.407  10.929 -0.1911  0.0601 -0.0447
23088W        W39562  12.204   8.287  11.552 -0.0511  0.0696 -0.1780
23089W        W39563  19.309  15.211  11.855 -0.1518  0.0028  0.3974
23090W        W39564   3.886   6.409  13.521 -0.0621 -0.1952 -0.0803
23091W        W39565  10.659  17.357   1.196  0.1865 -0.1973 -0.0722
23092W        W39566   0.729  14.357   1.055  0.2566 -0.1522  0.1185
23093W        W39567   3.583   4.789   0.077 -0.0682 -0.0807  0.1440
23094W        W39568   3.820   9.991   3.661 -0.0360  0.0544 -0.3175
23095W        W39569   8.881  16.457   3.198 -0.1313  0.1824  0.1396
23096W        W39570  19.264  17.180  12.202  0.0371 -0.0235  0.2482
23097W        W39571  12.824  19.507  13.391  0.4197  0.0803  0.2524
23098W        W39572  15.438   4.590   1.387 -0.0556 -0.2228  0.0435
23099W        W39573   4.560  12.766   4.694  0.3882 -0.1106 -0.1178
23100W        W39574  18.774  15.183   2.022 -0.1804  0.2559  0.4095
23101W        W39575  10.092   2.114  10.589 -0.1227 -0.1648  0.2806
23102W        W39576  13.525  16.645   1.245 -0.0992 -0.2743  0.1321
23103W        W39577   7.395   7.358   2.091 -0.0118  0.1798  0.3208
23104W        W39578   8.501   1.382  10.391  0.0956 -0.4074 -0.0869
23105W        W39579   8.945   6.840  13.058 -0.1136  0.0820  0.0418
23106W        W39580  10.888   1.774   2.373 -0.3887 -0.0563 -0.0215
23107W        W39581  15.577   9.501  13.901  0.1595  0.1552  0.1841
23108W        W39582   2.940  18.899  13.153 -0.0249  0.1049  0.2588
23109W        W39583   2.886  18.752  14.263  0.2785  0.2313  0.3113
23110W        W39584  10.383  14.777   0.169 -0.0030  0.1119 -0.1194
23111W        W39585   8.862  16.386   1.285  0.2182 -0.1590 -0.1195
23112W        W39586  14.878   0.742  14.427 -0.1325  0.0760 -0.1229
23113W        W39587  13.936   9.639   0.604  0.1202 -0.1372  0.1639
23114W        W39588   2.151   2.979   4.045 -0.1755  0.1169  0.0633
23115W        W39589   2.040  10.588  13.255 -0.3062  0.1986 -0.3584
23116W        W39590  19.072  15.910  12.572  0.0249 -0.0662 -0.1164
23117W        W39591  12.228   4.307  10.526  0.1545 -0.1651 -0.5190
23118W        W39592   6.868  19.440   4.376 -0.2987 -0.2987  0.1846
23119W        W39593  19.180  10.429  11.217 -0.2416 -0.1650  0.0241
23120W        W39594   3.949  19.474   2.658 -0.1804  0.0015 -0.0721
23121W        W39595   3.126  15.406  13.733 -0.0863 -0.1348  0.0678
23122W        W39596  12.791  16.044  13.459  0.5432 -0.3049  0.2279
23123W        W39597   2.846   4.070   1.968  0.0666  0.1939  0.0176
23124W        W39598  17.262   2.712   1.487 -0.0054 -0.1382  0.1809
23125W        W39599   8.767   2.743   5.036 -0.3350 -0.2307 -0.2590
23126W        W39600   3.383  17.582  10.591 -0.2937  0.0711 -0.1623
23127W        W39601   9.492  18.912  13.538  0.0675  0.0996 -0.0938
23128W        W39602  16.589   5.286  13.678 -0.0554 -0.0689  0.0708
23129W        W39603   1.096  19.540   1.260 -0.1913 -0.3147 -0.2643
23130W        W39604   6.967  17.592  11.073  0.1077  0.2772 -0.0811
23131W        W39605   0.201  18.888   1.294  0.0022  0.1785  0.0673
23132W        W39606   1.599  18.412   4.105 -0.1466  0.1106  0.0627
23133W        W39607  14.689  13.610   1.891  0.1821 -0.1622 -0.0006
23134W        W39608  14.469   2.078  12.469 -0.1892 -0.0560 -0.3385
23135W        W39609   4.677  17.338  11.347  0.2000  0.1859 -0.0518
23136W        W39610   8.003   0.860  13.611  0.0887  0.3652 -0.0045
23137W        W39611  15.303  10.676  10.851 -0.0099 -0.0968  0.3001
23138W        W39612  14.468   9.982  13.917 -0.2086  0.0522 -0.0707
23139W        W39613  14.813   2.876   0.210  0.0958 -0.2493  0.0365
23140W        W39614   6.720  15.404   3.570  0.0152 -0.1236  0.0417
23141W        W39615   8.733  12.734  13.632 -0.1705 -0.0064 -0.0806
23142W        W39616   9.942   2.818   3.916 -0.0057  0.0409  0.1185
23143W        W39617   0.680  18.409   2.384  0.1929  0.0324 -0.1517
23144W        W39618  16.860   1.989  12.392  0.1550 -0.0838  0.3104
23145W        W39619   8.637   9.963  13.668 -0.4536 -0.3940 -0.2762
23146W        W39620   7.159   8.592   3.742 -0.0323 -0.0388  0.1711
23147W        W39621  16.976  10.377   0.075 -0.3139  0.2266  0.2007
23148W        W39622   2.481   6.739  10.412 -0.0494 -0.2891  0.0534
23149W        W39623  14.119   9.810  13.405 -0.1278 -0.0017 -0.0934
23150W        W39624  19.382   8.826   2.373 -0.1911 -0.1371  0.0520
23151W        W39625  17.055   9.586   1.055  0.3139 -0.1291  0.1371
23152W        W39626   8.280   9.625  10.337  0.0884  0.0031  0.0045
23153W        W39627  19.138   7.305  14.340  0.0236 -0.0137  0.1387
23154W        W39628  12.662  18.842   2.045  0.3900 -0.4043  0.1149
23155W        W39629  13.627  16.075   3.315 -0.2244  0.0558 -0.1749
23156W        W39630  16.434  10.824  12.379  0.3737 -0.3030  0.1246
23157W        W39631   4.853   5.364  10.333  0.0478  0.0142 -0.1240
23158W        W39632   3.441  10.603  12.312  0.0445 -0.2088 -0.2168
23159W        W39633  18.632  10.653   9.800  0.1415 -0.1208 -0.1985
23160W        W39634  17.488  17.651  13.154 -0.2477  0.1612 -0.1582
23161W        W39635  18.113   3.444  14.311  0.2339  0.1691 -0.0014
23162W        W39636  19.368  17.538   2.654  0.0274 -0.1857  0.1067
23163W        W39637   1.731   8.020  14.078 -0.1553 -0.1174 -0.2236
23164W        W39638   1.444  19.226   1.629  0.3373 -0.0112 -0.2162
23165W        W39639   0.991   6.118  13.245 -0.0964  0.1888  0.0897
23166W        W39640  17.336  11.713  13.401  0.1110  0.2458 -0.1317
23167W        W39641   7.130  15.669  12.269  0.2205  0.0069 -0.2995
23168W        W39642  13.639  18.970  13.159  0.0551 -0.0209  0.1422
23169W        W39643  15.155  19.520   0.215  0.0905  0.1223  0.4135
23170W        W39644  18.193  10.303   3.679  0.0431 -0.1741  0.3996
23171W        W39645  13.688  12.529  10.500 -0.0467 -0.2768 -0.1041
23172W        W39646  14.534  14.250   0.053 -0.1747  0.2448 -0.2054
23173W        W39647  10.491  19.551  14.366 -0.0144  0.0331 -0.2768
23174W        W39648  17.424   7.597   0.842 -0.0141 -0.1852 -0.0632
23175W        W39649   4.154  14.965   3.210 -0.0210  0.4264 -0.0530
23176W        W39650  16.858  15.916  11.979 -0.1361 -0.2601 -0.1654
23177W        W39651  10.633  10.883  13.567  0.1084  0.3080  0.1527
23178W        W39652   2.181  19.412  13.359 -0.2341 -0.0338 -0.0289
23179W        W39653   0.864   1.293  11.316 -0.2133 -0.0291  0.0646
23180W        W39654  16.509   6.036  14.583  0.0295 -0.0608  0.1325
23181W        W39655   2.547   9.481  12.734 -0.1139 -0.2612  0.0291
23182W        W39656   2.631  10.891   9.980  0.4426 -0.2024  0.2659
23183W        W39657  10.694   6.136   0.106  0.0766 -0.3459 -0.0051
23184W        W39658  19.235   7.523   2.921 -0.0126  0.0897 -0.1628
23185W        W39659   8.803  10.479  10.860 -0.2773  0.1305  0.0967
23186W        W39660   0.042   6.900  13.784 -0.0027  0.2516  0.0094
23187W        W39661   3.867   9.326   0.211 -0.1334  0.3815  0.0474
23188W        W39662   4.301   6.565  13.792  0.2705  0.2180  0.1819
23189W        W39663   9.054  17.478   0.729  0.0879 -0.0395  0.0286
23190W        W39664  16.905  10.540   0.803 -0.0234 -0.1974  0.2746
23191W        W39665   0.245   3.646  12.102  0.0065  0.0264  0.2379
23192W        W39666   0.103   6.732   4.046  0.4312 -0.2129  0.0279
23193W        W39667  18.466   6.076   0.294 -0.0587 -0.1731 -0.3111
23194W        W39668  12.872   8.859   1.316  0.3796 -0.3032  0.1975
23195W        W39669   4.861  14.810   3.827  0.2795  0.2795 -0.0765
23196W        W39670  10.694   6.681   1.822 -0.0063 -0.1243 -0.2742
23197W        W39671  17.993   2.651  12.263 -0.1795  0.2657 -0.0705
23198W        W39672   8.090   7.884   2.189  0.1880  0.0213  0.0147
23199W        W39673   6.618   1.666  13.476 -0.3543  0.0949  0.3496
23200W        W39674  19.185  17.941  12.525  0.0403  0.2569  0.0303
23201W        W39675   2.520   4.727  11.641 -0.1184  0.0146  0.1255
23202W        W39676  10.320   3.751   3.082  0.3928 -0.2043 -0.1241
23203W        W39677   5.084  18.580   4.250 -0.0194 -0.0679  0.1187
23204W        W39678   4.134  15.402  12.190  0.1427 -0.0958 -0.2376
23205W        W39679  13.464  18.963   0.773  0.1481  0.0250  0.0459
23206W        W39680  12.271   0.234   4.036  0.0164 -0.0948  0.0087
23207W        W39681  16.225   0.343  13.082 -0.2153  0.0359  0.0496
23208W        W39682   1.025  14.663  12.720  0.0611 -0.4674  0.0111
23209W        W39683  17.951  17.322  12.853  0.1733  0.2690 -0.2225
23210W        W39684  13.696   2.914   3.332 -0.2507  0.1016  0.2021
23211W        W39685   4.435   0.109   2.775  0.1949 -0.3551  0.0209
23212W        W39686   0.089   5.027  12.514  0.1232 -0.1991 -0.1971
23213W        W39687  10.310   8.058  11.277 -0.4070 -0.2844  0.2152
23214W        W39688   7.561   6.103   2.672 -0.0949 -0.0120  0.2307
23215W        W39689  10.401   1.700   1.116 -0.1406  0.0070 -0.0382
23216W        W39690   0.002  16.116   1.622  0.0913  0.0983  0.2363
23217W        W39691  12.655   3.686   2.552  0.0736 -0.0575 -0.3209
23218W        W39692   6.083   4.816  13.384 -0.0462 -0.1167  0.0841
23219W        W39693  18.513   7.973  10.849 -0.1459 -0.0240  0.2048
23220W        W39694  16.695  13.938   3.870 -0.1358  0.0662 -0.0092
23221W        W39695   7.629  11.572   0.795 -0.0389  0.2616 -0.1133
23222W        W39696  18.839  10.708   1.923 -0.0580 -0.0457  0.1375
23223W        W39697  16.353  10.388   2.136  0.4942 -0.1575  0.0084
23224W        W39698   8.314   8.297   2.099 -0.0314  0.0859 -0.2978
23225W        W39699  12.302  19.563  13.317 -0.1455  0.1348  0.1528
23226W        W39700  18.270  10.536  10.768  0.2224  0.2503  0.1273
23227W        W39701  11.626   1.631   0.198  0.2424  0.0884  0.1878
23228W        W39702   3.934   8.805   4.807 -0.1581 -0.1742 -0.0899
23229W        W39703  13.440  14.477  11.941 -0.1489 -0.1010  0.3315
23230W        W39704  17.490   4.309  10.080  0.1860  0.2283 -0.0366
23231W        W39705   6.521  13.052  13.275  0.0633  0.1757  0.2457
23232W        W39706   0.053   2.790   3.359  0.3753 -0.3665  0.1329
23233W        W39707   4.959   2.491   4.719 -0.1263  0.0186  0.3891
23234W        W39708   5.018   9.070  13.727  0.0948  0.1118 -0.3977
23235W        W39709  10.284   5.410   0.661 -0.0657 -0.1237  0.0602
23236W        W39710  18.367  12.013   9.495 -0.0515  0.3680 -0.1080
23237W        W39711  13.560  12.962  14.236 -0.1208  0.0693 -0.0282
23238W        W39712   4.783   1.240  11.133  0.2230  0.1607 -0.1236
23239W        W39713  10.760  14.583   3.937  0.2107 -0.1686  0.1182
23240W        W39714  16.095  16.466   4.618 -0.0644  0.1749  0.0156
23241W        W39715  10.910  12.623   4.981 -0.2644  0.2506 -0.1763
23242W        W39716  19.171   4.854  12.609 -0.0002  0.1444 -0.1141
23243W        W39717   7.405   4.926  14.276 -0.1825 -0.4124  0.1027
23244W        W39718  16.830   1.269   2.977  0.4422  0.2330 -0.1113
23245W        W39719   6.811   4.018   1.259  0.1689  0.1590 -0.2217
23246W        W39720  16.505  14.409   4.828 -0.0584 -0.3604 -0.2752
23247W        W39721  14.071  12.885   1.682 -0.1365  0.0084  0.1571
23248W        W39722   2.786  19.017   1.980 -0.2981  0.1569 -0.0463
23249W        W39723   3.599   3.397  11.160  0.0179 -0.0866  0.1839
23250W        W39724  12.905   3.229   3.512 -0.0549  0.1867  0.1003
23251W        W39725  12.849  11.770   3.741 -0.2913 -0.4603  0.2698
23252W        W39726   0.128  19.489  12.748 -0.0073  0.3261  0.1591
23253W        W39727  18.603   1.821   3.661 -0.2261  0.1257 -0.0941
23254W        W39728   0.265   2.691  13.407 -0.1881 -0.3148 -0.2562
23255W        W39729   3.987  12.439   1.407 -0.1610 -0.1513 -0.0041
23256W        W39730   8.319  16.205   4.333 -0.0146  0.1825 -0.3953
23257W        W39731   6.142   4.587   2.405  0.0411  0.0068  0.0293
23258W        W39732   1.893   0.633   4.940  0.0234  0.2917 -0.2671
23259W        W39733   9.183  15.708  13.479  0.0034  0.1429  0.0131
23260W        W39734   5.111  15.126   9.355 -0.1690 -0.3297  0.0799
23261W        W39735  16.767  15.989   1.338 -0.1502  0.2373 -0.1810
23262W        W39736  18.663   8.288   9.584  0.2911  0.0411  0.0831
23263W        W39737  11.642  15.802  13.582 -0.0784  0.0104  0.2429
23264W        W39738  18.591   7.304   1.126 -0.2598 -0.0186 -0.2160
23265W        W39739   7.512   7.468  12.423 -0.0917 -0.0439  0.1513
23266W        W39740   3.830  10.788  10.563  0.0802  0.0313 -0.0369
23267W        W39741   5.647   7.824   3.686 -0.0592 -0.0146  0.0777
23268W        W39742   7.055   5.060  10.331  0.1295  0.0564 -0.0188
23269W        W39743   0.658  18.509   4.150  0.1234  0.1921 -0.3206
23270W        W39744   8.092  14.017   3.073  0.0270  0.1196  0.2502
23271W        W39745   4.056  12.303  11.231  0.0290 -0.0721  0.1597
23272W        W39746  11.545   0.647  12.311 -0.1539  0.0227 -0.0654
23273W        W39747  17.802  12.473   1.232 -0.2594  0.2034  0.1644
23274W        W39748  11.915   7.319   1.481 -0.2001 -0.1580 -0.3555
23275W        W39749   0.256  10.126  12.656  0.0591  0.2276 -0.0883
23276W        W39750  12.813   1.147  13.614  0.3416 -0.2487 -0.2010
23277W        W39751   0.506  11.797  10.981  0.0152 -0.3475 -0.0240
23278W        W39752  14.311  18.192   2.667  0.1827  0.2946 -0.0296
23279W        W39753  11.399   8.875   1.672 -0.1894  0.0835  0.1176
23280W        W39754  16.814   8.235  12.759  0.1146 -0.1474 -0.0927
23281W        W39755  11.562   1.921  13.463  0.2494 -0.2899 -0.2702
23282W        W39756  18.469  19.435  10.792  0.0735 -0.2983 -0.0620
23283W        W39757  12.618   2.928  10.952  0.1843  0.3937  0.2347
23284W        W39758  14.708  16.800  11.444  0.0952  0.2884  0.0769
23285W        W39759  13.322   1.959  11.556 -0.2848  0.0631 -0.0076
23286W        W39760   7.783   8.576  12.306  0.0153  0.0137  0.2789
23287W        W39761   2.722   3.608   1.093  0.1469  0.2082 -0.3415
23288W        W39762  11.207   5.727   3.595 -0.3396  0.1612 -0.0358
23289W        W39763  15.120  10.699  13.266 -0.2214 -0.0603  0.1016
23290W        W39764   6.792   4.459  13.659  0.0372 -0.1484 -0.0310
23291W        W39765  10.568   9.144  11.689  0.1630  0.0802 -0.1237
23292W        W39766  19.418   3.812  13.768  0.1261  0.1549  0.1221
23293W        W39767  16.881   3.004   1.728 -0.1021  0.0646  0.0668
23294W        W39768   2.109   2.637   0.832 -0.2149  0.0202 -0.0628
23295W        W39769   7.949   5.847   3.029 -0.0768  0.0521  0.3784
23296W        W39770  10.114   7.867   3.779  0.0700 -0.0609  0.0932
23297W        W39771  14.284   9.464  13.701  0.0165  0.0934 -0.0934
23298W        W39772   1.126   4.077   9.779  0.0481 -0.3172  0.2775
23299W        W39773  10.163   9.917   3.326  0.0858 -0.1676 -0.2153
23300W        W39774  15.388   3.461  14.235 -0.0486 -0.0336 -0.0463
23301W        W39775  18.127   7.090   1.487  0.4329 -0.4862 -0.2538
23302W        W39776  12.317   4.967   2.383  0.0827 -0.1981  0.5163
23303W        W39777  16.244   0.929  14.386  0.0346  0.0208 -0.1775
23304W        W39778  12.064  11.599   5.192  0.3599 -0.0883  0.1441
23305W        W39779  17.699   7.680   1.802 -0.1116 -0.0598  0.0744
23306W        W39780  19.354   0.416   3.507 -0.3164 -0.1094  0.0669
23307W        W39781   6.746  18.337  10.979 -0.0740  0.2357  0.3102
23308W        W39782   1.106   1.796   3.005  0.1240  0.4927  0.0883
23309W        W39783   3.636  16.840   2.108 -0.1896  0.3475 -0.1936
23310W        W39784  18.174  11.918   1.945  0.2064  0.0011 -0.0320
23311W        W39785   7.538   4.421  14.314  0.0569  0.2043 -0.1135
23312W        W39786   9.534  18.887   5.352 -0.1285  0.2343  0.2150
23313W        W39787   5.626   5.257   1.979  0.2791 -0.3342 -0.1023
23314W        W39788   9.043  12.072   2.319 -0.0221 -0.0638 -0.1036
23315W        W39789   9.844  18.779  14.545  0.2308 -0.0413 -0.0593
23316W        W39790  10.328   6.418  12.819  0.2080 -0.1575  0.0149
23317W        W39791  18.141   7.204  12.177 -0.1509 -0.0587 -0.3317
23318W        W39792  14.726  17.433  13.707  0.1520 -0.2520 -0.1765
23319W        W39793   9.119  15.137   1.651  0.0770 -0.0845  0.0574
23320W        W39794   8.771   4.105   1.447 -0.0999  0.0054 -0.2236
23321W        W39795  11.217   7.275   1.818 -0.1244 -0.1504  0.2196
23322W        W39796  14.312  12.227   5.311 -0.0390 -0.2017 -0.0451
23323W        W39797   5.658   2.468  13.618 -0.0257  0.2089 -0.2531
23324W        W39798   3.950  16.294  11.013 -0.1650 -0.1845  0.0969
23325W        W39799  19.270  12.066  12.967  0.1265  0.1293  0.2069
23326W        W39800  13.176  10.230   4.092 -0.1714 -0.0350  0.0022
23327W        W39801   3.249   8.380   5.455 -0.0042 -0.1210  0.0715
23328W        W39802   6.779   4.073   0.767 -0.2405  0.1549  0.0801
23329W        W39803   8.631   0.902  13.710  0.0790 -0.1586 -0.0850
23330W        W39804   8.373  17.227   4.511  0.2749  0.1602 -0.0609
23331W        W39805  12.316  18.817  11.504 -0.3393 -0.0491  0.1238
23332W        W39806   4.523  16.388  10.974  0.1729  0.1279  0.2523
23333W        W39807   6.290  14.319  14.428 -0.2046  0.1170 -0.4005
23334W        W39808   7.062  14.591   2.764  0.1222 -0.1663  0.3359
23335W        W39809   3.131   2.898   3.362 -0.0885 -0.1375  0.0407
23336W        W39810  12.619  15.550   1.431  0.0401 -0.2465 -0.3103
23337W        W39811   0.274   2.796   2.704 -0.1201  0.2966  0.0540
23338W        W39812   7.361   1.946   2.750  0.3210  0.0923  0.0184
23339W        W39813  12.562  15.811   1.012  0.2383  0.0029 -0.0189
23340W        W39814  12.461   4.344   4.881  0.1250  0.0844  0.3595
23341W        W39815  16.998   0.409   2.494  0.1450  0.1612  0.0223
23342W        W39816  10.487  19.380   2.979 -0.3386  0.2637 -0.0247
23343W        W39817   2.983   6.973   1.660  0.0335  0.2988  0.3291
23344W        W39818   9.039  16.991   0.919  0.2288  0.2015 -0.1333
23345W        W39819   8.912   0.709   4.773 -0.0907  0.1195  0.0181
23346W        W39820  19.387   7.096  11.280  0.0567  0.0553  0.0748
23347W        W39821   1.044   7.723   3.775  0.1925 -0.3176 -0.0953
23348W        W39822   0.138   4.327   2.328  0.0759 -0.3042 -0.0430
23349W        W39823   3.712   9.088   3.998  0.0923 -0.5555 -0.2246
23350W        W39824   4.509  16.212   0.780  0.1387  0.0034 -0.0388
23351W        W39825  10.727   7.287  11.744 -0.0072 -0.1320 -0.0163
23352W        W39826   4.503   9.490  10.735 -0.2041 -0.3613 -0.2281
23353W        W39827  10.514   5.047   0.972 -0.4116 -0.0274  0.2657
23354W        W39828   8.718   2.179   0.746 -0.1116 -0.0107 -0.4473
23355W        W39829  11.074   0.817   2.719  0.4305 -0.0379 -0.0552
23356W        W39830   7.168   1.330   2.311  0.2824 -0.0554 -0.1101
23357W        W39831  16.211  12.014   4.634  0.1860  0.2092 -0.0106
23358W        W39832   7.552  15.669   3.337  0.0265  0.2656  0.2283
23359W        W39833   3.840  19.262  11.409  0.1214 -0.5946  0.0577
23360W        W39834  10.212   2.411   1.835 -0.0386  0.3790 -0.5609
23361W        W39835  12.069   7.449  11.871 -0.1170 -0.0176  0.1042
23362W        W39836   7.701   8.124   3.096 -0.0377 -0.1434 -0.0580
23363W        W39837  16.352  18.792  10.705  0.0284 -0.3762 -0.3269
23364W        W39838  18.644   0.225   5.018 -0.0820  0.3120  0.1754
23365W        W39839  16.838  10.016   0.954 -0.0307  0.3821  0.0923
23366W        W39840   7.395  13.371  11.720  0.1134  0.0769 -0.2340
23367W        W39841  11.230  13.886  14.418 -0.0613  0.1697 -0.2952
23368W        W39842   1.574  19.566  14.020  0.0215 -0.0129 -0.0214
23369W        W39843   9.851  10.935  13.244 -0.0450 -0.1413 -0.0316
23370W        W39844  18.925  17.662  14.701 -0.2786  0.1859 -0.3151
23371W        W39845  15.024  19.027  10.784  0.0675 -0.1358 -0.1974
23372W        W39846   6.147   2.276  13.542 -0.1245  0.0551  0.3474
23373W        W39847  11.507   6.468   5.078 -0.2572  0.0421  0.1674
23374W        W39848  12.081   4.477   0.546  0.1560  0.2070  0.3143
23375W        W39849   9.564  16.541  11.671  0.1902  0.2512  0.2019
23376W        W39850   4.656  18.252   2.556  0.2259 -0.1340  0.3025
23377W        W39851  19.568  18.004   1.813 -0.0414  0.1027 -0.1043
23378W        W39852   1.940  10.395  14.222  0.0804 -0.2560  0.2652
23379W        W39853  10.532   5.580   3.435  0.1621  0.1608 -0.0978
23380W        W39854   4.585  15.489  13.309  0.2954 -0.1787  0.0983
23381W        W39855   7.176   6.131  13.366  0.0485  0.1311  0.2491
23382W        W39856  14.167  19.384   4.946  0.0080  0.4915 -0.1270
23383W        W39857  18.239   6.527   4.621  0.1964  0.1268 -0.1410
23384W        W39858   1.170   2.788   2.185  0.2777  0.3205  0.0144
23385W        W39859   1.598   4.437   1.003  0.1035 -0.0365  0.3247
23386W        W39860  14.033   8.229   5.238 -0.2411 -0.1330 -0.1032
23387W        W39861   2.898  11.910  12.059 -0.3275  0.2812 -0.0160
23388W        W39862  13.352   4.554   5.033 -0.2021 -0.1220 -0.2270
23389W        W39863  16.588  11.564  10.990 -0.0443 -0.0185 -0.2961
23390W        W39864   1.033   0.326  12.916 -0.1244 -0.1415  0.0035
23391W        W39865  15.461   5.600   4.285  0.0418 -0.0615 -0.0334
23392W        W39866   8.478   7.950  11.281 -0.0840 -0.1608 -0.2202
23393W        W39867   1.638   2.900   2.923  0.3666 -0.1682  0.0928
23394W        W39868   3.967  16.416  12.254  0.1477  0.0702 -0.3731
23395W        W39869   4.108   8.366  10.432 -0.1558  0.3828 -0.1955
23396W        W39870  17.125  14.999   4.600  0.1808  0.3384  0.2453
23397W        W39871   6.817   4.952  12.244  0.0294 -0.0553 -0.1394
23398W        W39872  15.161   7.537   3.961 -0.1156  0.2679  0.2374
23399W        W39873  13.849   8.181  14.282  0.0247 -0.0705 -0.2320
23400W        W39874  17.550   9.338  12.000  0.1896 -0.1828  0.1203
23401W        W39875   3.940  18.938   2.616 -0.3109 -0.1323  0.0867
23402W        W39876   2.265   8.046  10.293  0.1809 -0.1383 -0.0347
23403W        W39877   3.125   3.887  13.515  0.1969  0.5488  0.2656
23404W        W39878   3.616  18.544   4.073 -0.4506 -0.1532 -0.3072
23405W        W39879  18.508   9.547   1.411 -0.1518  0.2240  0.3160
23406W        W39880   6.523   5.317   0.188 -0.1636 -0.2542 -0.1053
23407W        W39881  13.652   1.071   3.878 -0.2084  0.2405  0.1530
23408W        W39882   4.527   9.937   1.783 -0.0795  0.2087  0.4232
23409W        W39883   5.181  17.099   2.684 -0.1249  0.0448  0.0667
23410W        W39884  16.782  14.631   1.832 -0.3475  0.0631  0.2563
23411W        W39885  16.935  11.802  10.469 -0.0012 -0.4625 -0.0209
23412W        W39886  15.994   2.415  14.004  0.0611  0.0486 -0.2306
23413W        W39887  11.063  11.196  10.798  0.0624 -0.3969 -0.1230
23414W        W39888  16.785   0.940   1.664  0.1443 -0.4051 -0.4486
23415W        W39889  10.344   8.892   3.618 -0.0614 -0.0868  0.1080
23416W        W39890   3.529  14.757  14.144  0.0205  0.0564  0.2917
23417W        W39891  13.746  18.916   1.812 -0.0319 -0.1885 -0.0378
23418W        W39892   4.425   2.774  13.067 -0.0384 -0.0929  0.2817
23419W        W39893  18.215  17.112   4.382  0.0549 -0.4239  0.1781
23420W        W39894   0.852   7.608   1.282  0.0258  0.1283  0.2202
23421W        W39895   6.530  16.374   2.632 -0.0725  0.2294  0.0328
23422W        W39896   4.236   1.013   1.751 -0.0019  0.0196  0.0029
23423W        W39897  17.261  11.433   5.096 -0.3066 -0.2209  0.3178
23424W        W39898  10.747  18.264   0.327 -0.0972  0.1300  0.1066
23425W        W39899   1.115   9.691   0.310  0.2180  0.2860  0.0566
23426W        W39900  17.463   3.413  14.131 -0.2891 -0.3626  0.0482
23427W        W39901  16.652   6.297  13.337 -0.5199 -0.0238 -0.0139
23428W        W39902  10.949   0.898   0.579 -0.0386  0.0512 -0.0771
23429W        W39903   5.823   6.435   3.301  0.0302  0.1575 -0.0048
23430W        W39904  14.376   9.513   4.249 -0.1243 -0.0756 -0.0589
23431W        W39905  15.649  15.824  13.507 -0.2786  0.0014 -0.0294
23432W        W39906   5.977   2.875  13.841 -0.0436 -0.0111  0.4228
23433W        W39907  16.999   5.755   5.738  0.0412 -0.1732 -0.0714
23434W        W39908   4.530   6.763   5.356 -0.0725 -0.4594  0.0878
23435W        W39909   1.007  13.622   1.307  0.1576 -0.2529 -0.2442
23436W        W39910  14.311   2.825  10.944  0.0207 -0.0870 -0.1025
23437W        W39911   2.500  10.532   1.707 -0.0521  0.0418 -0.2708
23438W        W39912  19.361   7.803   0.118 -0.4387 -0.3524  0.1964
23439W        W39913   3.476   6.070   4.539 -0.3815 -0.1451  0.0809
23440W        W39914   8.322   4.121  13.734  0.1059 -0.1162  0.0676
23441W        W39915   6.003  15.047  11.177  0.1077  0.2553  0.2923
23442W        W39916   4.777  14.302  12.190 -0.0505 -0.2939  0.1359
23443W        W39917   9.579  10.741  10.519  0.0562  0.0829 -0.2319
23444W        W39918  16.294   4.125   3.697  0.0915 -0.1165 -0.1868
23445W        W39919   2.153   7.467   4.848 -0.1955 -0.0907 -0.3341
23446W        W39920  14.909   3.139  10.424  0.2174 -0.2713 -0.2556
23447W        W39921  15.429  18.886  13.525  0.1035 -0.2826 -0.1291
23448W        W39922  14.694   0.805   4.509  0.0569  0.0460 -0.2290
23449W        W39923   3.807   5.023  12.744 -0.0689 -0.3015 -0.3941
23450W        W39924   0.009   5.834   0.377  0.1596 -0.0044  0.2736
23451W        W39925  13.868   3.485   3.679 -0.2323 -0.2370 -0.0458
23452W        W39926   3.547  13.915   3.055 -0.2899 -0.0310 -0.1289
23453W        W39927  14.925   9.857  11.325  0.0266 -0.2145 -0.0322
23454W        W39928  17.790  16.423   9.515 -0.1179 -0.0612 -0.1661
23455W        W39929  16.851   1.924  14.218  0.1037  0.0013 -0.0015
23456W        W39930   4.837  10.729   1.878  0.0078 -0.0587  0.0723
23457W        W39931   7.938   9.833  13.818  0.2379 -0.5131 -0.0187
23458W        W39932  12.913  16.522   1.821 -0.0107  0.1906 -0.1159
23459W        W39933  14.519   5.554   4.875 -0.0508  0.1768 -0.1994
23460W        W39934   4.721   7.897  12.199 -0.0751  0.3716  0.1382
23461W        W39935   5.667   5.310   4.611 -0.2553 -0.1622  0.2103
23462W        W39936  15.933   5.685   0.664  0.0799 -0.3626  0.2909
23463W        W39937  16.430   4.501  14.253  0.0936  0.0663  0.2278
23464W        W39938  13.721  11.153  14.508  0.0499 -0.4787  0.0356
23465W        W39939   5.278   1.979  13.779 -0.1041  0.1562  0.1722
23466W        W39940   0.679   8.799  13.944 -0.1199  0.0066 -0.1080
23467W        W39941   3.604   8.849   4.437 -0.0895 -0.2306 -0.1651
23468W        W39942   4.393  19.335  11.504  0.0049 -0.1658 -0.0159
23469W        W39943   9.793   4.269   4.974  0.0985 -0.0168 -0.1214
23470W        W39944  18.374  18.303   3.966 -0.1263  0.1887 -0.1088
23471W        W39945  17.452  13.014   5.174 -0.2182  0.0579 -0.1292
23472W        W39946   9.328   4.422  12.065  0.0223 -0.1865  0.2343
23473W        W39947   2.245   9.022  13.468  0.3135  0.2534 -0.1172
23474W        W39948  16.402   9.961   2.816 -0.0563  0.0072  0.1559
23475W        W39949  16.464   3.814   3.320 -0.0470  0.1071 -0.2916
23476W        W39950   0.611  15.089   1.682 -0.0680  0.1478 -0.3811
23477W        W39951  18.516  12.598  13.896 -0.0273 -0.0775 -0.1181
23478W        W39952  12.818   0.956   1.156  0.0918 -0.3397 -0.0610
23479W        W39953   4.591  18.785  14.667  0.0998 -0.0412  0.1654
23480W        W39954   1.613  12.183  11.764  0.1924  0.1376  0.0487
23481W        W39955   3.613  10.991   3.113 -0.0589 -0.0521  0.2893
23482W        W39956   6.350  18.624   3.395 -0.1939 -0.0078  0.0947
23483W        W39957  12.119  19.360   5.199  0.0869 -0.2991 -0.0582
23484W        W39958  17.088   8.568   3.115  0.2707 -0.0820  0.1803
23485W        W39959   0.018   0.664  10.834 -0.3132  0.1817  0.0258
23486W        W39960   8.642   9.278  10.509 -0.0954 -0.0078 -0.3058
23487W        W39961  16.784  14.948   1.325  0.0720 -0.2332  0.3107
23488W        W39962  19.433  10.524   0.020  0.4186 -0.0711  0.1176
23489W        W39963  11.911  17.595  13.508  0.0101 -0.0977 -0.1918
23490W        W39964   0.092  12.282   1.038 -0.0975  0.0648  0.1416
23491W        W39965  16.214  11.358   1.471 -0.1098 -0.1542  0.0884
23492W        W39966  14.112  19.024   2.824 -0.1579 -0.1155  0.0270
23493W        W39967   7.058   0.543   3.899 -0.0565 -0.1695 -0.0902
23494W        W39968   4.683   1.843  12.411 -0.0521  0.0184 -0.1170
23495W        W39969  12.825   9.762   1.320  0.2088 -0.3814  0.2411
23496W        W39970  10.516   3.383  11.251  0.1335  0.3765  0.1788
23497W        W39971   1.412   0.148  12.079 -0.0152  0.6186 -0.1103
23498W        W39972  18.248   5.725  10.842  0.2521 -0.0855 -0.2265
23499W        W39973   2.067   4.376  12.337  0.4606 -0.0959 -0.2740
23500W        W39974   4.805   5.809  10.898 -0.2880 -0.0191  0.2076
23501W        W39975   4.450   7.352  10.148  0.1448 -0.1061 -0.0895
23502W        W39976   3.603   1.818   4.486 -0.0259  0.0105  0.0861
23503W        W39977   7.586  12.358   1.356 -0.1544  0.1887  0.0964
23504W        W39978   2.336   9.713  10.590 -0.1540  0.0476 -0.1709
23505W        W39979   2.470   3.627  12.081 -0.0487  0.1522  0.3236
23506W        W39980   5.770   0.263   2.597  0.0315 -0.1587 -0.1818
23507W        W39981  15.694  18.430   2.792 -0.1592 -0.0163 -0.1151
23508W        W39982  17.075  10.878  12.824  0.0047 -0.3287  0.1024
23509W        W39983  18.545  18.342   4.914 -0.3323  0.0479  0.0317
23510W        W39984   4.905  18.820   0.399 -0.0206  0.3023 -0.0370
23511W        W39985   9.605  12.893   2.025 -0.1440  0.1077 -0.0812
23512W        W39986   7.270   9.870   2.858 -0.1928 -0.0341 -0.3150
23513W        W39987   9.081   3.868   0.641 -0.0151  0.0534  0.0469
23514W        W39988   5.889  19.041  14.215  0.0463 -0.1745  0.0008
23515W        W39989  11.201   5.657   1.063  0.4606 -0.3475  0.1376
23516W        W39990   6.597  10.481   1.707  0.0218 -0.0589 -0.1022
23517W        W39991  16.738   5.759  13.766  0.0994 -0.0301  0.0594
23518W        W39992   5.564   1.256  13.873 -0.0924  0.2576 -0.0988
23519W        W39993  13.100   7.721   2.049 -0.0346 -0.0216 -0.0797
23520W        W39994  16.846  11.646   2.273  0.0795 -0.0284 -0.4068
23521W        W39995   0.769  12.737  14.030  0.0746 -0.1883 -0.1580
23522W        W39996  18.264  16.299  13.651 -0.0059 -0.0104 -0.3152
23523W        W39997   9.032  12.918   4.386 -0.0243 -0.2641  0.1142
23524W        W39998  14.468   2.931   3.227  0.0852  0.0428 -0.4616
23525W        W39999  15.971  19.139   1.865  0.0117 -0.0737  0.4008
23526W        W40000   5.729  11.241  12.495 -0.2476  0.0562 -0.0466
23527W        W40001  11.188   7.194   2.602 -0.2403 -0.0157  0.3410
23528W        W40002   0.989  11.068   0.902  0.1714  0.1054  0.0120
23529W        W40003   2.440  11.834  12.178  0.0136 -0.4473 -0.1502
23530W        W40004  11.141   5.513   5.310 -0.0502  0.0719 -0.0752
23531W        W40005  19.458  19.165   4.109  0.1654  0.3080 -0.1225
23532W        W40006  16.460   7.961   1.363 -0.1760 -0.1174 -0.1558
23533W        W40007  13.586   2.854  12.423 -0.4838 -0.1870 -0.0291
23534W        W40008   0.857  17.775   2.579 -0.0768 -0.0452 -0.0207
23535W        W40009   1.520  15.266   0.194 -0.3319 -0.2331  0.1462
23536W        W40010   0.031  15.189   1.811  0.2093 -0.0634  0.1378
23537W        W40011  10.051   6.277  12.102  0.1884  0.0800  0.0147
23538W        W40012   6.778   7.300  12.428  0.0228 -0.0853  0.1910
23539W        W40013   0.651  13.682   2.087 -0.0799  0.1035 -0.0579
23540W        W40014   4.914   0.333  10.824 -0.0955 -0.0688  0.2399
23541W        W40015   7.400   1.508   0.356 -0.2281 -0.1632 -0.1218
23542W        W40016   6.930   5.466  13.459  0.2155  0.3104 -0.0839
23543W        W40017   0.987  13.820   1.770 -0.1696 -0.0840  0.0389
23544W        W40018  10.753   9.791   3.332  0.1587  0.2032  0.0150
23545W        W40019  10.092  12.113  12.591 -0.0297 -0.0671 -0.1695
23546W        W40020   3.167  16.707   1.329 -0.1137  0.2989 -0.2568
23547W        W40021  17.849   8.901  11.960  0.0597 -0.2791  0.0072
23548W        W40022   6.744   6.978  13.307 -0.0612  0.1131  0.0638
23549W        W40023  13.830  11.659  11.140 -0.1289  0.2827 -0.1745
23550W        W40024   6.263   8.601   3.326  0.0772 -0.3286  0.1362
23551W        W40025   7.125   7.223   4.636  0.1283 -0.0324  0.0026
23552W        W40026  12.753  16.651   2.262 -0.1818  0.5039  0.2545
23553W        W40027  13.327  13.948   4.585  0.2790 -0.1270  0.1046
23554W        W40028   1.080   5.725   2.464  0.1216  0.0357 -0.1798
23555W        W40029   1.640   1.663  14.110  0.0983  0.0317  0.0815
23556W        W40030  13.171   5.493   3.155 -0.0301  0.4097 -0.2402
23557W        W40031   0.104   7.097   2.736  0.1794  0.1900  0.2060
23558W        W40032   7.733   0.652   0.746 -0.1825  0.1090 -0.0591
23559W        W40033  18.990   7.212  13.891  0.3490  0.1841 -0.0234
23560W        W40034  12.593   0.088   1.157  0.0593  0.1754  0.1690
23561W        W40035  16.543   4.093  13.967  0.1735  0.0683 -0.0832
23562W        W40036   5.496  19.440  12.640  0.0731  0.3008  0.1305
23563W        W40037  11.136   9.720  11.408  0.0413  0.1207 -0.1356
23564W        W40038   4.752  13.591  13.982 -0.1226 -0.2651 -0.2605
23565W        W40039   3.378   0.324  12.916  0.1514  0.5520 -0.2403
23566W        W40040  11.372  10.895  10.436 -0.2299  0.2175  0.2102
23567W        W40041   4.699   4.598   1.684 -0.0725  0.1207  0.0945
23568W        W40042  15.911  19.543  12.962  0.2893  0.0957 -0.0176
23569W        W40043   9.340   1.711   5.011 -0.3214  0.2195  0.1171
23570W        W40044  14.014  10.131   2.273  0.1669  0.1316  0.1002
23571W        W40045   1.818   2.239   0.771 -0.2175  0.1637 -0.2882
23572W        W40046   2.379   7.377   2.133  0.0947 -0.1713  0.1771
23573W        W40047   8.933   4.313  11.317  0.1414  0.2395 -0.1984
23574W        W40048  18.335  12.858  13.274  0.0655  0.2441  0.3058
23575W        W40049   7.074   9.412   3.139 -0.2759 -0.1412  0.1204
23576W        W40050  17.709   1.975  11.698  0.2235 -0.1833 -0.1030
23577W        W40051  17.712   4.847   0.674  0.3270  0.1627  0.2456
23578W        W40052   6.663  18.044  13.090 -0.0653 -0.2226 -0.0829
23579W        W40053   0.954  11.309   0.323 -0.0200 -0.3650  0.1206
23580W        W40054   6.438  16.782   9.500 -0.1109 -0.1700 -0.0709
23581W        W40055   9.935  16.364  11.968 -0.2542 -0.2603 -0.0851
23582W        W40056   1.607  19.559   1.159  0.1380  0.2018  0.1397
23583W        W40057  19.079   6.163   3.291 -0.1610 -0.0611  0.0745
23584W        W40058  12.010  14.254   4.266 -0.0811  0.2681 -0.2452
23585W        W40059   1.195  14.159   0.256 -0.1205 -0.0631  0.1214
23586W        W40060  18.419   4.719  12.612  0.1552 -0.0100  0.0156
23587W        W40061   0.894  14.209  10.165  0.2591 -0.0281  0.5954
23588W        W40062   6.116  18.624  11.570 -0.0175 -0.0357  0.0293
23589W        W40063  11.934   9.008  12.039  0.1513 -0.4653 -0.1027
23590W        W40064  13.885   6.048   0.513  0.0692 -0.0225  0.1828
23591W        W40065  16.744  11.746  13.151 -0.2789 -0.0562  0.0798
23592W        W40066   8.924   7.996  11.560  0.3071  0.1292  0.1116
23593W        W40067  14.722  17.120   3.423  0.1081 -0.3068 -0.0755
23594W        W40068  10.671  19.478  13.733 -0.4888  0.2120  0.0963
23595W        W40069   0.252  12.464  13.209  0.2276  0.0872 -0.3722
23596W        W40070  10.245  10.666   3.080 -0.2970 -0.0686 -0.4514
23597W        W40071   6.244   3.735   4.095  0.2184 -0.1073  0.2554
23598W        W40072   6.929  17.633   4.501 -0.0317  0.1261  0.1067
23599W        W40073   7.280   4.573   5.080  0.1266 -0.0136 -0.3865
23600W        W40074   0.664  15.983  11.474  0.0135 -0.1565 -0.0697
23601W        W40075  16.549  13.710  12.549 -0.2662  0.0787  0.0846
23602W        W40076   0.854  16.053   2.834  0.0304 -0.3299  0.4464
23603W        W40077  17.707  10.334  12.483  0.1330  0.0490  0.5223
23604W        W40078   9.115   1.263   0.917 -0.0758  0.2163 -0.0111
23605W        W40079   8.698   9.994   9.606  0.0863 -0.0181 -0.1257
23606W        W40080   7.532  18.877   2.082 -0.0351 -0.0845 -0.0560
23607W        W40081  10.088   6.868   1.658  0.2673 -0.1795 -0.3381
23608W        W40082   1.673   1.075   9.361  0.0935 -0.1189  0.0167
23609W        W40083  14.294  18.589   3.085 -0.1088  0.1816  0.0740
23610W        W40084   5.482   9.384   4.224 -0.2136  0.2188 -0.4268
23611W        W40085   0.113   1.880  11.216  0.0866 -0.0044  0.0988
23612W        W40086  14.706  19.069  12.290 -0.1302  0.3194 -0.0279
23613W        W40087   2.717  15.078  13.711 -0.0788 -0.0594 -0.1510
23614W        W40088   7.320  17.001   2.053 -0.2059 -0.1255 -0.0891
23615W        W40089   7.185  16.509   1.158 -0.3917  0.1319 -0.0355
23616W        W40090  18.910  17.181  11.821  0.1128  0.2226 -0.0885
23617W        W40091   3.804   7.480   5.434 -0.4170 -0.1681  0.3569
23618W        W40092   9.716   3.204  10.805 -0.4762  0.0252  0.0563
23619W        W40093   1.529   6.975   3.283  0.1514  0.0287  0.1565
23620W        W40094   6.024  14.499  12.509  0.1310 -0.1584  0.0492
23621W        W40095   8.761   4.295   3.234 -0.1800  0.1557 -0.2865
23622W        W40096  11.484  12.925  12.986  0.1119 -0.0073 -0.2928
23623W        W40097  10.304   4.625   3.656 -0.1269  0.1887 -0.2170
23624W        W40098  17.230   1.214   2.029 -0.0838 -0.1096  0.1084
23625W        W40099  12.578   2.973   4.358  0.1670 -0.2951 -0.0129
23626W        W40100  10.835   2.872  11.341 -0.0341  0.0919  0.1911
23627W        W40101  13.620  10.970  10.929 -0.1456 -0.0219  0.0659
23628W        W40102  10.456  15.165  11.414  0.3021 -0.1926 -0.0332
23629W        W40103  18.695  13.435   4.190  0.2087  0.0933 -0.1983
23630W        W40104  17.287   8.111  13.960  0.2293  0.1080 -0.1224
23631W        W40105   4.109  19.067  10.120 -0.3117  0.2810 -0.0430
23632W        W40106  18.903   9.703   1.812  0.1958  0.0930 -0.0431
23633W        W40107  16.863  14.867   0.671 -0.0636  0.1118  0.0765
23634W        W40108   2.437   3.552   3.119 -0.0882  0.0139  0.2212
23635W        W40109   0.437   7.016  14.087 -0.3585 -0.1874 -0.0300
23636W        W40110  13.264   5.964   1.354 -0.2849  0.4205 -0.3829
23637W        W40111   1.845  12.044   4.308 -0.3141 -0.1231 -0.1748
23638W        W40112   4.332   0.020   1.915  0.1680  0.0076  0.0689
23639W        W40113  10.055  17.566  12.355  0.1507  0.0908 -0.5139
23640W        W40114   4.907  15.830  13.576 -0.1326  0.3023  0.1189
23641W        W40115   8.193  12.495   2.083  0.0922 -0.3912 -0.3556
23642W        W40116   7.534  15.350  10.875 -0.1008 -0.1996  0.0659
23643W        W40117  13.488  17.640  12.674  0.2069  0.0447  0.2565
23644W        W40118  11.957   3.673   1.251  0.1556  0.2129  0.0282
23645W        W40119  13.088   4.775  11.324 -0.2194  0.1405 -0.3220
23646W        W40120  12.909  15.972   1.904 -0.1155  0.2345 -0.2548
23647W        W40121   7.425  11.698   4.870 -0.4678  0.2775 -0.1134
23648W        W40122  13.979  17.370  11.952 -0.1168  0.0463  0.0426
23649W        W40123  16.391   1.821  11.505 -0.0050  0.1158  0.1887
23650W        W40124  10.088   3.469   2.728  0.1066 -0.2076 -0.1529
23651W        W40125   7.712  10.235  13.370 -0.0150  0.1702  0.1193
23652W        W40126   3.797   0.376   2.715 -0.0847  0.2263  0.1919
23653W        W40127   0.558  15.227   0.411 -0.2173  0.1255  0.4618
23654W        W40128  15.157  17.909  11.727 -0.1949  0.2925  0.1439
23655W        W40129  15.937  15.726  10.336 -0.2902 -0.3552  0.0238
23656W        W40130  18.682  15.868  10.595  0.6256  0.0423  0.0730
23657W        W40131   7.735   8.639  11.247  0.2215  0.2474 -0.0885
23658W        W40132  18.029   8.246   0.224  0.1117  0.0431  0.0549
23659W        W40133   7.832   8.908  11.810 -0.2432 -0.2029 -0.2290
23660W        W40134   2.289  12.838  13.910  0.2428  0.1227 -0.1081
23661W        W40135   1.380   9.353   3.005  0.2871 -0.0402  0.0831
23662W        W40136  11.254   1.047   0.204  0.1714 -0.2070  0.4730
23663W        W40137   9.917  10.325   3.173  0.1378  0.3538  0.1762
23664W        W40138   4.916  15.484  14.279 -0.0462  0.2531 -0.1616
23665W        W40139  10.470  13.870   2.856 -0.4255  0.3348 -0.2912
23666W        W40140  17.446  12.763  10.410  0.1807 -0.1587  0.0685
23667W        W40141   2.065  14.836  13.002  0.0459  0.1160  0.0392
23668W        W40142  12.962   5.759   0.926 -0.0830  0.2031  0.0889
23669W        W40143  16.005  15.076   4.211 -0.1924 -0.0020 -0.2265
23670W        W40144  16.073   9.565   9.684  0.0882  0.1113 -0.0183
23671W        W40145  13.049   8.996  13.225  0.0879  0.0896  0.4381
23672W        W40146  13.714  14.586  13.169  0.0903 -0.4883 -0.0613
23673W        W40147  13.452  17.914  14.092 -0.1911  0.2197 -0.0776
23674W        W40148  15.745  12.655   0.437 -0.0744 -0.0182 -0.2814
23675W        W40149   1.469   4.289  14.533 -0.0374  0.3642 -0.3427
23676W        W40150  11.731   8.033  14.237 -0.0060  0.2256  0.2036
23677W        W40151  10.834  15.228  13.249  0.2333  0.0409 -0.2751
23678W        W40152   2.323   6.639   4.412 -0.0889  0.1883 -0.0215
23679W        W40153   8.015  18.112   2.389  0.0856  0.1598 -0.1355
23680W        W40154  10.308   7.969  14.535 -0.0214  0.0479  0.1582
23681W        W40155   9.393  17.493  11.680  0.1020  0.1159  0.2560
23682W        W40156   4.659  18.587  12.235 -0.1726  0.1179  0.2081
23683W        W40157   5.365  16.602  11.977  0.2086  0.1027 -0.0732
23684W        W40158  10.968   1.026  10.526 -0.3707 -0.1837  0.2101
23685W        W40159   6.337   1.445   3.953  0.2374  0.0626 -0.3878
23686W        W40160  18.843   1.230   1.090  0.0394  0.1211 -0.0463
23687W        W40161   1.163   6.113  13.978 -0.3998 -0.2733  0.0908
23688W        W40162   9.597  18.143   1.685 -0.1285  0.1588  0.0523
23689W        W40163   9.284   9.840  14.325  0.1129 -0.0617 -0.1013
23690W        W40164  10.139   4.839   4.154 -0.2240  0.3848 -0.0183
23691W        W40165  14.624  15.600   0.012 -0.1042 -0.1942 -0.0419
23692W        W40166  10.117   5.154   0.233 -0.1813 -0.0357  0.3025
23693W        W40167  17.937  10.173  12.007  0.0805 -0.1951 -0.3085
23694W        W40168  11.719   9.153   4.294 -0.1030 -0.2516  0.1303
23695W        W40169   0.927   2.594   3.501 -0.0143 -0.1567  0.2610
23696W        W40170  12.155   0.123  10.198 -0.2116 -0.1300  0.0140
23697W        W40171  17.509   0.725   5.384  0.0792  0.0714  0.1332
23698W        W40172   0.322  15.382  12.596  0.2649 -0.1330 -0.1384
23699W        W40173  15.941  14.171   0.106  0.5039  0.0506  0.0314
23700W        W40174   2.335   2.838  10.531 -0.1667 -0.3067 -0.2161
23701W        W40175  10.657  12.996   2.668 -0.1621  0.2798  0.2809
23702W        W40176  12.121  12.174   5.095 -0.1515 -0.0268  0.1000
23703W        W40177   1.720   0.066   1.595  0.2100  0.0480 -0.0809
23704W        W40178  11.566  10.802   0.682  0.4542 -0.0300  0.0622
23705W        W40179  14.189  14.877  14.101 -0.0653  0.2399  0.1199
23706W        W40180   4.462  19.395  13.661 -0.0585 -0.1867  0.0848
23707W        W40181  15.182   8.443   3.498  0.2680  0.1817  0.1166
23708W        W40182  18.761  10.626  14.208 -0.0742  0.1944 -0.2204
23709W        W40183  14.392   2.409  13.745 -0.1979 -0.0619  0.3760
23710W        W40184  18.332   5.797   4.516 -0.3178  0.4305 -0.0134
23711W        W40185   8.516  16.862  13.384  0.1424  0.2248 -0.1020
23712W        W40186   4.587   5.909   1.489 -0.0102 -0.1589 -0.0153
23713W        W40187   2.775   7.206  14.612  0.0606  0.2247 -0.3724
23714W        W40188  13.714   2.706  11.507 -0.1087  0.0260 -0.0160
23715W        W40189  14.172   6.817   4.936  0.0260  0.0299 -0.1971
23716W        W40190  18.161   3.239   1.368  0.1229  0.0774  0.0386
23717W        W40191   0.355   6.455  10.702  0.2304 -0.2127 -0.3605
23718W        W40192   9.375   7.754  11.851  0.0060  0.1917  0.3335
23719W        W40193  11.853   1.297  13.432  0.1942 -0.1918 -0.3215
23720W        W40194   5.340  12.188   2.710  0.0858 -0.1508  0.0206
23721W        W40195   1.053  15.464   3.929  0.2063  0.0436 -0.0783
23722W        W40196   0.287   1.776   4.093 -0.1059 -0.2893  0.2273
23723W        W40197  17.231   7.210   3.874  0.0710 -0.0664  0.2488
23724W        W40198   9.556   3.122   0.860 -0.0220 -0.1825 -0.2309
23725W        W40199   3.364   1.665   3.214 -0.1716 -0.0746 -0.0089
23726W        W40200  14.701   7.727  10.991  0.0283 -0.2919  0.0934
23727W        W40201  15.953   6.285   3.578 -0.3350  0.0635 -0.0884
23728W        W40202  17.713  18.627   1.442  0.1186  0.4998  0.1664
23729W        W40203  11.310  10.751  14.050  0.1443  0.2930 -0.0993
23730W        W40204  17.507   3.826  12.544  0.1440  0.0843  0.3051
23731W        W40205  16.455   5.336  12.489 -0.0385  0.2918  0.1275
23732W        W40206   1.699  18.405   0.991 -0.1769 -0.1752 -0.0324
23733W        W40207   6.431  11.446  10.185  0.0923  0.0940  0.2194
23734W        W40208   1.098  16.034   3.663  0.2449 -0.2459 -0.1886
23735W        W40209   6.667  16.440   2.085  0.2814 -0.0731  0.2532
23736W        W40210   5.752   8.990  12.197  0.2193  0.0241  0.1339
23737W        W40211  18.179   3.847   2.665 -0.1654 -0.0184 -0.2141
23738W        W40212  18.683   9.172   4.075 -0.0889 -0.2605 -0.1249
23739W        W40213   1.107  11.630  12.106 -0.1057 -0.5493  0.2157
23740W        W40214  13.739  11.941   0.030  0.1355 -0.0079  0.0740
23741W        W40215  16.384  19.482   0.128 -0.1264  0.1024 -0.1646
23742W        W40216  13.511  11.344   1.785 -0.0439 -0.3091  0.1281
23743W        W40217  12.666   8.279  10.863  0.2524  0.0749 -0.5280
23744W        W40218  14.520  11.553  14.217 -0.2145  0.3085  0.0312
23745W        W40219  13.530  18.749  11.390  0.0317  0.0547 -0.5318
23746W        W40220   5.283   8.718  11.939 -0.1935  0.3243  0.1902
23747W        W40221   0.177   6.292  13.662  0.3305 -0.3475 -0.0886
23748W        W40222   4.346  18.479   1.181 -0.2898  0.1332  0.5424
23749W        W40223   5.211   7.127   0.936 -0.0810 -0.0164 -0.0240
23750W        W40224   9.084   5.280  13.517 -0.0912 -0.1239  0.0375
23751W        W40225   8.453   9.921   0.391 -0.1792  0.1975 -0.2028
23752W        W40226  12.847  16.080  10.276 -0.2106  0.1858 -0.1396
23753W        W40227   4.468   3.989   1.359  0.1049 -0.0361  0.0977
23754W        W40228  12.551  11.833  14.665 -0.0738 -0.1342 -0.1892
23755W        W40229   7.909   7.234  11.630 -0.0211  0.3159 -0.0299
23756W        W40230  15.622  11.903   1.176 -0.2015  0.3109 -0.1751
23757W        W40231   2.780   5.235   2.058 -0.2439  0.0749  0.0762
23758W        W40232  12.987  11.935   1.423  0.1649 -0.0312  0.1793
23759W        W40233  15.996  17.461   4.572 -0.0815 -0.3673  0.0791
23760W        W40234  17.323  14.702   3.381  0.1702 -0.0064  0.1721
23761W        W40235  15.318   4.829  10.922  0.1888  0.0740  0.0784
23762W        W40236   7.386   6.465   2.931  0.4022  0.0678 -0.0495
23763W        W40237  18.006  19.474  14.391  0.0496  0.1030  0.4681
23764W        W40238  14.570   9.416   1.970 -0.0087 -0.2532 -0.2452
23765W        W40239   4.631  18.981  10.389  0.0761 -0.0036 -0.1932
23766W        W40240  19.379  14.861  13.386 -0.0440 -0.3057  0.4411
23767W        W40241   7.548  11.034   3.836 -0.3108 -0.4963  0.1243
23768W        W40242  15.692   0.645   4.948 -0.0124 -0.1399 -0.0751
23769W        W40243   8.129  12.253  14.694 -0.1157 -0.2972  0.0164
23770W        W40244   3.631  12.893  12.245  0.0271 -0.0342  0.0851
23771W        W40245  11.691  17.594  11.934  0.0356  0.0123  0.0772
23772W        W40246  16.418  11.402   0.612  0.3126 -0.1672  0.0498
23773W        W40247   1.676   0.016  10.322 -0.2944  0.0049  0.1143
23774W        W40248  18.889   9.769  14.517  0.0493 -0.0079  0.1489
23775W        W40249  17.564  14.621  12.517 -0.0653 -0.0032  0.0523
23776W        W40250   1.814   4.784  14.442 -0.3201 -0.0316  0.3599
23777W        W40251   8.787  16.242  11.262 -0.4618 -0.0732  0.2436
23778W        W40252   8.293  18.883  12.113  0.0419  0.0755  0.1424
23779W        W40253  12.755  10.525  12.010 -0.0691 -0.0861 -0.0234
23780W        W40254  15.021   9.968   5.801 -0.0101 -0.0005  0.0694
23781W        W40255  14.909   5.735   1.853  0.0494  0.2944  0.1465
23782W        W40256   1.493   8.893  11.592  0.0497  0.0886 -0.0092
23783W        W40257  15.489  13.215   2.456  0.2860  0.2691  0.1124
23784W        W40258   9.250   7.661   3.690  0.2294 -0.1171 -0.1836
23785W        W40259  18.613   7.883   4.438  0.0518  0.1197  0.3615
23786W        W40260  15.415   7.846   0.404 -0.1114 -0.1762  0.1018
23787W        W40261   2.756   0.367  12.194 -0.1432 -0.1133  0.1823
23788W        W40262   0.738  18.651  10.672  0.0849 -0.2790 -0.0860
23789W        W40263  10.143   0.094   1.276 -0.4165 -0.1217  0.0074
23790W        W40264   6.151  13.643  10.998 -0.0717  0.2133  0.1239
23791W        W40265  11.183   1.061  11.548  0.1854  0.2227  0.1777
23792W        W40266  19.343   3.151  10.144  0.3644  0.2815 -0.0686
23793W        W40267  19.066  12.502   3.707 -0.0425  0.1831 -0.0224
23794W        W40268   5.942   8.366  12.887  0.2015  0.0129  0.2317
23795W        W40269  15.689   7.430  13.356  0.1247 -0.2989  0.2028
23796W        W40270  15.886   0.252   5.496  0.1041 -0.1387 -0.1728
23797W        W40271  17.367  12.260  10.362  0.0145  0.1065  0.1256
23798W        W40272  14.331  18.626   0.723  0.2364  0.2293 -0.0644
23799W        W40273  18.952  19.568   2.213  0.4149 -0.0211  0.0110
23800W        W40274   1.353  14.113   9.996  0.0983 -0.3940  0.1708
23801W        W40275  15.697   5.190   2.863 -0.0935 -0.0339  0.1798
23802W        W40276  12.175  10.227   2.288 -0.0256 -0.1195  0.0563
23803W        W40277   5.145   3.569   3.164 -0.0227  0.1447 -0.3803
23804W        W40278   5.030   0.860   3.974  0.2349  0.1253 -0.5628
23805W        W40279  13.104   9.061   1.822  0.2957  0.0176  0.1977
23806W        W40280   4.581   5.374   3.070 -0.0087  0.0912  0.1995
23807W        W40281   1.429   3.802   2.281 -0.4018 -0.3366  0.0255
23808W        W40282   0.892   2.850   4.708  0.1075 -0.0445 -0.0244
23809W        W40283  11.487   2.412  10.472  0.1479 -0.0083 -0.2048
23810W        W40284   3.139   9.559  12.083 -0.1876  0.2735 -0.2762
23811W        W40285  17.781  18.087   3.641  0.1949  0.4097 -0.0153
23812W        W40286   1.943  10.042   2.262 -0.0183  0.1016  0.3501
23813W        W40287   5.730   3.612  14.594  0.0362 -0.2542  0.2015
23814W        W40288   1.283   1.172   3.110  0.1561  0.0266 -0.0886
23815W        W40289  19.393   6.129  11.098  0.1273  0.1479 -0.0021
23816W        W40290   6.712  12.059   4.354  0.2782  0.0008  0.2447
23817W        W40291  14.691  14.870  12.182  0.2887  0.1352  0.1659
23818W        W40292  15.501  11.187   2.829  0.1490 -0.3088 -0.1736
23819W        W40293  16.665  14.543   0.293  0.0634 -0.0386 -0.3235
23820W        W40294  17.605  11.696   5.806 -0.0501 -0.0798  0.2260
23821W        W40295   6.146   3.552  14.257 -0.0655 -0.2195 -0.0386
23822W        W40296  16.358   2.800  14.513 -0.1311  0.0919 -0.1843
23823W        W40297   5.116  10.770  11.119  0.3104  0.2554  0.0948
23824W        W40298  13.389   1.440  13.957  0.3115 -0.1856  0.1147
23825W        W40299   1.850   9.782   2.647  0.0120  0.1605  0.0712
23826W        W40300  17.509  15.640   2.520  0.0316 -0.2239 -0.2261
23827W        W40301  13.462   3.759   3.911  0.2173 -0.2831  0.0226
23828W        W40302   9.925  12.135   3.314 -0.0486  0.0235 -0.3019
23829W        W40303   4.020  18.477  12.480 -0.0830 -0.4426  0.1323
23830W        W40304  18.169  12.298  14.210  0.1304 -0.0060  0.1906
23831W        W40305   1.228  19.085   0.858 -0.1171 -0.0987 -0.2367
23832W        W40306   7.235  18.031  10.919 -0.0802  0.0198  0.1275
23833W        W40307  18.016   2.116  14.715  0.3066  0.0812  0.1373
23834W        W40308   0.695   4.046   0.332  0.2026  0.0210  0.2072
23835W        W40309   5.634  19.359  10.888 -0.0798 -0.0606 -0.1045
23836W        W40310  12.595  12.895   2.897 -0.0491 -0.0499 -0.0212
23837W        W40311   6.042  13.355  11.363  0.1662 -0.1468  0.1397
23838W        W40312  16.836  19.236  13.068  0.1193  0.1925  0.1334
23839W        W40313  14.912  15.193   3.086 -0.1887  0.1796 -0.0803
23840W        W40314  14.981   1.627   4.893 -0.2962  0.2411 -0.0859
23841W        W40315  18.582   3.128   3.326  0.0733 -0.0337  0.2129
23842W        W40316   3.644   6.683   9.581  0.3580 -0.0997  0.0781
23843W        W40317  18.947   7.412   2.144  0.0936 -0.0497 -0.0466
23844W        W40318  17.907   5.014   4.010 -0.4405 -0.0766 -0.0344
23845W        W40319   2.768  15.458   1.551  0.0282 -0.0692 -0.1287
23846W        W40320  16.729  10.033  13.855 -0.1073 -0.0516 -0.3966
23847W        W40321   2.299  11.297   1.224  0.0771  0.3246  0.1307
23848W        W40322   8.889  11.464   2.321  0.3352 -0.1182 -0.0250
23849W        W40323  11.835   3.158  14.315 -0.0842 -0.0460 -0.2514
23850W        W40324  10.684   7.314   0.906 -0.1130 -0.2909  0.1205
23851W        W40325   8.168  16.530   1.936 -0.0900 -0.1819 -0.1744
23852W        W40326   8.471   7.493   3.209 -0.1263 -0.0723 -0.0576
23853W        W40327  15.100  12.923  14.257 -0.2168  0.1555  0.0669
23854W        W40328   6.869   1.256   1.019 -0.0073 -0.1947  0.1996
23855W        W40329  10.975  17.294   9.764  0.5041  0.1418 -0.0132
23856W        W40330   9.883   2.373   3.732 -0.1057 -0.0766  0.1693
23857W        W40331  11.628  17.307  13.886 -0.1307  0.2484  0.2522
23858W        W40332  11.135  18.124  13.644  0.0127 -0.0634  0.0840
23859W        W40333  12.103   4.365  13.720  0.1553 -0.1052  0.1244
23860W        W40334   9.248  15.588   2.238 -0.0387  0.3835  0.2542
23861W        W40335  13.299  15.021  11.753  0.2310  0.0060 -0.0025
23862W        W40336   0.956  19.000  13.706  0.3067  0.3305  0.2257
23863W        W40337   3.468   0.140  13.459 -0.2193 -0.1622  0.1366
23864W        W40338  14.519   5.774  12.803 -0.0744  0.0615 -0.0742
23865W        W40339   7.008   2.244  13.820 -0.0967 -0.1196 -0.1509
23866W        W40340  12.258  10.783   4.220 -0.1135 -0.1246 -0.1275
23867W        W40341   8.699  14.626   3.521  0.0015 -0.1302  0.3219
23868W        W40342  10.972  14.220   4.696  0.3078 -0.2202  0.0485
23869W        W40343  10.282   9.542  11.492  0.0511  0.1381 -0.2405
23870W        W40344   6.394   4.589   1.921  0.4359 -0.2392 -0.0074
23871W        W40345   1.810   3.217   4.368 -0.1038  0.0127  0.3375
23872W        W40346  18.064  16.001  13.118 -0.0289  0.0687  0.1719
23873W        W40347  17.172   3.082   1.133 -0.2122  0.0716 -0.0684
23874W        W40348  11.501   7.963   2.084 -0.0010 -0.1606 -0.1319
23875W        W40349   4.349   4.596   2.056  0.0955 -0.0507  0.0872
23876W        W40350   9.574   6.140   4.314  0.0916  0.0113 -0.3066
23877W        W40351  10.376  19.126   3.673  0.1526  0.1834  0.2233
23878W        W40352   0.841  17.552   3.444  0.0156 -0.3382 -0.2512
23879W        W40353  17.049  12.128   4.129 -0.5884  0.1157  0.1808
23880W        W40354  11.323   3.060  11.477 -0.0845  0.1457  0.2961
23881W        W40355  12.104   5.781  13.748  0.2905 -0.0988  0.2170
23882W        W40356   3.172   8.256  14.082  0.1674 -0.2311 -0.0563
23883W        W40357  15.059  10.028   1.478 -0.1429  0.2215 -0.4160
23884W        W40358  16.424  12.676   3.728  0.0611 -0.1113 -0.2148
23885W        W40359   2.887  15.836  13.007 -0.2891  0.0854  0.2632
23886W        W40360   2.656  16.040   3.262  0.3728  0.3490  0.0100
23887W        W40361  13.483  16.862   3.715 -0.0316  0.3828  0.0343
23888W        W40362   1.122  10.547   3.704  0.2395 -0.2496  0.1673
23889W        W40363  14.474  18.669  13.574 -0.0047  0.1959  0.0804
23890W        W40364   9.308  14.737   4.225  0.0323  0.0430  0.0824
23891W        W40365  14.097   9.393  10.546  0.0060 -0.2266 -0.2181
23892W        W40366   9.964   3.499  12.151 -0.1199 -0.0851  0.1564
23893W        W40367   5.385   2.461  14.007 -0.0090  0.0558 -0.0425
23894W        W40368   6.322  18.020  13.470 -0.0954  0.0381  0.3039
23895W        W40369   9.042  13.467   3.217  0.0377 -0.0370  0.2045
23896W        W40370  15.578   4.996   2.321 -0.2782  0.2364 -0.1314
23897W        W40371   3.306   4.182  10.666 -0.1679  0.5213  0.1828
23898W        W40372   8.803  12.475   4.117  0.0680  0.0045 -0.3157
23899W        W40373   8.069  18.157  11.605  0.2331 -0.1083 -0.0557
23900W        W40374   7.104   3.885   1.768  0.0989  0.0200 -0.1642
23901W        W40375   3.764  15.946  14.170 -0.0272 -0.0706  0.0850
23902W        W40376  15.851  17.460   5.175  0.2517 -0.0954 -0.0931
23903W        W40377  17.315  19.549  12.869  0.1889 -0.4340  0.0294
23904W        W40378  12.261  10.225  11.947  0.0995  0.0170  0.1874
23905W        W40379  13.795  11.376  12.481  0.1724  0.0688  0.0936
23906W        W40380  10.393   8.249   6.010  0.4455 -0.2625 -0.4153
23907W        W40381  12.254  10.366  14.318  0.0282  0.0375 -0.1224
23908W        W40382   4.761   3.463  13.531 -0.3207  0.4801  0.0690
23909W        W40383   9.970  14.722   9.836 -0.3110  0.2312 -0.0388
23910W        W40384  12.300   0.073  10.709  0.0843  0.2404  0.1770
23911W        W40385   9.765   5.347   0.587 -0.1841 -0.0159 -0.1442
23912W        W40386  16.666   6.887   2.475 -0.1147  0.0931 -0.1884
23913W        W40387  11.202   6.747   4.771 -0.3158 -0.0443 -0.1737
23914W        W40388  19.313   2.013   9.599  0.1956 -0.1230 -0.0024
23915W        W40389   0.497  11.412   0.059  0.0294  0.1529  0.2445
23916W        W40390  17.594  11.523   0.196  0.0553 -0.1049  0.2445
23917W        W40391  12.640  19.110  13.135  0.0661  0.2349  0.0805
23918W        W40392  11.939  18.328   3.857  0.0284  0.2206  0.0669
23919W        W40393  12.940   2.472  11.181 -0.3348 -0.0618 -0.2053
23920W        W40394  11.519   6.830  10.822  0.0670 -0.1176 -0.2574
23921W        W40395   8.577   3.666  12.593 -0.0162  0.0253  0.2855
23922W        W40396  10.628   7.795   5.263 -0.1461  0.3226 -0.2055
23923W        W40397  11.009   9.517   0.399  0.1420 -0.0722 -0.1730
23924W        W40398   9.173  12.973   1.330 -0.0959 -0.0207  0.1924
23925W        W40399   2.778   7.108   5.116  0.1872 -0.1007  0.4092
23926W        W40400   5.606   3.898   3.520 -0.0364  0.1899  0.4497
23927W        W40401  16.119   4.934   3.169  0.0465  0.2497  0.0034
23928W        W40402   4.418   9.700   3.179  0.1646  0.0494 -0.5225
23929W        W40403   2.955  16.590   0.830  0.0763 -0.1567 -0.4198
23930W        W40404   7.495  10.742  11.219  0.1586 -0.1966  0.0348
23931W        W40405  13.953  15.358   1.907 -0.2685  0.0222 -0.1009
23932W        W40406   1.879   1.383   9.748 -0.2207  0.0366  0.1549
23933W        W40407  17.452  16.051   0.733 -0.2612 -0.2061 -0.3172
23934W        W40408  10.451   9.704   2.985  0.0682  0.1483 -0.1067
23935W        W40409  16.730   0.029   9.720 -0.0123  0.2258 -0.1422
23936W        W40410   1.777  16.828  10.810  0.2690 -0.3792 -0.0588
23937W        W40411  14.913  16.217  13.878 -0.0681 -0.4356 -0.1294
23938W        W40412  13.067   3.191  12.641  0.0657  0.0663  0.2290
23939W        W40413  16.590   7.293   2.741  0.0516 -0.1084 -0.1999
23940W        W40414  10.617   0.295  13.990  0.0019 -0.0121 -0.0891
23941W        W40415  16.393  15.714   2.099  0.5938  0.2677 -0.2338
23942W        W40416   8.398   0.175  11.242 -0.2945 -0.0613 -0.0342
23943W        W40417   0.517  16.285   9.709  0.2909 -0.3956 -0.0355
23944W        W40418   0.082   6.082  10.667 -0.1001 -0.0913  0.0459
23945W        W40419  18.854  11.241  13.183  0.2024 -0.2403  0.2165
23946W        W40420   2.509   7.840   2.327  0.0942 -0.2212 -0.1884
23947W        W40421  14.281  18.239  14.224  0.3200  0.0080  0.1463
23948W        W40422  13.031  12.069   2.240  0.1021  0.1059 -0.3299
23949W        W40423  12.607  15.529   4.999 -0.0537 -0.1939 -0.3772
23950W        W40424   1.159   3.322   2.183  0.1018  0.0562  0.1442
23951W        W40425  10.859  11.245  11.326 -0.1283  0.3872  0.0339
23952W        W40426  18.846  16.878  10.482  0.0232 -0.0320 -0.0591
23953W        W40427  15.454  14.561   1.958 -0.2743  0.0178 -0.1428
23954W        W40428   1.637  16.004   1.773  0.0446  0.1598  0.0228
23955W        W40429  10.269  16.750  13.324  0.1483  0.0292  0.1669
23956W        W40430  13.107   5.926   3.638  0.1232  0.0219 -0.2154
23957W        W40431   2.318  15.042  10.607 -0.1171  0.0680  0.2092
23958W        W40432   7.887   1.669  12.092  0.1142  0.0686 -0.0949
23959W        W40433   4.495  17.736  11.759 -0.1632  0.0126 -0.0509
23960W        W40434   8.922   9.829   2.932 -0.0406  0.2535 -0.3211
23961W        W40435   8.905  19.078   9.431  0.0884 -0.1628  0.4790
23962W        W40436   5.241   5.814  13.298  0.2672  0.1019 -0.0858
23963W        W40437  17.951  16.657  10.761  0.3206  0.2251  0.0953
23964W        W40438   0.747   0.054   3.801 -0.0894  0.1611 -0.2213
23965W        W40439   3.657  14.195   4.072 -0.0500  0.1728  0.1294
23966W        W40440   1.657  18.861  14.583  0.0054 -0.2020 -0.1026
23967W        W40441  10.524  12.175   4.084 -0.0823  0.1752 -0.2804
23968W        W40442   6.197  10.910   1.674  0.0741  0.3495 -0.3145
23969W        W40443  15.175  11.209  12.369 -0.2949  0.2097 -0.0849
23970W        W40444   6.228  13.148  12.576 -0.0551 -0.0687 -0.2766
23971W        W40445   4.184   5.140   2.822  0.2078 -0.2070  0.0107
23972W        W40446   0.059  17.300   0.455 -0.0091 -0.2235 -0.0459
23973W        W40447  19.174   2.123  14.464  0.2290 -0.0863 -0.1806
23974W        W40448   3.306   3.704  11.373 -0.0018  0.1029 -0.3320
23975W        W40449  10.437   7.274  14.584 -0.0456  0.1473 -0.2044
23976W        W40450   4.299  16.799  11.402  0.1908  0.3201  0.1331
23977W        W40451   8.863  15.417  14.347  0.3561 -0.1609  0.4572
23978W        W40452  18.239  10.965   5.285  0.1319  0.1611 -0.1097
23979W        W40453   5.591   6.693   5.590 -0.0988 -0.0507 -0.1763
23980W        W40454   4.307  18.631  10.082 -0.0192  0.2716  0.3201
23981W        W40455  13.851  15.470  14.594  0.2186 -0.1819  0.1915
23982W        W40456  17.751   4.845  12.550 -0.1368  0.1518  0.1246
23983W        W40457   3.993  12.479   3.440  0.1550 -0.3189  0.1060
23984W        W40458  10.807  11.630  10.958 -0.1400 -0.1147 -0.1724
23985W        W40459  13.619   0.645   1.498  0.0315  0.2856  0.2306
23986W        W40460   9.905   2.119  13.962  0.0470 -0.4247  0.1119
23987W        W40461  14.623   4.743   2.204  0.3755  0.0038  0.2419
23988W        W40462  12.359   6.149   0.889 -0.1060 -0.0285  0.1847
23989W        W40463   7.199   2.153   3.376  0.2942 -0.0951 -0.0557
23990W        W40464   6.929   8.051   3.420  0.3763  0.0302 -0.4061
23991W        W40465  17.875  16.359  10.391 -0.0145  0.0507 -0.3111
23992W        W40466  12.356   0.067   2.248  0.1817 -0.3225 -0.2449
23993W        W40467  12.152   5.224  11.128  0.0526  0.1086  0.3254
23994W        W40468   1.771  14.561  13.854  0.0007  0.0016  0.0355
23995W        W40469  12.570   3.852  13.698  0.1726  0.1152 -0.1687
23996W        W40470  13.906  10.518   1.080  0.2492 -0.2164  0.1318
23997W        W40471  17.147   4.251   0.428  0.1234 -0.0124  0.1132
23998W        W40472  13.545  18.102  13.366 -0.0821 -0.0865  0.1853
23999W        W40473  16.216   5.860   2.251 -0.1379  0.1264  0.0803
24000W        W40474  15.159  14.007  11.265  0.0480 -0.1130 -0.2819
24001W        W40475  14.758  16.649   1.085 -0.1320 -0.2789  0.1077
24002W        W40476  19.168   6.803  14.078 -0.2028  0.1528  0.1888
24003W        W40477  10.231   6.098  11.574  0.1745 -0.3623 -0.1705
24004W        W40478   0.644  11.823   3.454 -0.2721  0.3045 -0.0290
24005W        W40479  15.469  16.638   9.257 -0.0524  0.0488 -0.1542
24006W        W40480   4.408   0.500   2.097  0.3265 -0.2307 -0.0357
24007W        W40481   1.658   8.960   0.273 -0.1050  0.1611 -0.0924
24008W        W40482  11.626  10.261   0.537  0.0855 -0.2029 -0.1400
24009W        W40483  15.908   0.255   3.601  0.0381  0.0709 -0.2313
24010W        W40484  16.593   9.261  12.453 -0.3693  0.5158  0.1935
24011W        W40485   0.807   2.085  12.607 -0.2856 -0.2091 -0.0818
24012W        W40486   0.819  13.212  11.088  0.1837 -0.3056 -0.1202
24013W        W40487   0.668   1.795  14.422  0.0293  0.1141  0.2121
24014W        W40488  11.160   7.489  13.115 -0.2409 -0.0032 -0.2609
24015W        W40489  18.975  17.296  13.651 -0.1810  0.0746 -0.1098
24016W        W40490  10.436  10.068  14.659  0.1677 -0.2676 -0.0133
24017W        W40491  13.093   2.995   9.595  0.0968 -0.0218  0.4113
24018W        W40492  17.230  13.140  12.597  0.1997 -0.1280  0.3595
24019W        W40493   0.375  16.725   3.409 -0.0773 -0.1502  0.2982
24020W        W40494  18.585  15.386  11.556  0.0129 -0.0413  0.1497
24021W        W40495   4.699  14.264  10.027 -0.2020 -0.1227  0.2277
24022W        W40496  12.900   2.948   2.641  0.1333 -0.0487  0.1421
24023W        W40497  13.008   5.580  14.131 -0.2486 -0.2511 -0.0445
24024W        W40498  10.677  17.252  10.163  0.0941 -0.0281  0.2433
24025W        W40499   1.783  15.684  13.063  0.1651 -0.0664 -0.1690
24026W        W40500   9.502  12.363   3.338  0.3545 -0.1621  0.1824
24027W        W40501   9.014   4.861   0.310  0.0689 -0.1886  0.0453
24028W        W40502  18.598  13.354  12.220  0.0545  0.1788  0.0196
24029W        W40503   7.548   0.497  10.551  0.0601  0.0980 -0.1315
24030W        W40504  16.597   7.526  13.708 -0.0814 -0.2343 -0.3572
24031W        W40505  10.915  17.899   1.776 -0.1431 -0.1754  0.1860
24032W        W40506   1.511  17.340  14.075 -0.1262  0.0408 -0.2119
24033W        W40507   7.567  18.867  11.917 -0.0531  0.2436  0.2435
24034W        W40508  19.230  17.477   4.303 -0.2594 -0.2075 -0.1282
24035W        W40509  19.457   3.223  11.611 -0.0778 -0.2967  0.2687
24036W        W40510  11.258   3.936   4.798  0.0785  0.0129  0.0950
24037W        W40511  12.370  11.137  12.141 -0.1228  0.2584  0.2237
24038W        W40512  17.132   5.634   3.341  0.0020  0.0727  0.1947
24039W        W40513  19.509   7.518   5.028 -0.2269 -0.3662  0.0552
24040W        W40514  12.971   2.369  13.246 -0.2633  0.1354  0.1493
24041W        W40515   7.706   2.083   2.307 -0.5983 -0.0958  0.1432
24042W        W40516  10.950   2.451   0.185 -0.1771 -0.3762  0.2326
24043W        W40517  18.471  18.376  13.349  0.1733 -0.0219  0.5302
24044W        W40518   9.641  10.358  13.152 -0.2138 -0.0772 -0.0700
24045W        W40519  12.168   0.110   3.464 -0.1009  0.0027 -0.1643
24046W        W40520  11.504  11.329   0.865  0.3462  0.1755 -0.0287
24047W        W40521  19.286   7.012   0.294 -0.3481 -0.1522  0.0801
24048W        W40522  15.762   6.280   3.073  0.0816  0.3119  0.1531
24049W        W40523  18.736  17.713  10.619 -0.0875 -0.0850 -0.3340
24050W        W40524  12.751  18.611   0.885  0.1456  0.0973 -0.2177
24051W        W40525   4.081   4.639  11.157 -0.1567  0.4377  0.0536
24052W        W40526   8.037   1.024   3.808 -0.1927  0.1877  0.2140
24053W        W40527  12.648  12.413   2.595  0.3327  0.2151  0.4345
24054W        W40528   0.195   5.659   2.100 -0.0294  0.1505 -0.3000
24055W        W40529   3.987   5.004  13.381 -0.0377  0.2346  0.1844
24056W        W40530   2.306   9.044   2.102  0.0829 -0.0866 -0.0649
24057W        W40531   3.658  16.672   1.590  0.0774  0.5129  0.4007
24058W        W40532   3.748  11.444   1.800 -0.0673 -0.3696  0.1442
24059W        W40533  17.898   6.330   2.058 -0.1396 -0.2351 -0.1019
24060W        W40534   1.209   6.195   0.359 -0.0207 -0.2268 -0.0585
24061W        W40535  13.747  18.186   3.873  0.0882 -0.1544  0.2249
24062W        W40536   7.555  16.767  10.246  0.1594  0.2699  0.0608
24063W        W40537   6.985  13.747  10.792 -0.1818 -0.0076 -0.4015
24064W        W40538   9.317   9.665  12.484 -0.0404 -0.2484 -0.1138
24065W        W40539   5.933  18.619   0.387 -0.2311  0.4222  0.2219
24066W        W40540   0.213  13.437   0.251  0.0749 -0.2164  0.2846
24067W        W40541  16.774  14.582   3.284 -0.1655 -0.0635  0.0446
24068W        W40542  10.757  15.127  14.191 -0.0631 -0.0362 -0.0083
24069W        W40543   4.632  16.411   1.202  0.0543 -0.0361  0.1347
24070W        W40544   2.331  16.125   9.716 -0.2407 -0.2420 -0.1395
24071W        W40545   3.975   0.773   0.081  0.4355  0.3696  0.2329
24072W        W40546   5.038   7.504  13.591 -0.1574  0.2929 -0.2250
24073W        W40547   9.059  12.586   4.853 -0.1036 -0.0593  0.1454
24074W        W40548  10.024  13.411   1.449 -0.1366 -0.1544 -0.2879
24075W        W40549   2.464  18.542  11.226 -0.3956  0.1527 -0.3740
24076W        W40550  10.813   0.301  11.177  0.3086  0.2667  0.2771
24077W        W40551  15.652   2.040   4.593  0.1827  0.2423  0.0680
24078W        W40552  12.110  11.425   1.686  0.0949 -0.0218 -0.0331
24079W        W40553   7.403   6.265   2.179 -0.2078  0.2815 -0.0806
24080W        W40554  10.454  13.078   1.517  0.2143  0.3479 -0.1056
24081W        W40555  16.986   9.275  13.634  0.0665 -0.0056  0.0333
24082W        W40556   4.395  16.149  10.475  0.2395  0.1258  0.3149
24083W        W40557   0.940   8.490   3.384 -0.0078  0.0475 -0.4080
24084W        W40558   0.007   4.301   5.370  0.3466 -0.2107 -0.1000
24085W        W40559  16.776  13.383  10.998 -0.1435  0.1782 -0.2079
24086W        W40560   7.656  17.634   0.686 -0.0559  0.0630 -0.3339
24087W        W40561  17.779   7.856  11.719 -0.2825  0.2199  0.2518
24088W        W40562   1.787  13.283   4.482  0.1137 -0.0179  0.0380
24089W        W40563  19.574  17.081  11.605 -0.1465 -0.0010 -0.0086
24090W        W40564   3.537   3.569   4.519 -0.1918  0.1263 -0.1153
24091W        W40565  13.573   8.371   5.480  0.1765  0.0558  0.3822
24092W        W40566  11.337  12.650  14.509  0.0132 -0.2323 -0.3853
24093W        W40567  18.667  15.222   4.819 -0.3775  0.2010 -0.1380
24094W        W40568  12.644   3.580  12.248 -0.0226  0.2967  0.0276
24095W        W40569  12.673   5.115   0.089  0.1023  0.1453  0.3755
24096W        W40570  17.348  15.256   1.413  0.1323  0.2129  0.3431
24097W        W40571   2.605   8.103   3.967 -0.1677 -0.0939 -0.0797
24098W        W40572   3.765   3.866  13.418  0.0623 -0.2431 -0.1371
24099W        W40573   8.404  11.457   3.482  0.0566 -0.0665  0.0887
24100W        W40574   8.211   0.459   0.504 -0.1247 -0.1943  0.0389
24101W        W40575  19.358   9.487   1.557 -0.4092  0.3711  0.1092
24102W        W40576  18.350  10.121  11.716  0.0358  0.0728 -0.3552
24103W        W40577   2.148   2.463   3.230 -0.2065 -0.0551 -0.2036
24104W        W40578  11.938   1.707   4.539 -0.3482  0.0713 -0.0569
24105W        W40579   2.741  17.467   3.601 -0.1462 -0.0026 -0.0409
24106W        W40580  14.377  18.311   1.212  0.0722 -0.0372 -0.0354
24107W        W40581  12.580  13.950   3.689  0.0989  0.1004 -0.0476
24108W        W40582  13.682   9.811  13.170  0.2103  0.0581 -0.0363
24109W        W40583   8.117  16.495  11.765  0.0111 -0.1208 -0.0286
24110W        W40584   5.959   5.197   2.335  0.1929  0.2536  0.0317
24111W        W40585  14.646   7.735   4.677 -0.0375 -0.1730  0.0871
24112W        W40586  16.724   6.411   1.633  0.2593  0.0382 -0.3036
24113W        W40587   1.797  14.906   3.001 -0.1202  0.0871  0.2880
24114W        W40588   8.551   7.292   1.728  0.1860  0.2399 -0.2326
24115W        W40589  19.103  17.134  10.803  0.1504 -0.0988  0.0563
24116W        W40590  10.528   7.775  11.712  0.0228 -0.0414  0.0889
24117W        W40591   3.298  15.822  13.341 -0.1520  0.2150 -0.1606
24118W        W40592   8.368  14.916   4.197 -0.0084  0.2394  0.1008
24119W        W40593  11.988  14.547  11.847  0.0179  0.2440 -0.0714
24120W        W40594   0.975  18.236   0.313  0.3915  0.0659  0.0807
24121W        W40595  17.213  10.403  11.633 -0.1770  0.0244  0.0042
24122W        W40596   7.269   3.516  11.274 -0.1052  0.1345  0.2162
24123W        W40597   2.531   0.967  10.526 -0.4722  0.6216 -0.0977
24124W        W40598   3.351   8.739   4.043  0.1772  0.0013  0.3316
24125W        W40599  11.990  17.072  10.546 -0.0978 -0.1735 -0.0325
24126W        W40600   5.138   4.758   4.724  0.1583  0.0864 -0.0693
24127W        W40601  18.322  17.987  13.682  0.2504 -0.0636  0.2048
24128W        W40602   6.221   2.618   1.206 -0.2121 -0.0785 -0.0897
24129W        W40603   1.179  15.914  11.443  0.1821  0.3769 -0.3560
24130W        W40604  18.658  10.674  12.493  0.0131 -0.0645  0.0795
24131W        W40605  17.376   0.991  11.437  0.0213  0.0617  0.0902
24132W        W40606   4.193   9.790   3.882  0.1645  0.1665 -0.2480
24133W        W40607   3.691  19.479   3.850  0.4683  0.3194 -0.0586
24134W        W40608   3.921   0.149   1.201  0.2344 -0.1768  0.0725
24135W        W40609   3.461   4.752  13.826 -0.0748  0.1459  0.1442
24136W        W40610  13.352   5.158   5.017 -0.0508  0.1034 -0.4929
24137W        W40611   8.492  10.588   4.423  0.1871  0.3048  0.1469
24138W        W40612   0.381  17.501  13.961  0.0314 -0.0820  0.1385
24139W        W40613  11.696  16.828   4.456  0.0006  0.3941  0.0372
24140W        W40614   8.971   8.646   1.591  0.2380  0.2168  0.1266
24141W        W40615   5.441  12.931  12.295  0.3425 -0.0833 -0.0841
24142W        W40616  14.655   2.394  14.528  0.0293 -0.1638  0.0692
24143W        W40617   9.533   5.617   0.134  0.4204 -0.0384  0.1525
24144W        W40618  15.383  13.408   1.596  0.1552  0.1892 -0.0818
24145W        W40619  10.615   7.427   4.536  0.0418  0.0350  0.0454
24146W        W40620   0.974   8.875  10.645 -0.0814  0.0136 -0.1504
24147W        W40621   8.062  13.411  13.766  0.0837 -0.0271  0.1750
24148W        W40622   8.489  17.809   0.865  0.0028 -0.1519 -0.3285
24149W        W40623  11.334  11.787  12.334 -0.0864  0.0718  0.0259
24150W        W40624   8.614  17.532  12.208 -0.2866 -0.3418  0.3260
24151W        W40625   1.254   5.148   2.261  0.3594 -0.0408  0.1276
24152W        W40626   5.781   7.009  10.625 -0.1108  0.0195 -0.1037
24153W        W40627   0.462   6.904   3.537 -0.2771 -0.1984  0.0813
24154W        W40628  15.491  15.705   4.500  0.0001 -0.0627 -0.0257
24155W        W40629  18.068   0.636  11.864 -0.0883  0.1438  0.2467
24156W        W40630  11.785  15.846   2.470 -0.0572  0.2015  0.2406
24157W        W40631   6.508   6.942   3.776 -0.2809 -0.2731 -0.2004
24158W        W40632  13.511  13.962   3.335 -0.0348 -0.0324  0.3229
24159W        W40633  16.839  13.643   1.306  0.0720 -0.4439  0.0231
24160W        W40634   8.564  15.634  11.781 -0.1217  0.0885  0.1834
24161W        W40635  17.926   7.381   4.139 -0.2126 -0.1819 -0.0040
24162W        W40636   4.259   9.214   5.746  0.1689  0.1042 -0.1296
24163W        W40637  16.063   0.781  12.439 -0.1042  0.0220 -0.0836
24164W        W40638   1.786  13.336   1.951  0.0040 -0.1976 -0.0427
24165W        W40639   3.872  13.713   2.537  0.0522 -0.0923  0.1032
24166W        W40640  14.048  14.045   3.453 -0.1028 -0.1829 -0.0009
24167W        W40641   2.791  13.038  11.032 -0.0421  0.0606 -0.2916
24168W        W40642  15.778   0.672  14.071  0.4448  0.3648  0.3317
24169W        W40643   8.426   1.180   3.555  0.0129 -0.5350  0.1947
24170W        W40644   7.946  14.686   3.698  0.0252 -0.2662 -0.0867
24171W        W40645  14.627  18.058  14.620  0.3300  0.2070  0.1617
24172W        W40646  15.812   6.628   2.652 -0.0102 -0.1743  0.3822
24173W        W40647   4.167   4.216   9.367 -0.2182  0.1803 -0.1836
24174W        W40648   0.287   1.124  10.608  0.0711  0.0067 -0.0136
24175W        W40649  15.833   8.355   3.272  0.0563  0.2605  0.0876
24176W        W40650   8.061   8.572   4.499 -0.2726  0.0371 -0.1175
24177W        W40651   3.841  17.645  10.331 -0.1048  0.3034 -0.0338
24178W        W40652   8.434  12.814  12.500  0.1555 -0.2464 -0.0763
24179W        W40653   3.674   0.992   3.845 -0.0352  0.0681 -0.2221
24180W        W40654  11.077   0.055  13.505 -0.1291 -0.0958 -0.0051
24181W        W40655   7.241   9.177  11.696  0.2086 -0.0378 -0.1721
24182W        W40656   9.055   5.522   9.258  0.0012  0.1130 -0.1196
24183W        W40657  14.704   3.403   0.230 -0.1423 -0.1733 -0.1236
24184W        W40658   7.987  10.775  13.455 -0.0128 -0.0010 -0.1541
24185W        W40659   9.175   6.450  10.739  0.0003  0.1225  0.0515
24186W        W40660  18.913  15.951   0.642 -0.0728 -0.4647  0.4612
24187W        W40661  13.058  11.218  14.393 -0.0930  0.0869  0.2890
24188W        W40662   9.340  16.549   3.896  0.0144 -0.0233 -0.1566
24189W        W40663  15.705  16.266  13.256 -0.0313 -0.1571  0.0687
24190W        W40664  16.300   8.360  12.817  0.2586  0.1708  0.0244
24191W        W40665  16.635  13.200  12.462 -0.0656  0.1405  0.0753
24192W        W40666  10.626  16.028  13.650  0.2106 -0.0435 -0.0623
24193W        W40667  11.876   3.063   1.498  0.2196 -0.1001  0.1386
24194W        W40668   5.026  17.492  11.928  0.2005 -0.1627 -0.0434
24195W        W40669  10.793   0.987  13.621  0.1620 -0.1586  0.0871
24196W        W40670  14.626   3.839  13.693  0.2092  0.4036  0.2518
24197W        W40671  13.693   3.113   4.462 -0.1072 -0.2030  0.0170
24198W        W40672   0.828  15.705   3.350 -0.3494  0.0745 -0.0774
24199W        W40673   9.218   8.368   3.023 -0.2324 -0.1103 -0.4278
24200W        W40674   3.191   9.829   3.476 -0.2445  0.1609 -0.4125
24201W        W40675  17.876  18.498  10.411 -0.0361  0.0256  0.0240
24202W        W40676  15.801   2.052   4.003 -0.0524  0.1337 -0.1053
24203W        W40677   2.719   1.142  11.071 -0.3739 -0.0408  0.0451
24204W        W40678   6.679  18.285   2.900  0.1520 -0.1515 -0.0683
24205W        W40679  13.360   2.993   4.850 -0.3614 -0.0183 -0.3691
24206W        W40680  16.537  16.141   1.904  0.0721 -0.2901 -0.1522
24207W        W40681   3.696  14.744  12.352  0.2291 -0.0064 -0.1649
24208W        W40682  18.262  16.927  12.730 -0.1900  0.2082  0.0787
24209W        W40683   2.477  11.045  13.056  0.2468 -0.0585 -0.0098
24210W        W40684  15.444  11.642   3.102 -0.0352 -0.2239 -0.0192
24211W        W40685  15.391  11.343  14.073 -0.1615 -0.5301  0.1625
24212W        W40686   0.359   0.988   1.281 -0.1585 -0.2015  0.2053
24213W        W40687   7.410   2.030  14.717  0.0372 -0.2267  0.4874
24214W        W40688  17.373  14.934  14.615 -0.0935 -0.2189  0.3828
24215W        W40689  15.323  16.334   4.561 -0.0033  0.4670 -0.1003
24216W        W40690   2.172   5.896   0.444  0.0223  0.0660  0.0325
24217W        W40691  16.942   7.272  14.024 -0.1486  0.0992 -0.0741
24218W        W40692  15.919   4.408   3.406 -0.0984 -0.1411  0.2937
24219W        W40693  18.627   6.604  10.767  0.2630 -0.0789 -0.1714
24220W        W40694  13.109  13.301   5.339  0.0465  0.0718  0.2642
24221W        W40695  15.535   4.982  14.143 -0.1538  0.2938  0.0350
24222W        W40696  11.206   3.845  10.085  0.0789  0.0595 -0.0285
24223W        W40697  15.001  11.637  10.582 -0.3848 -0.1077 -0.5184
24224W        W40698  12.473   3.438   0.733 -0.1946 -0.3720  0.0641
24225W        W40699  11.294   1.498   5.335  0.0136  0.0101 -0.2673
24226W        W40700   1.744   5.061  13.269  0.0890 -0.0830 -0.1036
24227W        W40701  11.287  13.330   2.127  0.0957 -0.1973  0.0620
24228W        W40702  17.711  18.248  14.617  0.0377 -0.0579  0.1490
24229W        W40703   7.569   7.523   3.007 -0.0818 -0.0008 -0.0269
24230W        W40704  16.653   0.625  12.895 -0.1452  0.3131 -0.0165
24231W        W40705  11.215  17.065  10.145 -0.3998 -0.1698 -0.3378
24232W        W40706  17.617   5.140  12.194  0.3340 -0.1029 -0.1321
24233W        W40707  19.282   7.039  13.472  0.1586 -0.0697 -0.0689
24234W        W40708  10.470  19.403   0.372 -0.2837 -0.0610  0.5487
24235W        W40709   1.433  16.524   2.025 -0.0682  0.3810 -0.0110
24236W        W40710  19.415   2.935   2.760  0.0602  0.0968 -0.0854
24237W        W40711  14.983  15.849  13.227  0.1455  0.0095  0.0414
24238W        W40712  18.975   5.490  11.446 -0.0128 -0.1228  0.5528
24239W        W40713   8.481   6.920  13.998  0.0956  0.0238 -0.2786
24240W        W40714   7.856   9.989   0.568 -0.3169  0.2360 -0.3581
24241W        W40715  18.665  18.373   1.866  0.1639  0.4228  0.1084
24242W        W40716   0.717  13.716  12.855 -0.1607  0.0680  0.3707
24243W        W40717  17.349  17.796   4.603  0.4132 -0.3871  0.1626
24244W        W40718  17.427  10.487   5.082  0.1100 -0.0054 -0.0225
24245W        W40719  13.701   2.815  13.273  0.1202 -0.0052 -0.4489
24246W        W40720   6.312   7.685   0.978  0.0152 -0.1481 -0.2387
24247W        W40721   2.830   8.813  10.255  0.5521  0.3425 -0.0107
24248W        W40722  12.997   8.015  13.092 -0.2674 -0.0151 -0.3814
24249W        W40723  14.928   7.229  12.056  0.0008 -0.1952  0.0087
24250W        W40724  17.595  18.926  13.937  0.1827  0.1162  0.1804
24251W        W40725  15.974  13.923   1.205  0.0799 -0.2279  0.2658
24252W        W40726  14.385  10.069  11.568 -0.0869 -0.1488 -0.3950
24253W        W40727   5.344   4.753  13.981  0.0159  0.2713 -0.0853
24254W        W40728  12.682   9.411  12.001 -0.0505 -0.0107 -0.0235
24255W        W40729  15.205  16.901   2.064  0.0045  0.2605  0.0204
24256W        W40730   8.241  12.216  11.751 -0.1178  0.0115  0.0600
24257W        W40731  14.544   2.949   0.643 -0.0772  0.0894 -0.1029
24258W        W40732   9.074  15.790  11.017 -0.0488  0.2866 -0.1041
24259W        W40733   3.955  13.086  13.969  0.0041  0.0917 -0.4089
24260W        W40734   7.002   1.471  11.379  0.1644 -0.1611 -0.2055
24261W        W40735   1.768   9.039  11.165  0.1094  0.0203 -0.1005
24262W        W40736   3.255  16.858  11.180  0.0215 -0.2881 -0.4205
24263W        W40737  19.261   9.314   2.059 -0.1355  0.2992 -0.2980
24264W        W40738   0.084  13.665  13.143 -0.0948  0.1155 -0.1148
24265W        W40739  14.100   0.459  12.192 -0.3030 -0.0973 -0.0949
24266W        W40740  14.005  11.316  10.779  0.0219  0.1862  0.0808
24267W        W40741  12.592   5.840   0.016 -0.3557  0.0811 -0.3254
24268W        W40742   4.320   4.395  10.726  0.0254 -0.2159 -0.0324
24269W        W40743   8.273  18.374   2.794  0.3047 -0.0191 -0.1282
24270W        W40744  12.055  14.750  12.974 -0.0501 -0.1089  0.2122
24271W        W40745   2.520  13.803  11.886  0.1108  0.0852 -0.4921
24272W        W40746  12.374   4.393   3.113 -0.1987  0.0746  0.0466
24273W        W40747  16.298   9.220   3.847 -0.1156 -0.1905 -0.0806
24274W        W40748  13.630  10.392   4.212  0.0240  0.0863 -0.0965
24275W        W40749   1.654  10.177  14.531  0.4999 -0.0125 -0.0859
24276W        W40750  10.809   2.543  13.154  0.0525 -0.1121 -0.1308
24277W        W40751  11.909  10.679   2.996 -0.0416 -0.0569 -0.1145
24278W        W40752  10.110   3.021   1.304  0.2515  0.0755 -0.1471
24279W        W40753  11.730  12.561  12.682  0.1181  0.2077  0.0997
24280W        W40754  11.408   5.182   0.761  0.1944 -0.0730 -0.1209
24281W        W40755   9.229   7.548  10.759  0.2932  0.2820  0.1584
24282W        W40756   7.501   1.202   1.002 -0.2752  0.2492 -0.0440
24283W        W40757  15.350   0.265  11.937 -0.1829 -0.3949  0.1191
24284W        W40758   7.257   0.870  12.254  0.1416 -0.1986 -0.1117
24285W        W40759   9.040  18.944  11.215 -0.0144  0.1944  0.0379
24286W        W40760   0.054  16.446   0.282 -0.1535  0.1460  0.2024
24287W        W40761   7.757   9.098  14.253 -0.0979  0.1602  0.1387
24288W        W40762  17.818   6.366   0.183  0.1376 -0.2432  0.0318
24289W        W40763  14.059   1.067  13.398 -0.0258 -0.0536  0.2726
24290W        W40764  18.121  15.232   1.834 -0.0013 -0.0428  0.1949
24291W        W40765  10.887   8.645  12.999  0.2245  0.0212 -0.0863
24292W        W40766  14.668  18.998   0.596  0.2184 -0.1185  0.1449
24293W        W40767  13.719  15.013   1.626 -0.0202 -0.0342 -0.0600
24294W        W40768   1.211  17.379   9.994  0.0139  0.1314  0.0659
24295W        W40769  18.498  11.652   4.422  0.1444  0.2107  0.0843
24296W        W40770  11.175   5.386   0.286 -0.2250 -0.3517 -0.0986
24297W        W40771  16.626   3.457  12.617  0.4429  0.0356  0.1586
24298W        W40772   7.121   9.399   3.918  0.0881 -0.0828  0.1767
24299W        W40773   8.567  14.705  14.657 -0.1157  0.0327  0.1514
24300W        W40774  13.665   2.393   3.480 -0.1556  0.1654 -0.0022
24301W        W40775  14.530  13.593  13.452 -0.1359 -0.2791 -0.0438
24302W        W40776   0.229   0.225   0.062  0.0993 -0.0824 -0.2317
24303W        W40777   8.238  12.292   5.126 -0.2014  0.1480 -0.3259
24304W        W40778  12.191   0.468  14.099 -0.1035  0.2215 -0.0757
24305W        W40779  14.114  13.903  13.569 -0.1839  0.2735  0.3769
24306W        W40780   2.408  16.903   4.793  0.1181 -0.1929 -0.2718
24307W        W40781   2.346   9.734   2.948 -0.0043 -0.1512 -0.1004
24308W        W40782  18.448  18.110   4.444 -0.0400 -0.1546  0.2641
24309W        W40783   7.692   7.611  11.440 -0.0792  0.2820  0.2585
24310W        W40784  17.097  14.249   3.469  0.2441 -0.2919 -0.0341
24311W        W40785  11.295   6.149  13.662  0.0491 -0.0828  0.2137
24312W        W40786  12.213  14.030  13.862  0.2052 -0.1474  0.0612
24313W        W40787   3.754   1.061  13.216 -0.0917 -0.2454  0.2226
24314W        W40788   0.186   0.513  13.247  0.2025 -0.2256 -0.1168
24315W        W40789  11.532  18.462   5.090  0.0914 -0.4172  0.2549
24316W        W40790   6.621  13.041  14.353  0.1061  0.1986  0.0143
24317W        W40791  18.442   6.144   3.139  0.0905  0.1283  0.1314
24318W        W40792   4.863   3.738   4.593 -0.0146 -0.0810 -0.2385
24319W        W40793   9.205   8.783  13.056 -0.0072 -0.1301  0.1437
24320W        W40794  15.554  15.213  12.053 -0.2845 -0.0684 -0.2030
24321W        W40795   0.174   4.151   4.239 -0.1120 -0.0774  0.3145
24322W        W40796  14.307   2.090  14.636 -0.0804 -0.0752 -0.0130
24323W        W40797  19.350   7.118  10.268 -0.3744 -0.1576  0.0245
24324W        W40798  11.340  17.943   5.680 -0.3713  0.5710  0.2939
24325W        W40799   6.979  11.916  12.494 -0.4172 -0.0864 -0.3228
24326W        W40800  17.802   9.182   1.682  0.0390 -0.0214  0.0518
24327W        W40801   5.628  11.501   9.498 -0.3136 -0.0155  0.3962
24328W        W40802  16.678  18.207   1.312  0.1474 -0.1113  0.0647
24329W        W40803  17.906  13.215   2.814  0.2154 -0.0540  0.2045
24330W        W40804   1.148   0.958   1.775 -0.2318  0.1539 -0.2022
24331W        W40805   7.645  14.179  11.645 -0.2808 -0.5083  0.2922
24332W        W40806  18.550  16.088  14.104 -0.1053 -0.1664 -0.0510
24333W        W40807   9.745   9.601  14.523  0.3072  0.1273  0.0566
24334W        W40808   6.682  13.180  13.877  0.1544 -0.1548 -0.0745
24335W        W40809   6.245   7.492  11.106 -0.1614 -0.0446  0.1557
24336W        W40810   4.564  10.365   2.081  0.1279  0.0868  0.3469
24337W        W40811   2.709   4.385  11.248 -0.2570 -0.2115 -0.0877
24338W        W40812  14.394  12.749  14.450  0.0857 -0.3285 -0.2297
24339W        W40813  10.556  13.675  13.642 -0.1896  0.0468 -0.2580
24340W        W40814   2.286   5.402   0.481 -0.1260 -0.0007  0.3356
24341W        W40815   9.893   4.395  11.166  0.1546 -0.1894 -0.1451
24342W        W40816   6.383  18.830   1.811  0.0999 -0.1307  0.3035
24343W        W40817  11.694  16.838   5.132 -0.0119  0.0449  0.0568
24344W        W40818   8.119   3.278   2.594 -0.1739  0.0082 -0.2128
24345W        W40819  14.924   7.989   4.202  0.0928 -0.2727 -0.0092
24346W        W40820  18.878  14.582   1.409  0.4292  0.1847 -0.1634
24347W        W40821  15.216   1.277  12.019  0.1541 -0.2014 -0.1739
24348W        W40822  18.388  12.098  13.783  0.0874  0.3811 -0.0817
24349W        W40823  15.143   7.103   0.160 -0.0595 -0.1525 -0.1936
24350W        W40824   9.627   2.662  13.900 -0.0754 -0.1627  0.1310
24351W        W40825   2.023   8.716   4.242 -0.3836  0.1329 -0.3947
24352W        W40826  19.385  14.923   0.426  0.3586  0.0324  0.0331
24353W        W40827  15.438   6.173  11.428  0.0724  0.3149 -0.0515
24354W        W40828  11.257   5.970  11.710  0.4425 -0.2017  0.1026
24355W        W40829   5.685  12.684   0.306 -0.1703 -0.1974  0.0071
24356W        W40830  19.053   4.819  14.686 -0.0729  0.0481  0.0794
24357W        W40831  19.326   2.487   9.443  0.0895 -0.4474  0.0772
24358W        W40832  17.214  14.408  13.827 -0.3304 -0.0164  0.2203
24359W        W40833  17.630  17.926   5.478  0.3190  0.0781 -0.3667
24360W        W40834  13.444   8.055   3.617 -0.3226  0.0260 -0.0290
24361W        W40835  10.045  11.203   3.276  0.1208 -0.1594 -0.1233
24362W        W40836   2.473   6.575   3.061 -0.1361 -0.2683  0.1366
24363W        W40837   0.316   4.524  10.130  0.0102 -0.0124 -0.1748
24364W        W40838   5.559   2.844   0.439 -0.3385  0.1326 -0.0480
24365W        W40839   2.232   3.009  13.112  0.1158  0.5425 -0.0984
24366W        W40840   7.269  18.673  12.942 -0.0706  0.0793  0.2980
24367W        W40841  14.128  10.983   9.972 -0.2510  0.1216 -0.3372
24368W        W40842  11.930   1.179   0.083  0.1099 -0.1826 -0.3068
24369W        W40843   8.434  17.511   0.346  0.0536  0.1855 -0.2188
24370W        W40844   1.808   6.025  12.446  0.1289 -0.1783 -0.0029
24371W        W40845  12.165   7.305  10.688 -0.1376  0.0900  0.2592
24372W        W40846  12.035   4.839  13.437  0.1262 -0.2167  0.0234
24373W        W40847  10.154  13.704  13.245 -0.3235  0.0280  0.4770
24374W        W40848  16.051   9.727   1.525  0.0121  0.0820  0.0703
24375W        W40849   2.906   0.255   3.838 -0.0603 -0.0949  0.1874
24376W        W40850   2.492  17.930  12.550 -0.0350  0.1131  0.0953
24377W        W40851  11.022  12.463  10.721  0.0155  0.1820 -0.0057
24378W        W40852   2.695   8.410   2.817 -0.2995  0.3437  0.1301
24379W        W40853   4.938   9.508  12.954  0.0240  0.1393 -0.0267
24380W        W40854  18.739   2.380   1.236  0.1236 -0.1961 -0.0649
24381W        W40855  12.241   6.947   3.241  0.1226  0.1898 -0.0453
24382W        W40856   4.547  14.789   2.553 -0.0897  0.2269 -0.1794
24383W        W40857   2.763   8.122  10.313  0.1312  0.0323  0.1780
24384W        W40858  11.488  16.341   3.879  0.1340 -0.1526  0.1454
24385W        W40859   6.191  16.432  13.799  0.1351 -0.1351  0.0385
24386W        W40860   9.213   5.810  14.219 -0.0657 -0.1741 -0.4129
24387W        W40861   6.790   8.251   9.797  0.0126  0.1145 -0.1137
24388W        W40862   0.251  11.696   2.268 -0.1988 -0.0717 -0.0592
24389W        W40863   0.493  15.811  11.969  0.0746 -0.1304 -0.0101
24390W        W40864   8.994   4.198   3.688  0.0638  0.2021  0.1716
24391W        W40865  12.569   5.797   4.540 -0.0204 -0.0720  0.0568
24392W        W40866   7.733   0.597  12.397 -0.1275  0.1155  0.0684
24393W        W40867   3.479   1.984  10.560  0.0336 -0.2082 -0.0077
24394W        W40868  10.977  15.519  10.548  0.0986 -0.2190  0.4716
24395W        W40869   9.135  14.685   1.958 -0.1073  0.0438  0.1133
24396W        W40870  13.844   7.191   2.244 -0.1851  0.2266  0.0546
24397W        W40871   9.840  12.413   2.944  0.2735  0.0048 -0.3942
24398W        W40872  13.492   6.010  13.637 -0.0379 -0.2693  0.1225
24399W        W40873  14.215   3.043   4.587  0.1171  0.2149  0.1565
24400W        W40874   5.555  16.932  10.846  0.0836  0.1277  0.1410
24401W        W40875  12.341   3.283  13.616  0.1468 -0.2195 -0.0147
24402W        W40876   9.692   9.553   3.825  0.1558  0.1733 -0.2106
24403W        W40877  13.654  10.168  12.104  0.1267 -0.1996 -0.2996
24404W        W40878   3.847   9.643  10.342 -0.2370  0.0781  0.1186
24405W        W40879  16.431   1.379  11.789  0.0875 -0.2148  0.0502
24406W        W40880  16.978   6.993   3.392 -0.0841 -0.0775 -0.2127
24407W        W40881   8.880   1.406  14.575  0.0392 -0.0380 -0.1684
24408W        W40882   1.034   5.087   1.293 -0.1347  0.3033 -0.1408
24409W        W40883  10.294  13.550  12.605 -0.1580 -0.1276 -0.0162
24410W        W40884  12.370   3.878   1.136 -0.1840  0.0837 -0.2540
24411W        W40885  16.903   9.387   2.138 -0.0061  0.2396 -0.1340
24412W        W40886   1.402  14.014   3.457  0.0805  0.2081  0.3244
24413W        W40887   1.158   3.623  10.571 -0.0625 -0.2662 -0.1040
24414W        W40888  16.629   9.231  14.303  0.0144  0.0231 -0.0218
24415W        W40889  19.503   8.684   3.253  0.3478  0.2273  0.0305
24416W        W40890   2.492   5.983   1.361  0.1662  0.0497 -0.1618
24417W        W40891  17.430  19.183   1.656  0.2088 -0.0252  0.1353
24418W        W40892  16.787  11.719   1.265 -0.2028  0.0129  0.1321
24419W        W40893   0.673   4.189  11.878 -0.3923  0.1969 -0.0946
24420W        W40894   0.160  13.426  11.370  0.0386 -0.0260  0.0300
24421W        W40895   4.552  19.127   2.078  0.3955  0.4100  0.2950
24422W        W40896  17.108  15.812   3.248 -0.0764  0.3210  0.0595
24423W        W40897   1.916  15.233   5.043  0.2090  0.2012 -0.3132
24424W        W40898  19.214   4.667  11.682 -0.1586  0.0730  0.2766
24425W        W40899  10.962   9.230  12.716 -0.2678  0.0388  0.0554
24426W        W40900  15.904   3.116   2.601 -0.3363  0.3356  0.3246
24427W        W40901  10.418  15.560  13.462 -0.0471 -0.1595 -0.3425
24428W        W40902   5.786   0.603   3.061 -0.0082 -0.3197 -0.0533
24429W        W40903   5.360  16.617   4.017 -0.0772 -0.1979  0.2564
24430W        W40904   0.444   2.700   4.528  0.1801 -0.2251  0.0268
24431W        W40905  18.882  18.996   2.635 -0.2325 -0.1994 -0.0263
24432W        W40906   7.960  19.555  14.647 -0.2563  0.0864  0.2719
24433W        W40907   3.708  17.558   2.526 -0.0780  0.3241  0.0330
24434W        W40908  15.143   6.191  12.421  0.1171  0.0151  0.0660
24435W        W40909   3.007  16.589  14.648 -0.0204  0.2107  0.1489
24436W        W40910  12.948   4.601   3.584  0.1784  0.0205 -0.2629
24437W        W40911   7.256  15.521   9.933 -0.1648  0.2603  0.1175
24438W        W40912   2.567  13.530   4.282 -0.1169  0.0328 -0.1869
24439W        W40913  12.888  11.139   1.275  0.0597  0.2439  0.1275
24440W        W40914   4.639  16.483   9.997 -0.0871  0.0690 -0.2517
24441W        W40915   8.754   5.117   1.264  0.1232 -0.0636 -0.0404
24442W        W40916   6.197   9.832  12.517  0.0384 -0.2829 -0.4147
24443W        W40917   0.059  15.352  13.430  0.2037  0.0246  0.4890
24444W        W40918   0.319  10.292  10.220  0.1189 -0.0382  0.1337
24445W        W40919  10.947  11.368   3.452 -0.0266  0.0498 -0.0803
24446W        W40920   8.527   1.399   0.955 -0.0091  0.2323  0.2100
24447W        W40921   7.919   2.636   1.772  0.3362 -0.3581 -0.1475
24448W        W40922  13.160   1.155  10.953 -0.0965  0.1868 -0.0942
24449W        W40923   3.196  18.582   0.730  0.1255  0.2506 -0.1649
24450W        W40924  12.798   9.213   0.085  0.1172 -0.0437 -0.0276
24451W        W40925   0.912  17.637   0.374 -0.2082 -0.2753 -0.4753
24452W        W40926  14.859  11.176  13.337 -0.0551 -0.1447 -0.1167
24453W        W40927   4.596  15.322   3.539  0.2406  0.1504 -0.3053
24454W        W40928   7.477   7.962   0.920  0.0753  0.1048 -0.1420
24455W        W40929   0.174   4.943   1.137 -0.2296  0.3353  0.3050
24456W        W40930   4.479   3.893  10.713 -0.0386 -0.2371 -0.2173
24457W        W40931  18.792   6.210  13.655  0.0023 -0.5530 -0.1273
24458W        W40932   2.894  17.212   1.674 -0.1425 -0.1427 -0.2314
24459W        W40933   4.868   6.242  10.638  0.1801 -0.1001  0.0886
24460W        W40934   3.108   7.758   3.274 -0.1047 -0.1615  0.0184
24461W        W40935   4.009  12.608   8.889 -0.1094 -0.4136 -0.0032
24462W        W40936  14.583   2.777   2.760  0.0345  0.0010  0.3587
24463W        W40937  14.156  13.294   1.240  0.2621  0.2203  0.1123
24464W        W40938  19.285   4.472   2.497  0.1155 -0.0825 -0.0356
24465W        W40939   0.513  16.844   1.586  0.0210  0.0137 -0.2532
24466W        W40940   2.758   8.781  12.331 -0.0482 -0.1282  0.1276
24467W        W40941  15.175  18.930  12.529  0.0197 -0.2486 -0.0652
24468W        W40942   1.053   0.419  12.355  0.4824  0.4579 -0.1553
24469W        W40943   2.031   4.617  13.470 -0.0100  0.0465 -0.1123
24470W        W40944  11.090  14.653   4.366 -0.3309 -0.2800  0.2081
24471W        W40945  17.510   2.197  10.927  0.0375 -0.2868  0.0475
24472W        W40946   5.752  15.271   2.041  0.1260  0.0701  0.1038
24473W        W40947   6.916   6.385   3.601  0.0391  0.0599  0.2381
24474W        W40948  10.367   5.618   4.066 -0.1775 -0.2358 -0.0564
24475W        W40949   0.524  19.111  10.457 -0.0438 -0.0780 -0.1130
24476W        W40950  15.477   2.970   2.828 -0.0853 -0.1615  0.0504
24477W        W40951   3.851  14.546   0.609  0.1025  0.0194 -0.0527
24478W        W40952  18.275   8.094  11.818  0.2498  0.0885 -0.1114
24479W        W40953  15.547   8.007   3.460  0.1914  0.1169  0.1401
24480W        W40954  17.274  17.692   1.938 -0.1040  0.2016  0.0224
24481W        W40955   2.996  14.330  12.769  0.1758 -0.1043 -0.0351
24482W        W40956   5.384  15.988   3.757  0.0184 -0.3879 -0.0012
24483W        W40957  11.106   4.848  13.448  0.6503 -0.1241 -0.1050
24484W        W40958  11.547  16.190  12.054 -0.0914  0.3453 -0.1641
24485W        W40959   1.517  11.386   5.249 -0.0237 -0.2672  0.0566
24486W        W40960  14.730   5.732   5.613  0.0047  0.0937  0.0991
24487W        W40961   6.293  14.170   1.993  0.1085  0.0219 -0.1315
24488W        W40962  13.711   1.966  13.370 -0.1511  0.0961 -0.2147
24489W        W40963   6.675  15.103   2.086  0.2953 -0.3836 -0.3830
24490W        W40964   4.185   9.262   3.996 -0.1430  0.2952  0.0941
24491W        W40965  13.157   7.690  11.319 -0.1139  0.1203 -0.1107
24492W        W40966  17.660  14.627   1.265 -0.0406 -0.3352  0.0279
24493W        W40967  18.959   7.198   5.732  0.1455  0.1419 -0.2032
24494W        W40968   5.657  11.995   2.990 -0.2763  0.3358  0.0469
24495W        W40969   8.361   8.241  13.426 -0.3916 -0.0816  0.1124
24496W        W40970  17.458   0.342   4.230 -0.3170 -0.1460 -0.0389
24497W        W40971   9.163   6.396  12.237 -0.2840 -0.0054 -0.2155
24498W        W40972  14.375   2.145   1.649  0.1189  0.0669 -0.1281
24499W        W40973   3.339  15.410   1.593 -0.0652  0.4081 -0.1073
24500W        W40974   2.579   6.887  11.893 -0.0259 -0.3116 -0.0229
24501W        W40975   4.825   8.689   2.779  0.2356 -0.1027 -0.0197
24502W        W40976  11.076  18.184   5.143  0.1249 -0.0769  0.2775
24503W        W40977   3.221  17.144  10.781 -0.3870 -0.5790  0.1187
24504W        W40978  14.638   5.470   1.027  0.0442 -0.4051 -0.1746
24505W        W40979  17.934  11.424  10.710 -0.1561 -0.3482  0.0022
24506W        W40980  11.725  13.197   1.289 -0.1321  0.0336  0.0381
24507W        W40981  15.672  17.978  10.256 -0.2006 -0.1379  0.1091
24508W        W40982   6.137   0.430  10.840 -0.1891 -0.1628  0.0124
24509W        W40983   1.622   2.530   3.315  0.0903  0.2461  0.1536
24510W        W40984  18.569   0.850  14.105  0.2548  0.2373 -0.0388
24511W        W40985   6.871  18.275  12.256 -0.1099  0.2304 -0.1969
24512W        W40986   7.781   7.202   3.352  0.2720  0.1199 -0.1958
24513W        W40987   3.927   3.478   0.343 -0.0848 -0.0629  0.0315
24514W        W40988   4.437   1.624  11.062 -0.2269  0.3169 -0.2572
24515W        W40989   6.743   3.152  13.094 -0.1616 -0.3214  0.1718
24516W        W40990  19.468  18.793   5.146 -0.1631 -0.0087  0.2145
24517W        W40991  18.594  18.695  12.231 -0.0071  0.0604  0.1058
24518W        W40992   0.974   8.032   4.196 -0.1599 -0.0454 -0.8767
24519W        W40993  13.115   0.437   3.762 -0.2606 -0.0260 -0.1138
24520W        W40994  17.997   4.192   4.162 -0.1016 -0.0364 -0.1202
24521W        W40995   9.840  12.806   5.047 -0.0588  0.2319 -0.2807
24522W        W40996   3.149  11.842   3.716 -0.0653 -0.0404  0.3258
24523W        W40997   5.741  14.371  14.379  0.0862  0.1373  0.3544
24524W        W40998   5.766  12.022   2.475  0.0440 -0.0286  0.1824
24525W        W40999   8.075   5.325   0.728 -0.2211  0.1353 -0.0313
24526W        W41000  10.229  18.398  13.794  0.2391  0.1478  0.0811
24527W        W41001  10.516   7.202  12.283  0.0903 -0.0806 -0.1840
24528W        W41002   5.477  13.313  11.065 -0.0541  0.0187  0.0476
24529W        W41003   4.439  11.409  14.142 -0.2099  0.2091  0.0346
24530W        W41004   3.898   1.763   2.770  0.3261  0.0459 -0.0731
24531W        W41005   0.161   3.473   0.952 -0.2060  0.1331  0.1068
24532W        W41006  12.373   5.497   2.460  0.3788 -0.0129  0.1224
24533W        W41007  13.841   3.499   3.189  0.0786 -0.0589  0.3241
24534W        W41008  18.347   5.243   0.701  0.0584  0.0524 -0.3525
24535W        W41009  16.501   5.725   3.051  0.0497 -0.3233  0.0400
24536W        W41010   7.113   0.792   2.418 -0.0325  0.1247 -0.0425
24537W        W41011  11.201   7.687   3.461  0.1827 -0.3810 -0.0752
24538W        W41012   4.955  10.549   1.223  0.1163 -0.0899 -0.1236
24539W        W41013  18.493  11.741   2.347 -0.1863  0.0274 -0.1806
24540W        W41014   8.622   1.853  14.659  0.0962  0.0070  0.0074
24541W        W41015   8.288   4.950   5.422 -0.1492 -0.3206  0.4357
24542W        W41016   4.238  10.765   4.082  0.1963 -0.0892 -0.0007
24543W        W41017   0.082   3.429  14.696 -0.1763  0.1276  0.1003
24544W        W41018   9.942   5.489   4.606  0.0749  0.1109 -0.1942
24545W        W41019   4.215   8.055   0.859 -0.0619 -0.1489 -0.1657
24546W        W41020   5.155   6.421  13.485 -0.2886  0.1616  0.1174
24547W        W41021   3.143  18.337  14.001 -0.0155  0.4242 -0.1820
24548W        W41022   9.011   0.527   1.817 -0.4436  0.0566 -0.3969
24549W        W41023   6.154  17.110   1.350 -0.0549  0.1140 -0.0209
24550W        W41024  16.932   5.122   2.036 -0.0343  0.0862 -0.1226
24551W        W41025   6.580   7.630   2.482 -0.1413  0.2079 -0.1849
24552W        W41026   0.561  16.923   2.910  0.1546 -0.1437  0.0030
24553W        W41027  12.310  18.739   3.154 -0.0525  0.0112  0.1208
24554W        W41028  16.501   2.840   3.026 -0.1782  0.0698 -0.2108
24555W        W41029   6.685   8.038  12.537 -0.3706 -0.0987  0.0578
24556W        W41030   7.035   2.826   3.893  0.3394  0.0400  0.1602
24557W        W41031  17.171   7.678  13.671 -0.0373 -0.1811  0.2124
24558W        W41032   1.531   0.447  13.023 -0.1037  0.4614 -0.2470
24559W        W41033   6.763   9.475   0.163  0.1036  0.0534  0.2867
24560W        W41034   7.851  15.139   0.336 -0.0782 -0.2792  0.1245
24561W        W41035  18.690  17.331  14.385 -0.1753  0.1178  0.0357
24562W        W41036   1.713   6.639  11.111  0.1302  0.3363  0.1798
24563W        W41037   8.449  18.242  12.982 -0.0796 -0.0633  0.1470
24564W        W41038  19.315  15.497   9.007  0.1268 -0.0803  0.4158
24565W        W41039   1.634  10.772   2.007  0.1699 -0.0006  0.0353
24566W        W41040   3.619   6.674  13.827  0.4092  0.0662 -0.1424
24567W        W41041  11.506   0.197   4.436 -0.2714 -0.0198 -0.1795
24568W        W41042   1.278   0.616  13.686 -0.1315 -0.0519 -0.2603
24569W        W41043  13.006  15.598   3.308  0.1827 -0.0873  0.1815
24570W        W41044  18.741  14.777  13.134 -0.0517  0.0941 -0.0314
24571W        W41045   8.146  13.256  11.975  0.0688 -0.0616 -0.2535
24572W        W41046   3.251   7.309  11.470 -0.1088 -0.3862 -0.1027
24573W        W41047  17.216   0.689  10.203 -0.2666  0.0975 -0.0433
24574W        W41048  10.357   3.385  11.870  0.0463  0.0267  0.0204
24575W        W41049   3.417   2.465   0.708  0.1931  0.1228  0.2982
24576W        W41050  13.338   9.127   2.232  0.3166  0.1252  0.1498
24577W        W41051   2.549   2.237   2.272  0.3872 -0.0901  0.3029
24578W        W41052   9.820  11.609   4.633  0.3974 -0.1951 -0.2471
24579W        W41053   4.619   8.360  14.322  0.1122 -0.2179 -0.0225
24580W        W41054   5.166   3.203  10.987  0.2300 -0.0380 -0.1514
24581W        W41055   5.490   9.165   3.696  0.3837 -0.2009  0.2943
24582W        W41056   4.386   3.761  11.884 -0.1935  0.4170 -0.1659
24583W        W41057  13.162   9.691   0.993  0.0495 -0.0349 -0.0146
24584W        W41058  16.973   2.668   4.711 -0.0504 -0.0390 -0.1564
24585W        W41059   5.340  12.124  11.775  0.1953  0.0263  0.3153
24586W        W41060  17.102  15.799  14.175 -0.2796 -0.2961 -0.1627
24587W        W41061  13.533  19.464   4.629 -0.0543 -0.3051  0.1579
24588W        W41062   8.159   5.945   9.862 -0.1383 -0.1138 -0.0467
24589W        W41063   8.014   4.500   0.164 -0.0363 -0.1138  0.0718
24590W        W41064  17.269  12.564   2.099  0.2214 -0.0283  0.0464
24591W        W41065   1.953  17.655  12.265 -0.0726  0.2860  0.1517
24592W        W41066   7.053  16.860   5.006 -0.1328  0.2725 -0.0910
24593W        W41067   9.331   4.074  11.286  0.3319 -0.0256 -0.0789
24594W        W41068   6.553  11.102   4.671  0.0421  0.0551 -0.1100
24595W        W41069   4.881  11.532  12.815  0.1246 -0.0586  0.4296
24596W        W41070   4.124   8.951  11.531  0.0326  0.2671 -0.0532
24597W        W41071  18.647  14.815   0.930  0.0612 -0.2258 -0.2414
24598W        W41072  15.041  12.301  13.268  0.5286 -0.2303  0.2991
24599W        W41073  15.792   0.450  12.701  0.0471 -0.0935  0.5529
24600W        W41074   2.461  17.386  11.004 -0.0592  0.2341 -0.0054
24601W        W41075   0.051  18.333   3.861  0.1116  0.1052  0.0766
24602W        W41076   3.662  16.272  14.568  0.2401  0.1696  0.0863
24603W        W41077  15.637  15.030   1.998 -0.0359  0.0317 -0.1583
24604W        W41078   4.168   9.918  10.685 -0.0742  0.3343 -0.1602
24605W        W41079  15.571  14.787  14.123 -0.0135 -0.3633  0.0996
24606W        W41080   3.793   0.869   9.937  0.1292 -0.0343  0.1015
24607W        W41081   5.685   9.242  11.338 -0.4260  0.1931 -0.0198
24608W        W41082   2.311   1.133  14.683 -0.4789 -0.0690 -0.1357
24609W        W41083  14.663  16.109  11.419  0.0803  0.0395 -0.0390
24610W        W41084  19.548   6.520  14.116  0.1192 -0.1426  0.2382
24611W        W41085   9.653   9.109   4.159  0.0110 -0.1636  0.1753
24612W        W41086  18.992   8.499  12.247 -0.1288 -0.2076 -0.0786
24613W        W41087   1.517  14.018   2.401 -0.0164 -0.2411  0.0716
24614W        W41088   1.862   6.900  10.712 -0.1087  0.3122  0.1975
24615W        W41089   3.610  17.338   4.073 -0.2115 -0.1559 -0.2820
24616W        W41090   8.145   0.196   1.526 -0.2974 -0.1391 -0.1333
24617W        W41091  15.385  11.778  12.526  0.1161  0.2980 -0.0442
24618W        W41092   2.088   5.672   1.446  0.0472  0.0270 -0.0020
24619W        W41093  17.905   4.569   3.751  0.0931  0.3171  0.1982
24620W        W41094  14.708   2.865   8.743 -0.1856 -0.1104  0.0357
24621W        W41095  17.701  17.184  13.381 -0.0938 -0.0321 -0.2006
24622W        W41096  18.428   2.760  10.784  0.0878 -0.1608 -0.0946
24623W        W41097   6.423   5.943   1.832 -0.2443  0.0109  0.0536
24624W        W41098  19.540  11.829   4.189 -0.0856  0.0836  0.0146
24625W        W41099   1.721   7.790   2.627 -0.0498  0.3446  0.1519
24626W        W41100  11.664   4.427  11.406 -0.0543  0.0006  0.1492
24627W        W41101   4.180   1.139   9.058 -0.0495 -0.1859 -0.0186
24628W        W41102  15.711  18.969   4.964 -0.0350 -0.1753 -0.0603
24629W        W41103  18.518   9.115  10.495  0.1693  0.0591 -0.0771
24630W        W41104   7.263   3.280   4.240  0.2416  0.1387 -0.0356
24631W        W41105  11.810  10.741   1.200  0.1003  0.2194  0.2157
24632W        W41106  17.287   4.776  14.167  0.0532  0.1684 -0.3605
24633W        W41107  19.337  13.817   3.019 -0.0320 -0.1512  0.1114
24634W        W41108  16.668  11.639  14.297 -0.4122  0.0094  0.0709
24635W        W41109  18.255  12.415   3.770 -0.3325  0.1320 -0.1046
24636W        W41110   1.505  16.019  10.296 -0.0704  0.2322  0.0419
24637W        W41111   6.272  10.789  11.833  0.0552 -0.0856 -0.1292
24638W        W41112  14.902  10.335  13.498  0.0354 -0.3251 -0.0100
24639W        W41113   6.891   8.246   2.993  0.3991  0.1702  0.0136
24640W        W41114   9.606  18.226   0.448  0.1327 -0.0001  0.1843
24641W        W41115   2.778  17.908   3.378  0.3251 -0.1909 -0.1614
24642W        W41116  10.601   2.302   3.207  0.0891 -0.2743  0.2158
24643W        W41117  19.457   5.674   9.515 -0.0602  0.0559  0.1182
24644W        W41118  18.152  13.271   0.532  0.1584  0.0983 -0.2600
24645W        W41119   8.460   1.070  13.165  0.4517 -0.2069 -0.1683
24646W        W41120   4.812   8.912   1.767  0.0259  0.2281 -0.2006
24647W        W41121   7.022   6.577  12.563  0.0216 -0.3528 -0.1396
24648W        W41122   2.835   7.720  12.244 -0.4433 -0.2217  0.0814
24649W        W41123   3.420   2.900  11.067 -0.1850  0.1459  0.0290
24650W        W41124   9.583  14.988  10.334  0.1289 -0.0734 -0.1270
24651W        W41125   0.791  15.705   0.454  0.0580  0.1220  0.2631
24652W        W41126   1.062   7.428   1.734  0.1532 -0.1615 -0.2374
24653W        W41127   0.048  11.397   0.314  0.5738  0.1701  0.2145
24654W        W41128  16.096   0.382  11.690 -0.0345 -0.1032  0.0471
24655W        W41129   1.992  11.841   2.008 -0.3404 -0.0128  0.0027
24656W        W41130  17.268   7.075   4.651  0.2534  0.1026  0.0783
24657W        W41131   8.991   3.808  12.794 -0.1796  0.0255 -0.2510
24658W        W41132  17.061   7.205   2.618 -0.1182 -0.0804 -0.1323
24659W        W41133   7.517   4.263   3.443 -0.0650  0.1753 -0.0134
24660W        W41134  15.730   4.248   5.807  0.0149 -0.1508  0.1175
24661W        W41135  18.648  18.931  10.434 -0.0062 -0.1206 -0.0527
24662W        W41136   0.615   3.702  11.397 -0.1009  0.1323 -0.0456
24663W        W41137   1.182  11.977   0.707  0.0976 -0.0909  0.2753
24664W        W41138  14.301   6.161  13.260 -0.0515 -0.0200 -0.0719
24665W        W41139  19.067  17.244   9.851  0.0838 -0.0570  0.0088
24666W        W41140  14.510   5.016  13.244 -0.0095 -0.1748  0.0859
24667W        W41141   6.315   0.496   3.327 -0.0055  0.3546 -0.0578
24668W        W41142   8.866   7.816  10.603 -0.2300 -0.0792 -0.0736
24669W        W41143   7.671   7.916  11.795  0.1460 -0.1876  0.0980
24670W        W41144   6.199  10.685  10.840 -0.0370  0.1389  0.5308
24671W        W41145  17.131   0.393  14.491 -0.0251  0.4767  0.2422
24672W        W41146   1.231  12.169   0.190  0.2493 -0.3163 -0.1224
24673W        W41147  19.344  19.006  14.416 -0.2035  0.1807  0.2931
24674W        W41148  12.496   5.076  13.693  0.0321  0.1562  0.1333
24675W        W41149   7.047   6.529  14.512  0.0991 -0.0724 -0.0550
24676W        W41150   8.840   5.269   1.761  0.1750  0.2236 -0.0557
24677W        W41151   9.777   2.257   1.642  0.2487  0.0146 -0.1090
24678W        W41152   6.948  15.580   2.095 -0.3078 -0.1114 -0.1812
24679W        W41153  12.683  17.346  14.126  0.1370 -0.0143  0.2133
24680W        W41154   2.645   3.061   4.115 -0.1562  0.2460  0.1371
24681W        W41155  14.321   7.814  13.307  0.2601  0.0711  0.0379
24682W        W41156  15.935  15.082  11.092 -0.1008  0.2191 -0.0706
24683W        W41157   4.159  10.036  13.129  0.3883 -0.3319 -0.0798
24684W        W41158   4.474   9.471  13.214 -0.1267  0.2068  0.3982
24685W        W41159   4.287  15.817  12.904  0.0697  0.2868  0.2994
24686W        W41160  10.490   1.019  12.324  0.0295  0.2057  0.1725
24687W        W41161  17.120  15.389  13.877  0.0883 -0.0166  0.0215
24688W        W41162   9.893   0.226   1.720 -0.0083 -0.1022 -0.1135
24689W        W41163   6.513   5.261   4.193 -0.2052  0.0396  0.2274
24690W        W41164  15.801   0.606  13.230 -0.1423  0.1090 -0.2071
24691W        W41165   6.849  12.343  10.652  0.3718 -0.0129 -0.0380
24692W        W41166  16.555   1.014   0.073  0.2669  0.1442  0.0135
24693W        W41167   9.778  17.835  11.591  0.2404  0.0378  0.4046
24694W        W41168   5.234  18.292  11.486 -0.3260 -0.3910 -0.0228
24695W        W41169   3.829   5.998  13.189  0.1508 -0.2134 -0.2605
24696W        W41170  13.113  15.496  10.785 -0.0326  0.3077  0.2363
24697W        W41171   1.927   6.544  12.665  0.0623  0.0358  0.1797
24698W        W41172   5.820   2.896  11.847 -0.0342  0.4951 -0.5004
24699W        W41173   4.404  12.674  10.027 -0.1718  0.4090  0.2077
24700W        W41174   9.083  17.836  14.284  0.1827 -0.2981 -0.1013
24701W        W41175   3.436   4.872   3.282  0.1444  0.1098  0.3899
24702W        W41176  13.950   0.364  13.542 -0.1017 -0.2713  0.0213
24703W        W41177   9.013  15.595   1.787 -0.2262  0.0890  0.1103
24704W        W41178  19.433   8.687   0.229 -0.0254  0.1450 -0.2425
24705W        W41179   5.505   5.407   4.086  0.0786  0.0021 -0.0283
24706W        W41180  12.487   0.565  10.091  0.2259 -0.1936 -0.1033
24707W        W41181  14.671   7.686   1.437  0.1480  0.1234  0.0794
24708W        W41182   2.032   8.206   3.801  0.0060  0.0846 -0.1501
24709W        W41183   7.834   7.571   9.623 -0.0525  0.0970  0.1044
24710W        W41184  15.174   7.172  11.582 -0.1761 -0.0602  0.0912
24711W        W41185  10.296  18.074   2.542 -0.2014  0.0325 -0.1718
24712W        W41186   2.538   6.734   0.315 -0.3865 -0.2087 -0.1962
24713W        W41187  16.478   2.341  14.257  0.0625 -0.2762 -0.1587
24714W        W41188   4.116   8.685   1.724  0.0518 -0.2617  0.0172
24715W        W41189   3.288  11.722   2.007  0.0846 -0.2478  0.0485
24716W        W41190   5.266   0.821   4.413  0.0846  0.2110  0.1936
24717W        W41191   4.060  15.848   0.014 -0.0690 -0.3946  0.4368
24718W        W41192   6.681   9.396  14.401  0.2876  0.0129  0.2646
24719W        W41193   6.903   5.315  12.848  0.0163  0.0931  0.1466
24720W        W41194   9.695  10.539  14.517  0.5007  0.2148 -0.0991
24721W        W41195   4.439  17.357  14.085  0.1565  0.4461 -0.2711
24722W        W41196   6.332  16.368   0.885 -0.2354 -0.1645 -0.0372
24723W        W41197  10.873   7.531  12.693 -0.1331  0.1759 -0.0462
24724W        W41198  15.404   3.249   5.187  0.1485  0.2049  0.3317
24725W        W41199   8.659   0.670  12.118 -0.0986  0.1207  0.1235
24726W        W41200  15.141  17.518   3.581 -0.1327 -0.3233  0.0648
24727W        W41201   1.027   4.415   0.061  0.1772 -0.1092 -0.1779
24728W        W41202  17.328   2.790   3.682 -0.1323  0.0240  0.1906
24729W        W41203  14.956  16.685  14.028 -0.5229  0.2024 -0.1902
24730W        W41204  11.670   8.948   3.685  0.1530  0.0028 -0.0463
24731W        W41205  17.396   6.483  11.135 -0.3000  0.1160  0.3117
24732W        W41206  17.769  17.756   1.687  0.0122  0.1081 -0.3305
24733W        W41207  13.548   0.954   5.300 -0.3445  0.2256  0.1981
24734W        W41208   4.236  13.980  10.568 -0.3050  0.2382 -0.1636
24735W        W41209  12.793  15.072   2.839  0.1297  0.0539  0.4866
24736W        W41210  12.160   7.093   4.527  0.2184 -0.0586  0.1546
24737W        W41211  13.762  17.979  12.900  0.1659  0.1746  0.0543
24738W        W41212   4.743  16.559  10.542  0.2208 -0.3152  0.2860
24739W        W41213  15.540  14.047  12.966 -0.1123 -0.2054 -0.0645
24740W        W41214   0.410  10.332   5.374  0.0307  0.1060 -0.0256
24741W        W41215   4.865   0.468  11.288 -0.2373 -0.2513  0.0126
24742W        W41216   7.525  11.033  10.641  0.0317  0.0840 -0.1587
24743W        W41217   3.905  14.322  13.286  0.0463  0.1437 -0.1394
24744W        W41218   9.194   7.586   1.523 -0.3444 -0.0625 -0.0846
24745W        W41219  13.426   5.298  11.809 -0.1526 -0.1850  0.1300
24746W        W41220  16.832   7.482  13.293 -0.0499 -0.1861 -0.3142
24747W        W41221  13.839   7.117  11.460 -0.1184  0.4272 -0.0395
24748W        W41222   2.230   2.742   1.692  0.0139 -0.0986 -0.0494
24749W        W41223   8.313   9.187   1.063 -0.0897 -0.3868 -0.0375
24750W        W41224  16.949  19.471   5.324 -0.0440 -0.3274 -0.0185
24751W        W41225  10.479   8.968   4.122 -0.1691 -0.2715 -0.1081
24752W        W41226  15.351  15.452  13.150 -0.0976 -0.2164  0.1379
24753W        W41227  15.229   3.899  11.343 -0.1404  0.2861 -0.3220
24754W        W41228   2.236   3.996   4.514  0.1170  0.1543 -0.1499
24755W        W41229   8.240  10.213  12.146  0.1281  0.1194  0.0814
24756W        W41230   2.424   4.677  12.166  0.0621  0.3127  0.0958
24757W        W41231   8.357   0.020  10.132 -0.5624 -0.1159  0.1711
24758W        W41232   3.751   6.621  12.036 -0.1337  0.0787 -0.2156
24759W        W41233   4.064  15.920   0.563 -0.2993 -0.0724  0.3406
24760W        W41234   9.548   5.569  12.727 -0.0320 -0.0107  0.1151
24761W        W41235  11.908  12.734  13.623  0.1062 -0.1352  0.1692
24762W        W41236  14.263   0.980   4.611 -0.0895 -0.0998 -0.0157
24763W        W41237   5.168   6.350   5.800 -0.5028  0.2749 -0.0046
24764W        W41238  14.503   7.633   0.145 -0.3319  0.0163 -0.0158
24765W        W41239  18.158   3.418   3.010 -0.2354 -0.1031 -0.1089
24766W        W41240   3.062  17.947   2.984  0.3071  0.2250 -0.3113
24767W        W41241   7.569   8.281  14.714 -0.0292 -0.3843  0.3069
24768W        W41242  19.348   2.146   4.093  0.0301  0.1114  0.2189
24769W        W41243   3.834  14.175   2.416  0.0525  0.1599  0.1625
24770W        W41244  18.773   8.176   0.579  0.1088  0.0971 -0.4326
24771W        W41245   4.219  10.912   3.587 -0.0962 -0.1965 -0.0661
24772W        W41246  19.360  12.220   2.910 -0.2042  0.2259 -0.1392
24773W        W41247   0.051  13.526   0.948 -0.2407 -0.2989 -0.3930
24774W        W41248   2.531   1.229   1.528  0.2007 -0.1821  0.0884
24775W        W41249  15.972   3.874   3.931  0.0921 -0.0438  0.2812
24776W        W41250   4.839  14.030  13.764  0.0199  0.0058 -0.1578
24777W        W41251   3.089   4.554  12.868  0.2993 -0.2947  0.2839
24778W        W41252   6.272  14.646   4.422  0.3986  0.0179 -0.4410
24779W        W41253   9.269  14.766  11.981  0.5034 -0.2762 -0.0235
24780W        W41254  14.651  11.833   1.550  0.2720  0.1457 -0.0986
24781W        W41255   9.946   7.064  10.823 -0.2192 -0.1919  0.1908
24782W        W41256   2.804   3.557  11.627  0.3117 -0.2319  0.0060
24783W        W41257   0.596  16.392  11.960  0.2178  0.0591  0.0086
24784W        W41258  17.733   9.689   1.903 -0.1018 -0.0896 -0.2958
24785W        W41259   2.185   8.871   3.354 -0.1152  0.0359 -0.0693
24786W        W41260  13.313   1.648   4.001  0.0759 -0.0246 -0.0322
24787W        W41261   8.827   9.959   5.084  0.0360 -0.0513 -0.1923
24788W        W41262  11.671  12.928  11.934 -0.0171  0.2631 -0.1059
24789W        W41263   8.942  11.845   1.018 -0.3602 -0.0255 -0.0952
24790W        W41264  11.824  14.959   0.545 -0.0243 -0.0089  0.2736
24791W        W41265  11.278  19.270  12.595  0.0762  0.0160  0.6425
24792W        W41266   9.854   0.317  10.876  0.1120  0.0324  0.1869
24793W        W41267  11.400  13.395   1.634  0.0448 -0.0294  0.1437
24794W        W41268  19.386  18.594   4.249 -0.3976  0.0233  0.1953
24795W        W41269   9.985   1.213  13.150 -0.2653  0.0497  0.0937
24796W        W41270  10.403   6.476  13.370 -0.0792  0.4053  0.0476
24797W        W41271   1.817  14.159  10.130 -0.1615  0.1806 -0.3974
24798W        W41272   1.842  12.303   5.076 -0.3459 -0.0194 -0.0763
24799W        W41273  11.521   7.000   2.247  0.1046  0.1829  0.0448
24800W        W41274   1.976  18.171   1.556 -0.0632 -0.4344  0.0379
24801W        W41275  15.534   1.958  13.226 -0.0689 -0.2078 -0.0551
24802W        W41276   1.594   3.551  12.765 -0.1556 -0.0135 -0.0837
24803W        W41277  15.524  13.077  13.488  0.0454  0.1318 -0.0373
24804W        W41278  12.012  10.942  12.825 -0.0615  0.1199  0.2110
24805W        W41279   2.622   7.432  12.611 -0.1739 -0.4828  0.1172
24806W        W41280   7.610   8.914  12.626 -0.0247 -0.1113 -0.2762
24807W        W41281   6.722  12.389   3.498 -0.0194  0.1618  0.1216
24808W        W41282  17.167  17.104   2.431  0.2548 -0.0441 -0.2046
24809W        W41283   8.065   8.315   0.698  0.1493 -0.1385  0.3531
24810W        W41284   0.559   4.403  14.522 -0.1203  0.4965  0.1098
24811W        W41285   3.031  12.279  11.421  0.2061  0.3771  0.1372
24812W        W41286   6.933   1.415  13.115  0.0768  0.3184 -0.3129
24813W        W41287  15.198   4.305   1.739 -0.3644 -0.0600  0.2987
24814W        W41288  13.292  13.007  10.684 -0.1338  0.0737 -0.0580
24815W        W41289  12.103  13.601   3.176 -0.0339 -0.0624 -0.1401
24816W        W41290   4.165   1.860  14.088  0.4152 -0.3656  0.0515
24817W        W41291   1.552  12.826   0.428 -0.1804  0.1535 -0.2164
24818W        W41292   2.235   5.762   0.944 -0.0478 -0.0004  0.0631
24819W        W41293  10.406   8.252   1.648  0.1109  0.1370  0.1013
24820W        W41294  10.987   0.214   4.597  0.4080 -0.1540 -0.0028
24821W        W41295   8.609   6.303   4.741 -0.0556  0.1320  0.1214
24822W        W41296   4.157  14.837   1.279  0.0070 -0.1079  0.0217
24823W        W41297  14.897  15.125  13.211  0.3764  0.1038  0.2652
24824W        W41298   7.024   4.842   1.847  0.3389 -0.0931  0.0869
24825W        W41299   4.541   8.354   3.029  0.1235  0.2603  0.1407
24826W        W41300  12.990  14.888  12.587  0.3498 -0.1826  0.0174
24827W        W41301  11.105  12.127  11.039  0.1587 -0.3308 -0.0789
24828W        W41302  14.414  11.129   1.391  0.0774 -0.0880  0.3530
24829W        W41303  17.317  18.899  11.041 -0.3337 -0.0231  0.1400
24830W        W41304  17.117   5.961   1.678  0.1410 -0.3314 -0.0742
24831W        W41305  15.642  11.935  10.776  0.0427  0.1197  0.0214
24832W        W41306   8.721   1.123   4.561  0.1188 -0.1018 -0.2233
24833W        W41307  11.473   5.057   9.856 -0.1554  0.1880 -0.1154
24834W        W41308  15.074  16.684   9.617 -0.1929  0.1087  0.2943
24835W        W41309   0.638  14.707   0.629  0.2779  0.4026  0.1349
24836W        W41310  11.460  16.230   3.327 -0.0319 -0.0665 -0.3102
24837W        W41311   7.817  19.401  13.011 -0.5594  0.1253 -0.0262
24838W        W41312  14.466   7.207  12.519  0.1912  0.1512 -0.1186
24839W        W41313   0.908   1.000   4.128 -0.0183 -0.1295  0.1610
24840W        W41314   7.612   8.126  12.218  0.0297  0.3112 -0.1833
24841W        W41315   6.431  12.047   3.793 -0.3275  0.1925 -0.2604
24842W        W41316   1.843   9.574  11.187  0.1561  0.0532 -0.2588
24843W        W41317  18.615   7.294   1.670  0.1474 -0.3250  0.1491
24844W        W41318   1.942   9.343  14.696  0.1707 -0.1707 -0.4417
24845W        W41319  17.801   2.370  14.315  0.0616  0.0367 -0.0234
24846W        W41320  11.223   4.553   4.957 -0.1096 -0.0144  0.2356
24847W        W41321  16.816   9.745   2.469 -0.0941 -0.0783 -0.2363
24848W        W41322   2.902  14.626   9.973  0.0218 -0.0364  0.0486
24849W        W41323  16.543   6.720  12.482  0.1121  0.1083 -0.0874
24850W        W41324   7.147  13.301  14.067  0.2340  0.2363  0.2853
24851W        W41325   1.737   9.031  12.245  0.0141  0.0687 -0.0350
24852W        W41326   4.950   5.600   1.278  0.0381 -0.0680 -0.2182
24853W        W41327   4.450  12.128   4.704  0.0269  0.3256 -0.1398
24854W        W41328   3.499  15.458   2.308  0.2100  0.0675  0.1008
24855W        W41329  16.070  12.211   9.828  0.2501  0.1081 -0.2625
24856W        W41330   7.260   8.980  13.764 -0.0562  0.0080  0.0512
24857W        W41331  15.146   0.081   3.423  0.1030  0.2435 -0.0455
24858W        W41332  14.240  11.518  11.739 -0.2721  0.1676  0.2565
24859W        W41333  18.023   7.207  11.238  0.2415 -0.2402  0.3690
24860W        W41334   6.660   7.313   4.731 -0.1885 -0.0668 -0.2444
24861W        W41335   7.941  19.012   0.669  0.4625  0.3299 -0.1498
24862W        W41336  18.049  13.153   1.923  0.1768 -0.2253 -0.1840
24863W        W41337   4.908  17.121  12.724  0.1026 -0.0730 -0.1904
24864W        W41338  17.599  11.771  12.442 -0.0838  0.0754  0.2659
24865W        W41339  13.936  10.904  10.521  0.2901 -0.1232  0.1168
24866W        W41340   9.664   9.423   1.309 -0.0865  0.0786 -0.4549
24867W        W41341   4.883   1.757   9.943  0.2892 -0.1416  0.4108
24868W        W41342  10.923   3.708  11.396  0.0009 -0.0746  0.1577
24869W        W41343  16.641  10.724  12.918 -0.2444  0.2696  0.0947
24870W        W41344   6.389   7.179  11.973 -0.0419  0.4233  0.0710
24871W        W41345  19.334  11.414   3.898  0.1691  0.2135  0.1744
24872W        W41346  15.085   4.712   4.324 -0.3587 -0.0509  0.0681
24873W        W41347   0.641  14.409   3.382 -0.1422 -0.0018 -0.3605
24874W        W41348   2.153  14.435   9.849  0.0320  0.0956 -0.1585
24875W        W41349   9.790   3.250  12.631 -0.1451 -0.2962  0.2857
24876W        W41350  14.741  18.634   1.076 -0.0277 -0.2623  0.0532
24877W        W41351  12.529   4.067   1.767  0.0573 -0.0133  0.2757
24878W        W41352   3.642   8.740  14.717  0.0518 -0.3370 -0.0048
24879W        W41353  13.219  13.006   1.332  0.3298 -0.1253  0.3474
24880W        W41354  12.984   5.472   5.207 -0.0103  0.2360 -0.0751
24881W        W41355   8.736  17.929   4.490 -0.1273  0.0342  0.0014
24882W        W41356   7.942  12.237  12.172 -0.1550 -0.3405 -0.2383
24883W        W41357   4.381   7.910  10.150  0.1131 -0.0261 -0.2404
24884W        W41358  15.564  10.324   1.779 -0.0370  0.2184 -0.0256
24885W        W41359   1.462   4.467  11.599  0.0450  0.4392 -0.0827
24886W        W41360  16.733  18.309   1.836  0.1726 -0.2036  0.2369
24887W        W41361  17.804   5.457  12.498  0.1444  0.2425 -0.1606
24888W        W41362   0.374   7.567   1.998 -0.4579 -0.0749  0.2383
24889W        W41363   6.764  10.905  11.746 -0.1232 -0.4517 -0.1203
24890W        W41364   6.649   0.222  11.912  0.3585  0.1654  0.4181
24891W        W41365   9.492  17.232  13.823  0.4528  0.0752  0.0681
24892W        W41366  11.881  16.836  14.612  0.1551  0.1807 -0.1703
24893W        W41367   4.070   3.440  12.767 -0.1783  0.1266  0.1690
24894W        W41368  13.321   1.443  12.901  0.0404  0.2721 -0.1158
24895W        W41369  16.170   9.020  11.673  0.0285  0.4835 -0.1459
24896W        W41370  18.721   6.363   4.307  0.3256 -0.1978 -0.0272
24897W        W41371   1.576   3.413   1.185 -0.0911 -0.2621  0.2342
24898W        W41372  18.713   7.508   3.153  0.1739 -0.2272 -0.2256
24899W        W41373  17.173  11.545  14.010  0.1028 -0.1184 -0.0415
24900W        W41374   7.171   0.682  11.421 -0.2333  0.2168  0.0964
24901W        W41375  15.500   6.566  12.523 -0.2460  0.2884  0.0055
24902W        W41376   0.013   7.565   1.481 -0.2008 -0.2379  0.0595
24903W        W41377  19.409   7.022  10.795  0.1039  0.2996  0.1761
24904W        W41378   3.460   1.939   2.362 -0.0134  0.0975  0.2502
24905W        W41379  18.647  17.189  12.253 -0.0584  0.0832 -0.0066
24906W        W41380   0.877  15.520   1.478  0.0340 -0.3106  0.2116
24907W        W41381   8.725  13.369  10.407 -0.0668  0.1095  0.2797
24908W        W41382   3.390  15.485  12.873 -0.2433  0.0627 -0.4243
24909W        W41383   8.340   0.923  10.102 -0.4999 -0.0832  0.2335
24910W        W41384   7.174   1.080   4.222 -0.0112 -0.1730  0.0234
24911W        W41385  11.616  18.914   3.865 -0.0154 -0.1631  0.1398
24912W        W41386   4.008   6.565  14.206 -0.0069  0.2949 -0.4509
24913W        W41387   0.307   1.531   0.015 -0.1626 -0.0529  0.0227
24914W        W41388  16.326  13.540  10.980  0.0675 -0.0628  0.0794
24915W        W41389   5.175  11.693  11.449 -0.1983  0.0510 -0.1671
24916W        W41390  16.007   7.420   1.572  0.4331  0.1045  0.0774
24917W        W41391   9.431   9.594   2.887  0.0088 -0.0088  0.0094
24918W        W41392  16.435   2.097   3.410 -0.2841  0.3360  0.0861
24919W        W41393   2.755   8.483  13.957 -0.0772 -0.1407  0.0199
24920W        W41394   2.695   6.480   4.130  0.0291  0.0879  0.0184
24921W        W41395   2.938   2.997  11.799  0.1363 -0.0086  0.0084
24922W        W41396   9.096  15.103  11.712  0.0413 -0.1358  0.0660
24923W        W41397   3.996   9.843   0.780  0.1820  0.3769 -0.2179
24924W        W41398   7.568  18.927   3.019 -0.0347 -0.1898  0.0782
24925W        W41399  10.785   8.795   2.070 -0.1626  0.0348  0.2398
24926W        W41400   0.104  12.861   4.110 -0.1615 -0.3727  0.1053
24927W        W41401  15.566  16.393   0.366  0.2184  0.2055  0.1007
24928W        W41402  12.255   8.376   4.248  0.2049  0.1279 -0.0957
24929W        W41403  15.621   9.454  12.999 -0.0379  0.1212 -0.0596
24930W        W41404  18.967   1.856   0.522  0.0926  0.1350  0.0814
24931W        W41405  16.903   0.567  13.847 -0.1860  0.1315  0.1149
24932W        W41406  14.070  15.894   0.855  0.1065 -0.0317  0.0535
24933W        W41407   5.040   9.891   5.920 -0.1851 -0.0793  0.4745
24934W        W41408   0.784  18.195  11.027 -0.1364  0.1618  0.1790
24935W        W41409  15.493   8.360  12.597  0.1051 -0.1878  0.1238
24936W        W41410  18.536   0.445   1.597 -0.0108  0.0458 -0.1539
24937W        W41411   6.886   4.358  12.563 -0.1842 -0.0183  0.0605
24938W        W41412  10.499  19.283   1.531  0.1443  0.1733  0.0870
24939W        W41413  14.601  11.743  13.704 -0.3643  0.1195  0.0548
24940W        W41414  16.619  18.993  14.494 -0.0085  0.2734  0.2361
24941W        W41415   4.153  10.180  14.122  0.4918  0.0564  0.0249
24942W        W41416   8.383   6.325  10.762 -0.1576  0.1985 -0.5127
24943W        W41417   9.029   9.108   2.148  0.1372 -0.0897  0.2759
24944W        W41418   9.861  18.511  13.440 -0.2460  0.3498  0.2555
24945W        W41419   3.028   5.924  10.980 -0.2641  0.2989 -0.1145
24946W        W41420  15.377   1.381   2.793  0.1107  0.3916  0.0533
24947W        W41421  11.180  15.504   4.127 -0.1893  0.0267 -0.1908
24948W        W41422  10.611  14.147   1.188  0.0094  0.1147 -0.0347
24949W        W41423  18.072  17.418   1.444  0.0812  0.0883 -0.4124
24950W        W41424   7.433   3.177   5.143  0.1768 -0.1112 -0.1248
24951W        W41425  15.715  12.999   2.103  0.0358  0.1081  0.0934
24952W        W41426  10.325   6.926   0.796  0.0202  0.0435 -0.0889
24953W        W41427   8.250   3.536  10.554 -0.1736 -0.1333 -0.1144
24954W        W41428   6.041  12.140  14.535  0.0091  0.1741 -0.1020
24955W        W41429   6.641   2.204  14.310  0.0208  0.0847 -0.0245
24956W        W41430  11.055   1.864  13.518  0.2086 -0.3550 -0.2912
24957W        W41431   6.429  18.482   1.285  0.1357  0.0207  0.1255
24958W        W41432   4.536   2.580  14.195 -0.1183 -0.1885  0.1379
24959W        W41433  18.079  13.398  11.556 -0.0903  0.0325  0.1105
24960W        W41434  14.470  16.104  11.880 -0.0832  0.0979 -0.0033
24961W        W41435   9.025  14.479   4.525  0.3088 -0.0753 -0.1896
24962W        W41436  16.446   8.839  12.590  0.2195 -0.0930 -0.3895
24963W        W41437   1.929  19.006  13.107  0.3139 -0.0482  0.0597
24964W        W41438  11.669  14.363   3.840  0.2224 -0.0944  0.3013
24965W        W41439   9.440  13.046   2.447  0.0907 -0.0008 -0.4149
24966W        W41440   6.816   5.626  14.636  0.2412  0.0606 -0.0006
24967W        W41441   4.950  15.064  11.668 -0.0385 -0.0434 -0.0448
24968W        W41442   9.759   7.563   0.579 -0.2795 -0.3879  0.1452
24969W        W41443   1.309  19.318  13.646  0.0417 -0.0832 -0.0248
24970W        W41444   7.023  17.712  13.995  0.0608  0.0233 -0.1831
24971W        W41445   7.460   1.538  13.106 -0.2399 -0.2071 -0.1027
24972W        W41446  16.024   5.996  14.439 -0.2257  0.0893  0.2609
24973W        W41447  14.984   2.647   0.687 -0.1356  0.1502 -0.1778
24974W        W41448  12.576  17.086   2.657 -0.3503  0.2113 -0.1260
24975W        W41449   8.993  18.779  13.479  0.2024  0.0616  0.0777
24976W        W41450   8.079  14.941  14.569 -0.2867  0.0035 -0.1495
24977W        W41451  17.137   8.933   2.234  0.1991 -0.0416 -0.1314
24978W        W41452   0.990   4.671  13.772 -0.1331  0.1532  0.0989
24979W        W41453  19.573  15.573  11.630 -0.3099  0.3702 -0.0607
24980W        W41454   5.874   4.076   3.922  0.2564 -0.2659  0.2133
24981W        W41455   6.031   3.397  11.991 -0.2589  0.1158 -0.1706
24982W        W41456   7.018   1.179   0.446 -0.1722  0.4541 -0.2312
24983W        W41457   5.998   1.768  12.826 -0.1054 -0.0182  0.0251
24984W        W41458   2.299  10.019  14.005 -0.4382  0.3865 -0.0336
24985W        W41459  15.479  12.468   5.467  0.3171  0.0436 -0.1011
24986W        W41460   6.965  14.021   4.931  0.1304 -0.0770  0.2752
24987W        W41461  15.610   8.277  13.395 -0.0474 -0.0824  0.1995
24988W        W41462  18.264  10.809  14.220 -0.1075 -0.3390  0.0189
24989W        W41463  19.069   7.792  13.485  0.3420  0.3231 -0.0357
24990W        W41464  12.975   5.523   4.681  0.1064  0.1422 -0.2916
24991W        W41465   2.683   1.287  12.095  0.0356 -0.0915 -0.1044
24992W        W41466   7.374   0.241  12.548  0.2393  0.3280  0.0155
24993W        W41467   4.756   1.269  13.435  0.1198 -0.2857 -0.0512
24994W        W41468  15.934  19.126  14.704  0.1185 -0.0242  0.1577
24995W        W41469   5.285   4.796   3.390 -0.2166 -0.0037  0.4490
24996W        W41470  12.952  16.485   0.065 -0.1986 -0.1231  0.0857
24997W        W41471  11.858   9.982   0.898 -0.0732  0.1164  0.1790
24998W        W41472  11.353  14.622  10.882  0.3841  0.0942  0.2662
24999W        W41473   4.755  10.139  12.516  0.0537  0.2037 -0.0480
25000W        W41474  18.125  13.814  11.208  0.3526 -0.0754 -0.3798
25001W        W41475  14.115   7.287  13.918  0.0917  0.1144  0.0739
25002W        W41476   8.423   7.626  13.791  0.0963  0.0241  0.2185
25003W        W41477   6.761  10.165  11.336 -0.0856 -0.1194  0.1288
25004W        W41478  14.536   8.601  14.252 -0.1672  0.1857 -0.2748
25005W        W41479   0.735  17.065   4.236 -0.1171 -0.0217  0.2822
25006W        W41480  15.021   9.495  10.562 -0.0291 -0.0776 -0.1252
25007W        W41481  12.850   5.617   9.978 -0.1196  0.2861 -0.1681
25008W        W41482  17.962  19.237   5.539  0.2236 -0.1181  0.3383
25009W        W41483  18.321  13.312  14.229  0.1715  0.1610  0.1226
25010W        W41484  12.345  18.198  12.802  0.0425  0.0584  0.2836
25011W        W41485   6.151  13.830  13.879 -0.2396 -0.4052  0.2036
25012W        W41486  10.068  10.401  10.842  0.0967  0.0482  0.3420
25013W        W41487   9.892   3.368  14.009  0.2908  0.2686 -0.2931
25014W        W41488  10.932   9.169   2.411 -0.0584 -0.2036  0.3262
25015W        W41489  13.817  14.946  14.442 -0.0328 -0.0287  0.1162
25016W        W41490   8.552   8.903   3.775  0.2136  0.1036 -0.4157
25017W        W41491   1.677   4.269   0.450  0.0820 -0.1016  0.1249
25018W        W41492  11.325   4.978  10.369 -0.0325 -0.2643  0.1684
25019W        W41493  14.034   7.226  12.171 -0.2512  0.3357 -0.1278
25020W        W41494  15.741   7.080   4.654  0.0619 -0.1439 -0.1488
25021W        W41495  13.320   8.942   4.809  0.0314  0.2479 -0.0301
25022W        W41496   8.250   0.684   3.169  0.0520  0.0683 -0.2702
25023W        W41497  14.589  17.308  11.238  0.0583 -0.3199 -0.0545
25024W        W41498   1.301  10.745  12.743 -0.1500  0.3224  0.0987
25025W        W41499   9.545   5.828   0.600 -0.3334 -0.0266  0.1556
25026W        W41500   8.195  14.382  13.704 -0.0861 -0.0906 -0.1793
25027W        W41501  12.610  14.108   2.333  0.2156  0.1191 -0.1089
25028W        W41502  18.223  17.967   4.834  0.0528  0.2267 -0.1659
25029W        W41503  18.325  11.496   2.724 -0.1787 -0.0280 -0.3316
25030W        W41504   6.401  12.899   1.837  0.0165 -0.0546  0.2949
25031W        W41505   7.299   7.689  10.387 -0.1291 -0.2639 -0.5041
25032W        W41506   6.353   4.724   3.386  0.0256 -0.0325  0.2712
25033W        W41507   1.064   8.261  13.364 -0.2438  0.0212  0.4236
25034W        W41508  18.252   2.187  11.654  0.1383 -0.2099 -0.0735
25035W        W41509  16.928   9.722   0.581  0.2667 -0.0249 -0.0874
25036W        W41510   7.202  18.515   2.995  0.3079  0.1415  0.0451
25037W        W41511  15.407   6.607   0.223 -0.0110 -0.0795  0.0342
25038W        W41512   0.063  12.296   5.150  0.0491  0.1937  0.0864
25039W        W41513   1.425  14.223  12.008 -0.0732 -0.0336  0.1507
25040W        W41514  15.036   4.247   3.012 -0.0437 -0.0227  0.2408
25041W        W41515  12.091   8.746  14.409 -0.0836 -0.3699  0.0218
25042W        W41516  14.274   4.701  14.584 -0.0755 -0.4967 -0.0162
25043W        W41517  17.957   8.826   4.784 -0.0207  0.1221  0.1572
25044W        W41518  15.972  17.392   1.703  0.0969 -0.0278  0.4136
25045W        W41519   4.543   2.479  11.227  0.3238  0.3410 -0.2219
25046W        W41520   1.744  14.116   2.848  0.3342  0.0784  0.1765
25047W        W41521   3.889  15.495  12.749 -0.1754 -0.0835 -0.1555
25048W        W41522   2.213   6.933   0.929  0.3107 -0.0089 -0.3003
25049W        W41523   2.329   4.718   1.531  0.1662 -0.3893 -0.2169
25050W        W41524   0.926  17.613  14.506 -0.2130  0.2319  0.2714
25051W        W41525  17.812   8.661   0.180 -0.1664 -0.0018 -0.2310
25052W        W41526   7.036  11.371   2.456 -0.2027  0.2863  0.2024
25053W        W41527   6.223   8.570  10.743  0.2283  0.0868 -0.0763
25054W        W41528   9.106   2.083  12.286  0.0399  0.0644 -0.0453
25055W        W41529  16.274   9.047   4.343 -0.2002 -0.0445 -0.2489
25056W        W41530   9.874  17.017   2.339 -0.1737 -0.0332 -0.0436
25057W        W41531   1.479   4.473  13.003 -0.4002  0.1004  0.3062
25058W        W41532  16.502   6.267   5.629  0.0866 -0.0450 -0.0731
25059W        W41533  10.153  17.559   1.335  0.0419 -0.1071 -0.0808
25060W        W41534   4.323   9.023  11.062 -0.0390 -0.1974 -0.1287
25061W        W41535   6.888  11.669   0.179  0.0249 -0.1821 -0.1188
25062W        W41536  16.701   5.920   5.367 -0.1373 -0.0429 -0.0770
25063W        W41537   5.111   9.418   4.700 -0.2136  0.1452  0.2000
25064W        W41538   4.671  12.877   2.114 -0.0402 -0.0048  0.2717
25065W        W41539  19.347  10.837   2.767  0.1707 -0.1006 -0.0656
25066W        W41540   3.876   1.849  10.912 -0.0014 -0.0578  0.0822
25067W        W41541   8.399   4.705   2.969  0.0570  0.0600  0.2179
25068W        W41542   4.736  13.683   3.183  0.0698  0.0469 -0.2767
25069W        W41543   4.406  11.002   1.751  0.0350  0.2033  0.0067
25070W        W41544   7.244   1.416  13.628  0.1700 -0.3936  0.1590
25071W        W41545   8.683  16.759   1.594  0.2258  0.2052 -0.2160
25072W        W41546  17.467  10.604   2.296  0.1976  0.1434 -0.2058
25073W        W41547  13.718  12.122   4.052 -0.0336  0.0798  0.1975
25074W        W41548  19.562  12.058  11.848 -0.3271 -0.0218 -0.0670
25075W        W41549  16.375  17.290  12.112 -0.1415  0.0458  0.3112
25076W        W41550   2.919  15.458   9.862 -0.1095  0.4107  0.5116
25077W        W41551  13.116  17.212  12.967  0.0393  0.0783 -0.1892
25078W        W41552  18.986   3.804   1.309 -0.2460  0.1312 -0.0641
25079W        W41553  19.108   1.421   5.346 -0.0358 -0.2134 -0.0586
25080W        W41554   1.832  11.616  10.935 -0.4426  0.2061  0.2112
25081W        W41555   2.919  13.280  11.743  0.0043 -0.0293 -0.2529
25082W        W41556   5.152  15.527   0.877 -0.2702  0.0258  0.3756
25083W        W41557   6.919   4.696  11.298 -0.1890 -0.0253 -0.1406
25084W        W41558  14.455   8.852   3.792  0.1402 -0.1738 -0.0994
25085W        W41559  16.570  13.034  13.051  0.1097  0.3798 -0.0673
25086W        W41560   7.858   5.501  13.049  0.2216  0.1693 -0.1731
25087W        W41561  10.526  10.451   2.349 -0.0081 -0.1247 -0.2468
25088W        W41562   1.572  13.548   2.446  0.0259  0.0234 -0.2115
25089W        W41563   3.219  11.561   0.369 -0.2810  0.2183  0.1262
25090W        W41564   2.548   8.760   4.264 -0.1946 -0.1498  0.0062
25091W        W41565  12.343  10.294   2.815 -0.0978 -0.0744 -0.3470
25092W        W41566  13.169  16.239  13.037  0.2471  0.0761  0.3904
25093W        W41567  18.837  18.773   2.155  0.0037 -0.1969  0.1433
25094W        W41568  19.204   4.287   3.382  0.1081  0.2740 -0.1290
25095W        W41569  18.950   0.767  11.574 -0.0606  0.0605 -0.1547
25096W        W41570   0.652   5.043  11.740 -0.0093  0.0273 -0.0040
25097W        W41571  10.119   8.200   4.630 -0.2794 -0.3116  0.0761
25098W        W41572  15.007   4.864   1.129  0.1556  0.0525  0.0246
25099W        W41573   7.293   4.285   0.831  0.0610 -0.0350  0.1541
25100W        W41574  11.669  16.435  14.082 -0.3425 -0.4419  0.1162
25101W        W41575   6.628  17.796  14.465  0.0060  0.0260 -0.2508
25102W        W41576  13.928   5.694  14.463  0.3574  0.0549 -0.3239
25103W        W41577   4.203  15.698   1.020 -0.2457  0.1082  0.2415
25104W        W41578   2.292   0.736   0.305 -0.0799 -0.2150  0.0840
25105W        W41579   5.731   0.739  10.807  0.0473 -0.2826 -0.1140
25106W        W41580  12.168  17.939  13.764 -0.1818 -0.2538  0.1894
25107W        W41581  13.943   0.859  11.262 -0.1747  0.0720  0.0183
25108W        W41582  17.852   6.265   4.815 -0.1468 -0.0773  0.0979
25109W        W41583   5.741  15.015  10.763  0.1802  0.0094 -0.1462
25110W        W41584   1.076  13.638   0.441 -0.0015  0.3275 -0.3412
25111W        W41585  19.286   5.481   0.157  0.0414 -0.1133  0.4232
25112W        W41586   7.350   0.527  14.093 -0.0727  0.1275 -0.0920
25113W        W41587   0.364   5.129   3.478  0.0026 -0.2512 -0.0433
25114W        W41588  14.956  16.231   1.462  0.3495  0.1416 -0.5283
25115W        W41589  18.153  13.057  11.053  0.0165 -0.1990 -0.0794
25116W        W41590   8.340   1.601  11.487  0.1413  0.1876  0.2604
25117W        W41591  15.317   0.195  12.985  0.1624  0.2839 -0.1985
25118W        W41592   2.460  17.281   2.799  0.1965  0.1535  0.0460
25119W        W41593  17.242  12.176   5.075  0.2552  0.1604 -0.0197
25120W        W41594   0.107  15.957   9.699 -0.0256  0.0197  0.0646
25121W        W41595   9.477   2.154   4.617  0.0994  0.5317  0.3909
25122W        W41596  17.958  14.604  13.241  0.1634  0.1362 -0.0016
25123W        W41597  18.051   2.614  13.930  0.0010  0.4523  0.0297
25124W        W41598  13.082  14.291  12.386  0.2085 -0.3983  0.2142
25125W        W41599   6.254   2.905   2.963  0.0310  0.1876 -0.0961
25126W        W41600  18.182  19.529  12.712  0.0524  0.1368 -0.0650
25127W        W41601   0.971   7.221  13.860  0.1440  0.0073  0.0755
25128W        W41602   6.999  10.677  11.327  0.1896 -0.1093 -0.1365
25129W        W41603  14.508   0.063  12.166 -0.1219 -0.1392 -0.4727
25130W        W41604  17.384  18.356  12.277  0.1326 -0.0627  0.1583
25131W        W41605   2.910   2.218   1.190 -0.3626 -0.3223  0.2626
25132W        W41606   5.199   7.799   3.527 -0.0761  0.1263 -0.0162
25133W        W41607   3.194   8.480   1.722  0.1995 -0.2089  0.0832
25134W        W41608  12.813   3.367  13.693 -0.1605  0.0639 -0.1718
25135W        W41609  11.439  19.290  14.217 -0.4655  0.0239 -0.1229
25136W        W41610  13.646   4.373   1.941  0.3902  0.0507  0.0285
25137W        W41611  14.521   4.490  13.246 -0.0931  0.1079 -0.1880
25138W        W41612   3.608  11.919   0.663  0.0108  0.3436 -0.0541
25139W        W41613   0.870   9.163  13.267  0.0424  0.3637  0.2192
25140W        W41614   7.362  14.422   2.390  0.1791 -0.2544 -0.0087
25141W        W41615   3.013   2.240   0.685  0.1202  0.1590  0.0405
25142W        W41616   5.249  12.697   2.120 -0.3963 -0.1955 -0.0075
25143W        W41617  15.929  10.198  12.425 -0.1455  0.2002 -0.0205
25144W        W41618   8.922   5.592   3.836 -0.0136 -0.0082 -0.0401
25145W        W41619   4.881   9.499  13.434 -0.0326  0.1061 -0.1077
25146W        W41620  19.299   6.011  13.591  0.2871  0.0333  0.2106
25147W        W41621  15.204   0.177  14.511 -0.0779  0.0138 -0.0918
25148W        W41622  12.630   3.797   4.845  0.0216  0.2925 -0.0225
25149W        W41623   1.325   7.829  13.190 -0.2715  0.0180  0.1492
25150W        W41624   8.792   5.502  12.639  0.1651 -0.0357 -0.0639
25151W        W41625  12.162  14.508   3.104 -0.0305 -0.0157 -0.2564
25152W        W41626  14.155  13.728  13.081 -0.2755 -0.0582  0.0518
25153W        W41627  10.367  16.940   0.644  0.2836  0.2316  0.1483
25154W        W41628  18.464  18.660  12.741  0.2051 -0.1483 -0.1275
25155W        W41629   0.911   7.884   2.607 -0.1577  0.1320 -0.0165
25156W        W41630  11.794  12.077  12.559  0.0759  0.0376  0.4102
25157W        W41631  16.572  17.528   4.050  0.2820  0.2313  0.1465
25158W        W41632   3.726  15.648   1.457  0.3939 -0.0315 -0.1617
25159W        W41633  17.501   6.489  11.622 -0.0567 -0.2153  0.1139
25160W        W41634   2.126   6.907  13.701 -0.0292  0.0987 -0.2519
25161W        W41635   8.150   4.309   2.552 -0.0069 -0.2027  0.0469
25162W        W41636  15.187   5.243  13.870 -0.0749 -0.3448  0.2333
25163W        W41637  18.262   4.957  12.151 -0.0922  0.1163 -0.0648
25164W        W41638  14.559  15.594   4.521  0.0554 -0.1930 -0.0147
25165W        W41639   9.848   4.495  12.194  0.1079  0.0961  0.1197
25166W        W41640   9.775  17.640  10.582  0.0680 -0.0060  0.1934
25167W        W41641  16.206   3.039  10.992 -0.1107 -0.1581 -0.2784
25168W        W41642  17.906  18.510   2.000  0.0472  0.1820  0.3321
25169W        W41643   1.652   9.737   1.961 -0.2693  0.1861  0.0467
25170W        W41644   9.591   0.169   0.889  0.0295 -0.2128 -0.1344
25171W        W41645  11.390  18.323   3.009 -0.1674 -0.0226 -0.2872
25172W        W41646  12.001  17.174   4.285  0.0551 -0.1342  0.2228
25173W        W41647   4.040   1.395  10.015  0.0520 -0.2443 -0.3115
25174W        W41648  12.482  13.025  13.325 -0.1771 -0.1692 -0.3119
25175W        W41649   2.008  14.499  10.455  0.2152 -0.1656  0.0199
25176W        W41650  10.095   9.238   3.950 -0.1928 -0.1746  0.2578
25177W        W41651  15.458  16.544  14.613  0.0375  0.1259 -0.0430
25178W        W41652   9.363  18.196  14.086  0.1176  0.0026  0.2475
25179W        W41653   3.043   0.309  11.671  0.0497  0.1903 -0.3757
25180W        W41654  11.778   6.155  13.566 -0.0171 -0.1111  0.0624
25181W        W41655  11.633  15.039  13.782 -0.2626  0.2038  0.0753
25182W        W41656   2.890  12.422   4.116  0.0426 -0.0479  0.3076
25183W        W41657   4.517  16.722  13.264 -0.0640  0.1745  0.1414
25184W        W41658  11.830   4.257  10.819 -0.1222 -0.0604 -0.1865
25185W        W41659   9.049  13.954  12.596  0.1256  0.1255  0.0991
25186W        W41660  10.212  14.034   5.108 -0.1013  0.0418 -0.1274
25187W        W41661   6.568   5.721  14.210  0.1303  0.1834 -0.2887
25188W        W41662  14.866   0.249  12.683 -0.1421 -0.0141  0.0236
25189W        W41663   9.595   2.873   1.412  0.1711 -0.0200  0.1645
25190W        W41664   1.720   0.342   0.669  0.0257 -0.2781 -0.1042
25191W        W41665  12.041   1.559  13.853 -0.0597  0.0408 -0.1048
25192W        W41666   4.666  11.973   2.513 -0.1294  0.1486  0.0543
25193W        W41667  14.098   9.915   1.050  0.1582  0.1027 -0.1958
25194W        W41668   0.688   7.338  11.467  0.1201  0.0976 -0.0897
25195W        W41669   9.602   8.979   4.616 -0.0390  0.0133 -0.1098
25196W        W41670  12.226  13.832   5.026  0.1790 -0.3490 -0.1517
25197W        W41671  11.023   8.227   2.870  0.1433 -0.0165 -0.2716
25198W        W41672   6.941  19.264  11.267  0.0291  0.1131  0.4467
25199W        W41673  11.391   9.742   1.482 -0.1383 -0.4751  0.2690
25200W        W41674   6.260   9.392   3.543 -0.1224 -0.0777  0.3377
25201W        W41675  11.757   2.161   4.695 -0.2738  0.2435 -0.2203
25202W        W41676  12.861   9.706   0.436  0.0697  0.1778  0.1622
25203W        W41677  18.585   5.854  13.387 -0.4159  0.0656 -0.0443
25204W        W41678  19.238   4.753   5.297  0.1431 -0.0012  0.0669
25205W        W41679   8.551  13.761  12.492 -0.0164  0.0246  0.2843
25206W        W41680   0.552  14.519  14.445  0.3200 -0.1827  0.0495
25207W        W41681   9.704  18.835   0.417  0.2311  0.1665 -0.1969
25208W        W41682   8.308   8.762   3.296  0.0548  0.0020  0.1681
25209W        W41683  14.724   7.632  12.373 -0.1233  0.0840 -0.2290
25210W        W41684   4.737  18.523   9.632 -0.0600 -0.4177 -0.1914
25211W        W41685  14.679   0.113  10.239 -0.3892 -0.0982  0.0711
25212W        W41686  13.164  10.510   4.540 -0.0866  0.0808  0.1963
25213W        W41687   9.170   4.319  13.917  0.4562  0.1917 -0.2282
25214W        W41688   0.709  15.635   2.596 -0.1528  0.1922 -0.1556
25215W        W41689   8.308  13.182   9.959  0.1352 -0.2240 -0.1958
25216W        W41690   7.424  19.356  12.699 -0.1852 -0.1157  0.2486
25217W        W41691  16.483  15.041  10.899  0.0902 -0.0640 -0.0435
25218W        W41692   8.318  11.169  11.891  0.2246 -0.1063  0.0718
25219W        W41693   0.420  18.050   2.070 -0.0813  0.4258  0.0882
25220W        W41694   7.966  10.828  11.555 -0.1120 -0.1389  0.0885
25221W        W41695   4.198   5.005  12.007 -0.0236  0.2318  0.0008
25222W        W41696  14.723  14.920   0.846 -0.2107  0.3146  0.1600
25223W        W41697   1.035  13.687  10.029  0.0213 -0.2066 -0.0031
25224W        W41698  14.077   9.073   0.119  0.2680  0.3140  0.2277
25225W        W41699  11.600   3.744   3.892  0.1247  0.0712  0.2995
25226W        W41700  14.885   1.490   2.241  0.3877 -0.1853  0.2153
25227W        W41701  17.938  18.382  13.619 -0.2931 -0.2582  0.1919
25228W        W41702  18.290  16.726   1.912 -0.0510 -0.2039  0.0264
25229W        W41703   0.024  11.782  10.730  0.1512 -0.1264  0.2225
25230W        W41704   5.200   5.282   4.696  0.0435 -0.1061 -0.0404
25231W        W41705   7.467  17.591  11.066  0.1469 -0.3138  0.0360
25232W        W41706   0.894  11.318   4.001  0.1858  0.0022  0.0952
25233W        W41707  17.355   7.235  10.398  0.1013  0.1084  0.1040
25234W        W41708   3.264   2.424   3.959 -0.1161 -0.0909  0.1668
25235W        W41709   2.838   5.478   9.606  0.2636 -0.0399 -0.0541
25236W        W41710   3.043  17.044   2.124  0.1645  0.0768 -0.0755
25237W        W41711  12.003   8.750   4.546  0.5205 -0.0669 -0.1725
25238W        W41712   9.787  12.968   1.389  0.0841 -0.0030 -0.2208
25239W        W41713   2.754  16.082  14.319  0.2029 -0.0986 -0.1367
25240W        W41714  15.572   2.781  11.694 -0.2443  0.0979  0.1654
25241W        W41715   3.500  13.486   2.748  0.1253 -0.2797  0.3997
25242W        W41716   0.825   1.581  13.437 -0.1444 -0.0268 -0.3428
25243W        W41717  14.710  16.288  10.559 -0.0474 -0.0392 -0.0652
25244W        W41718   7.562   6.597  13.437  0.2435  0.0002 -0.1569
25245W        W41719   1.013   9.127  11.658  0.0464  0.0718  0.1731
25246W        W41720  19.390  14.957   4.500  0.5933 -0.1896  0.1826
25247W        W41721  14.275   8.678   2.579  0.0257 -0.0429 -0.1622
25248W        W41722   5.457  14.802  14.479  0.1630 -0.0190  0.0497
25249W        W41723  18.337   3.537  12.054  0.4591 -0.0585  0.0849
25250W        W41724   0.333  18.267   1.553 -0.0729  0.0694 -0.1437
25251W        W41725  15.407   5.864   0.800 -0.2442  0.0792  0.0820
25252W        W41726  14.021   0.781  10.824 -0.1114  0.1336  0.0917
25253W        W41727  13.030   4.476   1.420 -0.1225 -0.1471 -0.0402
25254W        W41728   2.270  12.471   3.508 -0.3800  0.1381 -0.1647
25255W        W41729  18.859   4.802   3.862 -0.1524 -0.0657 -0.0178
25256W        W41730   3.027   1.806   9.902  0.1410 -0.3125 -0.0290
25257W        W41731  15.917   1.639  12.423 -0.2087  0.2271 -0.2228
25258W        W41732  14.366  18.019   4.686 -0.0213 -0.1688 -0.2519
25259W        W41733  10.173   4.839  14.486  0.1013  0.3076  0.1654
25260W        W41734   3.062  13.286   3.038 -0.2786  0.0521  0.1891
25261W        W41735   7.905  10.079  10.965 -0.0180 -0.1185  0.0845
25262W        W41736   7.248  16.833   1.550  0.1510 -0.3050 -0.5319
25263W        W41737   2.673   8.466   4.652 -0.2141  0.3929 -0.4119
25264W        W41738   3.505  11.516   5.016 -0.1354 -0.0413  0.1241
25265W        W41739  11.547   1.276  14.047 -0.0600 -0.0411  0.1237
25266W        W41740  16.203  11.552  13.936  0.2585  0.2528 -0.0939
25267W        W41741  17.470  13.605   2.606  0.0693  0.1337  0.0710
25268W        W41742  19.105   6.095   4.117  0.2829  0.2153  0.4976
25269W        W41743   3.671   2.145  11.718 -0.0884  0.0995  0.0484
25270W        W41744   0.803  16.480   3.715 -0.2951  0.0917 -0.1626
25271W        W41745   3.367  17.554  14.651 -0.3723  0.1750 -0.1344
25272W        W41746   0.178  12.636  14.567 -0.1360  0.0684 -0.1839
25273W        W41747  17.975   2.661   0.949  0.0375 -0.0884  0.1385
25274W        W41748   6.575  14.039  11.128  0.3251 -0.3480  0.0986
25275W        W41749   8.318   5.022   1.043  0.0456  0.0529 -0.2170
25276W        W41750   3.837   1.366  12.263  0.1391 -0.1068  0.3017
25277W        W41751   5.341  13.329   0.020  0.0396  0.0150  0.1796
25278W        W41752  15.435  18.812   2.369 -0.0499 -0.2067  0.2797
25279W        W41753   5.145   4.877   0.752 -0.2003  0.5275 -0.0858
25280W        W41754  12.909  12.325  13.993  0.0881 -0.1968  0.2340
25281W        W41755  11.638  19.004   1.041  0.1844  0.1426 -0.0264
25282W        W41756   4.287   7.602   1.187 -0.1182 -0.1039  0.0322
25283W        W41757   5.130  17.636   3.509  0.2876  0.2350  0.1832
25284W        W41758  15.334   2.785  13.324 -0.3740  0.0184 -0.2199
25285W        W41759  13.516  10.670  14.360  0.0014 -0.0551  0.0925
25286W        W41760  12.194   6.258   1.898  0.1633 -0.1623  0.1741
25287W        W41761   4.320   6.964  13.060 -0.2494  0.3236  0.0054
25288W        W41762   9.051  13.654   4.014  0.0970  0.0144 -0.1040
25289W        W41763   4.125  12.952   1.437 -0.0114  0.1391 -0.1973
25290W        W41764  17.616   5.264  13.746  0.0621  0.3546  0.0332
25291W        W41765   9.558   4.242  12.565  0.0928  0.2310 -0.3611
25292W        W41766  14.692   3.522   5.169 -0.0026 -0.0421  0.1154
25293W        W41767   2.835   3.996  10.354 -0.3934 -0.6287 -0.3394
25294W        W41768   5.732   9.632  13.510 -0.2497  0.0065 -0.1668
25295W        W41769   6.698   6.088  10.923 -0.2984  0.1461  0.1070
25296W        W41770   9.504   6.219   2.287 -0.1090 -0.0248 -0.1561
25297W        W41771  14.508   2.501   0.446  0.1190 -0.0486  0.2203
25298W        W41772  14.028  10.745  11.040  0.1682 -0.1237  0.0972
25299W        W41773  15.042   1.874   1.201  0.2784  0.1169  0.0286
25300W        W41774  18.394  14.375  10.735 -0.0510 -0.0888 -0.0824
25301W        W41775  17.986  12.634  12.545 -0.2237 -0.2070 -0.2095
25302W        W41776   9.509   5.213   4.777 -0.1076  0.0142 -0.0221
25303W        W41777  15.860   1.614  12.888  0.0386 -0.0894 -0.1855
25304W        W41778   8.035   6.230   3.616  0.2428  0.0009  0.0895
25305W        W41779   8.321  18.806   2.480 -0.1606  0.1299  0.1681
25306W        W41780   3.196  12.917  11.762  0.0222 -0.0942  0.2911
25307W        W41781   0.999  17.276   4.657  0.3319 -0.5581 -0.1854
25308W        W41782  18.780  18.110  12.762  0.0526 -0.2575 -0.3050
25309W        W41783   8.939  16.356  11.813  0.0523 -0.1072  0.1194
25310W        W41784   1.975   3.379   1.538  0.0323  0.0633  0.3465
25311W        W41785  18.812   3.007  10.532  0.2636 -0.0431  0.0117
25312W        W41786  17.381  17.644   0.742  0.1502 -0.1048 -0.5101
25313W        W41787   2.337   7.101  13.177 -0.0570  0.1870  0.0837
25314W        W41788  11.026  11.695   3.049 -0.1409  0.0400 -0.0327
25315W        W41789   3.764  15.992  11.483 -0.0498 -0.4873  0.2422
25316W        W41790  18.718  11.365   1.453 -0.4019  0.1550  0.0712
25317W        W41791  16.634  10.603   6.083 -0.2895 -0.2787  0.1807
25318W        W41792  10.394  17.131   2.220 -0.1254 -0.0860  0.2539
25319W        W41793   9.009   7.227   0.123  0.0052  0.0529  0.2613
25320W        W41794   7.885   8.709   4.992  0.0230 -0.0184 -0.2135
25321W        W41795  14.865   0.013   4.223 -0.2693 -0.0172 -0.0988
25322W        W41796  16.996  17.291  13.903  0.0312  0.1664  0.2852
25323W        W41797   2.134   5.993  11.500  0.1072 -0.0225 -0.2618
25324W        W41798  14.546   7.168   3.171 -0.2165 -0.2834  0.2070
25325W        W41799   4.294  18.160  10.837 -0.2197  0.0963 -0.1604
25326W        W41800   2.531   0.131   2.950  0.1549  0.2408 -0.2565
25327W        W41801  11.691   0.743   0.155 -0.4842  0.1063  0.0173
25328W        W41802   9.754  15.681   0.019  0.3225 -0.2638  0.4357
25329W        W41803   5.291   3.489   0.214  0.1723  0.0277  0.0833
25330W        W41804   0.583   2.093   2.193 -0.0313 -0.1028  0.0471
25331W        W41805  17.745   9.611   2.422 -0.1641  0.1679  0.0841
25332W        W41806   1.844   2.520   1.848  0.1166 -0.1014  0.0295
25333W        W41807  16.853  17.480   1.634 -0.0929  0.2135  0.1843
25334W        W41808  18.559   6.786  12.906  0.1522 -0.0712 -0.0289
25335W        W41809  14.367  13.492  14.042  0.1032  0.0995 -0.3962
25336W        W41810  10.004  14.187  12.500 -0.1117 -0.0463  0.2235
25337W        W41811   5.046  16.652   2.262 -0.3504 -0.1390 -0.1803
25338W        W41812   0.402  18.814   0.511  0.2210  0.1451 -0.1820
25339W        W41813  14.838  11.190   3.713 -0.0135 -0.0764  0.3414
25340W        W41814   4.615   5.958   3.168 -0.3803 -0.6168 -0.0465
25341W        W41815   9.140   7.656   0.293  0.0573  0.0087  0.2548
25342W        W41816   7.420  17.425   1.822 -0.0539  0.3135  0.2207
25343W        W41817  19.088   3.710   1.768 -0.1510 -0.1241  0.2144
25344W        W41818  15.610  16.715   3.779  0.0270 -0.0198 -0.4108
25345W        W41819  19.318  11.167   1.228  0.0428  0.1104  0.0109
25346W        W41820  11.555  13.095   4.128  0.1401  0.4051  0.2067
25347W        W41821   4.523  12.181  10.022  0.1316  0.2343 -0.1443
25348W        W41822   3.527  12.704  10.615  0.3310  0.0409 -0.2054
25349W        W41823   5.582  18.439   2.785 -0.2597 -0.0001  0.0128
25350W        W41824   5.978  18.263   3.367  0.3541  0.1598 -0.1327
25351W        W41825  12.776  13.331   2.692  0.0354 -0.0171 -0.2543
25352W        W41826   7.332   8.835  10.988  0.0629 -0.4081  0.1544
25353W        W41827   8.101   0.829   2.722  0.1795 -0.4211  0.0530
25354W        W41828  15.777  14.648   2.418  0.0655 -0.1092  0.4345
25355W        W41829  11.027  16.242  13.093 -0.4412  0.2756  0.0587
25356W        W41830  13.097  19.518  14.327 -0.0997 -0.2631 -0.0354
25357W        W41831   4.005  16.727   3.356  0.1021 -0.2383 -0.2060
25358W        W41832   5.760  11.219  14.677 -0.0935 -0.2247  0.2604
25359W        W41833  12.346  11.689   9.645 -0.1094  0.0625 -0.0117
25360W        W41834   0.621  10.851   2.366 -0.0234  0.0046  0.1855
25361W        W41835  14.994   1.074   2.422  0.0379  0.5557  0.0644
25362W        W41836   9.555   6.812   3.107  0.2105 -0.2333  0.2719
25363W        W41837  14.367   8.131  11.206  0.1870 -0.0101 -0.0781
25364W        W41838   2.375  10.534  13.999 -0.0545 -0.1643  0.0606
25365W        W41839  14.564   7.050   0.221  0.1455  0.2322 -0.0747
25366W        W41840  10.378  17.797  14.299 -0.0701 -0.1039  0.2281
25367W        W41841   7.251  15.234   0.294 -0.3646 -0.0551 -0.1131
25368W        W41842   7.282   2.457   0.337  0.1761  0.3268 -0.1277
25369W        W41843   0.625   1.074  12.689 -0.1863 -0.1619  0.2960
25370W        W41844   6.308   4.239   1.472  0.0728  0.0553 -0.2866
25371W        W41845   1.013   2.127  11.313 -0.1496  0.3729 -0.0457
25372W        W41846   9.089   0.827  12.374  0.3339  0.1391 -0.1394
25373W        W41847  17.825   0.964  11.603  0.1681  0.0669  0.2306
25374W        W41848   9.663  10.887   0.572  0.0093 -0.1019 -0.0826
25375W        W41849   6.610  14.337  11.602  0.0422  0.1110  0.1647
25376W        W41850  14.452  17.188   3.848 -0.2335 -0.2135  0.0014
25377W        W41851  13.212  17.863  13.616  0.0804 -0.0754  0.3420
25378W        W41852   9.979   6.672  11.166  0.1094 -0.0687  0.1197
25379W        W41853  11.059  17.767   0.768 -0.0218 -0.0054  0.1077
25380W        W41854  16.310  18.817   4.563 -0.1420  0.0855  0.0147
25381W        W41855   2.627  17.596  11.368 -0.3116 -0.0041  0.1923
25382W        W41856   8.608  10.913  13.018  0.2548  0.2606  0.0620
25383W        W41857   2.068  12.131  14.415 -0.1911  0.1994  0.2410
25384W        W41858   6.835   2.582   3.199 -0.0104  0.2490 -0.2101
25385W        W41859   3.085   8.415   9.470 -0.2177  0.3556  0.2236
25386W        W41860   0.299   3.216   1.560  0.1022  0.1619  0.0716
25387W        W41861  11.958   7.210  12.879 -0.0453  0.0324 -0.2524
25388W        W41862  13.981  10.395   2.742  0.3814  0.0933  0.1256
25389W        W41863  11.247   8.152   4.807  0.3022  0.3168  0.0437
25390W        W41864   2.864   0.652   8.913  0.2038 -0.1140  0.2843
25391W        W41865   4.958  19.234  11.563 -0.1338 -0.1413  0.0161
25392W        W41866   8.457  11.508   4.504  0.1486 -0.0688 -0.3513
25393W        W41867  16.371   3.153   5.519  0.0455 -0.1290  0.0345
25394W        W41868  14.169   3.828   1.182 -0.0739  0.1550  0.0591
25395W        W41869  18.159  16.834  13.698 -0.1511 -0.0358  0.1038
25396W        W41870   0.730   7.542   0.178  0.2349 -0.1744 -0.0237
25397W        W41871   6.129  11.964  11.543  0.0287 -0.0947  0.1672
25398W        W41872  15.795  13.847   4.370  0.0614 -0.1013  0.0699
25399W        W41873  14.642  15.203   1.294  0.1570  0.0548 -0.4984
25400W        W41874  17.402   6.693  12.190 -0.0553  0.0209  0.1663
25401W        W41875   9.036  13.485  14.070  0.0150  0.5685 -0.0350
25402W        W41876   5.874   0.308   0.721 -0.0477 -0.3385 -0.1362
25403W        W41877   8.752  17.868   0.103  0.2935 -0.2088  0.0741
25404W        W41878  15.642   2.508   4.416 -0.1876 -0.0791 -0.1072
25405W        W41879   8.058   6.934  14.278 -0.0999 -0.0270  0.0078
25406W        W41880   3.187   7.946   4.183  0.3519  0.2302 -0.2317
25407W        W41881  16.704   8.932   4.995 -0.2743  0.2170  0.0127
25408W        W41882  18.222   0.915   4.983  0.0867 -0.0510  0.4858
25409W        W41883   4.862  16.909  11.473 -0.0280 -0.0426  0.0477
25410W        W41884   6.827   8.158   5.123 -0.0931  0.3558 -0.2869
25411W        W41885   1.019  13.733   3.178  0.0007  0.0942  0.0705
25412W        W41886  12.472  14.932  11.193  0.3612 -0.0235 -0.0651
25413W        W41887  18.924  16.129   2.522  0.2618 -0.2911 -0.3218
25414W        W41888  10.663   2.643   4.313 -0.3299  0.0913 -0.0029
25415W        W41889  10.107  13.955   1.935  0.0489  0.1626  0.4498
25416W        W41890   3.830  11.827  12.548  0.0570 -0.1707 -0.0777
25417W        W41891  18.407   1.552  11.652 -0.2835  0.1936  0.1845
25418W        W41892  15.635  17.138  12.572  0.0459 -0.3147 -0.0939
25419W        W41893   6.608  10.647  12.176 -0.0493 -0.3393 -0.0938
25420W        W41894   5.308   9.589  10.168  0.2797 -0.0023  0.0264
25421W        W41895  10.510   6.423   0.467 -0.0925 -0.3522 -0.0104
25422W        W41896   1.634   3.660  12.233  0.0584  0.1212  0.0249
25423W        W41897  16.606   3.322  10.769  0.2246  0.0405 -0.2638
25424W        W41898  15.874   1.407  14.435  0.1489  0.0509 -0.0500
25425W        W41899  17.486  15.894   4.699  0.1912 -0.2481 -0.2127
25426W        W41900  19.556  13.218  10.861  0.3729 -0.3066  0.0780
25427W        W41901   4.503   3.265  12.440 -0.2060  0.0225  0.0575
25428W        W41902  16.901  10.261  13.472 -0.1287 -0.0297 -0.4188
25429W        W41903   8.813  10.552  13.328 -0.1599  0.1403 -0.1089
25430W        W41904   4.248   2.082   2.565 -0.3889  0.1227  0.0923
25431W        W41905   3.339   8.936   3.234 -0.2315 -0.0143 -0.1983
25432W        W41906  16.515   0.439  11.363  0.0160 -0.0600 -0.0229
25433W        W41907   6.197   2.082   1.040 -0.1115 -0.0101 -0.0319
25434W        W41908   4.906  13.078   2.530 -0.2466  0.1518 -0.1245
25435W        W41909   9.657   4.975   2.304 -0.1853  0.0098  0.0778
25436W        W41910  17.495  12.838   1.033 -0.2581 -0.1332  0.0077
25437W        W41911  12.013   4.618   0.042  0.3096 -0.2594 -0.0722
25438W        W41912  19.178  17.743  13.750 -0.2682 -0.1172  0.0603
25439W        W41913  11.874  11.854   9.768 -0.3808  0.0976  0.2381
25440W        W41914   4.868   4.308   0.081  0.0477  0.0397  0.2014
25441W        W41915   9.224  13.961  13.985 -0.0086 -0.1217 -0.1907
25442W        W41916   9.289   3.691  14.649  0.0244  0.2051 -0.0706
25443W        W41917   3.532   5.624  11.658  0.1927  0.0811 -0.0755
25444W        W41918   5.106  17.208   2.203 -0.3602  0.1176 -0.2762
25445W        W41919   2.889   1.504  11.552  0.0512  0.1663  0.2242
25446W        W41920  12.568   9.618   3.606  0.0451 -0.0468  0.0503
25447W        W41921  16.287  10.267   3.681 -0.1425 -0.0167  0.1012
25448W        W41922   8.402   5.419  11.802  0.2136 -0.1309  0.1341
25449W        W41923  10.213   5.981   3.136  0.1060  0.1681 -0.1450
25450W        W41924   4.547   8.201   0.433 -0.0953 -0.2291 -0.2651
25451W        W41925   4.473   2.043   8.944 -0.1727  0.0156 -0.1828
25452W        W41926   5.023   2.627  11.816 -0.2236 -0.2998 -0.2037
25453W        W41927  10.480  10.210  10.323 -0.2201  0.1701 -0.1937
25454W        W41928   0.331  11.884  11.506 -0.5783  0.0729 -0.0139
25455W        W41929  11.989  17.302   0.198  0.1169  0.0955  0.3386
25456W        W41930   2.468   7.964  12.569  0.0224 -0.0880 -0.0657
25457W        W41931   6.121   1.918  12.325 -0.3243  0.0930 -0.0719
25458W        W41932  10.366  12.598  11.255  0.1345 -0.0853  0.2264
25459W        W41933  18.360   4.649   2.124  0.0290  0.0320 -0.0858
25460W        W41934  13.962   2.656   2.608 -0.1397 -0.2065  0.0836
25461W        W41935   3.944   5.554   1.109 -0.0830  0.0170 -0.2385
25462W        W41936   1.152   5.377   0.742  0.0500 -0.2789 -0.2201
25463W        W41937  14.339   4.907  12.288 -0.0887  0.0993  0.1604
25464W        W41938  11.761  14.454   0.374 -0.1852 -0.1994 -0.1777
25465W        W41939   5.296  11.364   0.213  0.0930 -0.2114  0.0288
25466W        W41940  10.422   8.346   0.227  0.2322 -0.1725  0.2433
25467W        W41941   0.289  18.645   4.864  0.1415 -0.0097  0.0130
25468W        W41942  13.382   6.920  13.763 -0.0553 -0.1343  0.0187
25469W        W41943  17.429   0.270  10.359 -0.0946 -0.2565 -0.3693
25470W        W41944  10.832   5.388   0.711  0.2163 -0.0138 -0.0572
25471W        W41945   7.814  17.458  13.274  0.1560 -0.0316  0.0958
25472W        W41946   4.243   8.300  12.730  0.0055  0.0308  0.3049
25473W        W41947  12.618   1.489   0.419  0.2434  0.0157 -0.3066
25474W        W41948  14.751   8.154   0.276 -0.4186  0.1701 -0.1761
25475W        W41949  10.097  17.164   3.708 -0.0210 -0.0839 -0.0068
25476W        W41950   3.288   0.535  12.140 -0.0275  0.2014 -0.3410
25477W        W41951   5.080   8.152   0.657 -0.5072  0.1801  0.2131
25478W        W41952   3.302  19.223   1.982  0.1911  0.0116  0.1401
25479W        W41953  12.436  12.536   0.985 -0.0436  0.3357 -0.0194
25480W        W41954   0.351   0.058  13.597 -0.0398 -0.1474 -0.3210
25481W        W41955  12.247   6.912   2.724  0.5677  0.0007  0.0183
25482W        W41956  15.579  14.602   9.379  0.0539 -0.0227  0.0452
25483W        W41957   2.271  11.386   2.102 -0.1252  0.1843  0.0517
25484W        W41958   5.148   2.684  12.697 -0.0125  0.0442 -0.1406
25485W        W41959  11.078   0.115  10.343  0.1380  0.0956 -0.0820
25486W        W41960   2.010  12.938  10.785 -0.2458 -0.1965 -0.1334
25487W        W41961  19.398   8.511   3.823  0.1460  0.0130 -0.0437
25488W        W41962   4.189  13.092  10.188 -0.0609  0.2843 -0.1278
25489W        W41963   0.535   9.334  10.466 -0.1280 -0.0150 -0.1571
25490W        W41964   0.281   2.952   1.059  0.0435 -0.1022 -0.1702
25491W        W41965  18.776  12.488  14.361  0.0234 -0.0915 -0.0293
25492W        W41966  15.647  18.916   1.575 -0.2709 -0.0414  0.1263
25493W        W41967  10.502  12.930   4.458  0.0416  0.0857 -0.1842
25494W        W41968   8.223   8.090   5.578 -0.1778  0.1371  0.1452
25495W        W41969   1.512   0.551  11.748 -0.3076 -0.2277 -0.1153
25496W        W41970  10.476  10.598  14.138  0.3093 -0.0985  0.1666
25497W        W41971   3.933   7.133  12.028 -0.1622  0.3924  0.1864
25498W        W41972   7.015   9.951  11.733  0.2011 -0.0359 -0.0433
25499W        W41973   4.990   5.429   0.814  0.0644  0.0436  0.0583
25500W        W41974   9.329   9.444  12.028 -0.2308 -0.1751  0.0338
25501W        W41975  14.033   1.983   0.537 -0.1406 -0.2226 -0.1416
25502W        W41976  14.378   3.908   2.875  0.0873  0.1923  0.0684
25503W        W41977  17.140  17.168  12.429 -0.2019 -0.0733  0.0421
25504W        W41978  10.517   8.499   4.438  0.2456  0.1204 -0.2607
25505W        W41979   6.935   7.030  11.833  0.1212  0.1103  0.0681
25506W        W41980   6.353  18.878  10.205 -0.2036 -0.0575 -0.0889
25507W        W41981  13.111  10.115   1.805  0.2895 -0.2468 -0.0351
25508W        W41982  17.513  19.350  10.356 -0.1221 -0.1035  0.1904
25509W        W41983  11.996  16.344   2.528 -0.3224  0.2067 -0.0868
25510W        W41984   6.576  19.519  10.449 -0.0002 -0.1369  0.2456
25511W        W41985  14.184  14.813   9.313  0.4786  0.0906 -0.3503
25512W        W41986  19.442   5.223   3.196  0.0192 -0.0118 -0.1053
25513W        W41987   3.283   4.260  14.635 -0.1636 -0.1673  0.3413
25514W        W41988  12.541  18.959   3.565 -0.1742  0.0054  0.0914
25515W        W41989  14.200  19.234   1.615  0.5921  0.2644  0.0324
25516W        W41990   2.079   1.778   0.638  0.0008  0.1936 -0.0782
25517W        W41991  10.816  17.791   4.448 -0.2606 -0.3792 -0.0345
25518W        W41992  11.890  19.374   2.564 -0.2579 -0.0516  0.0505
25519W        W41993   6.141  10.487   5.324  0.2931  0.1635  0.1839
25520W        W41994   1.379  12.622  11.894  0.0231  0.0861  0.1352
25521W        W41995   5.464   7.477   1.772  0.0501  0.0383  0.3056
25522W        W41996  15.715  17.351  13.251 -0.1473 -0.0958  0.2345
25523W        W41997  17.046  13.965   4.726 -0.0059 -0.0893 -0.0466
25524W        W41998   3.274   5.033  12.235 -0.1373  0.0345  0.0297
25525W        W41999   0.754   4.134  11.119  0.1246 -0.1308 -0.1021
25526W        W42000  11.087   2.885   5.433 -0.0696 -0.2411 -0.0091
25527W        W42001  16.599   8.654   4.540  0.0277 -0.0295  0.0232
25528W        W42002  12.406  12.472   3.111  0.0838  0.0725  0.0588
25529W        W42003   6.927   4.770  14.066 -0.1973 -0.0702  0.2645
25530W        W42004   5.987   9.204  11.773 -0.0079  0.1376  0.0491
25531W        W42005  18.057   3.973   2.216 -0.2604  0.1378 -0.3539
25532W        W42006  19.183   4.764  13.178 -0.0517  0.0177 -0.1579
25533W        W42007   7.626  10.106   3.580 -0.0026  0.2712 -0.0031
25534W        W42008  10.569  16.471   0.591 -0.2255  0.0861 -0.2259
25535W        W42009   2.713   6.022  11.354  0.0659 -0.2488  0.2013
25536W        W42010  14.158   4.694  11.420 -0.3162  0.1775 -0.0508
25537W        W42011   8.546  18.493   5.256  0.0028 -0.0459 -0.0081
25538W        W42012   8.822   1.857   4.744 -0.3060 -0.0345  0.1004
25539W        W42013  19.231  18.509  14.355 -0.0860  0.1136  0.0571
25540W        W42014   0.181   8.630  12.699 -0.2658  0.0531 -0.0834
25541W        W42015   4.614   9.118   1.032  0.0163 -0.0870 -0.0369
25542W        W42016   2.867  13.448  13.040  0.1001 -0.1397 -0.1297
25543W        W42017   0.259  11.595  11.916 -0.2454  0.0992  0.3425
25544W        W42018  12.433   0.371  13.576  0.2696  0.1156 -0.2125
25545W        W42019   3.955   5.158   4.086 -0.0092  0.2437 -0.3473
25546W        W42020   8.058   4.656   1.409  0.1065 -0.0065  0.1046
25547W        W42021   3.252  14.394  13.654  0.1412 -0.0173  0.2660
25548W        W42022  18.545   4.436   3.427  0.3694  0.2683 -0.1643
25549W        W42023   2.882  13.131   3.482 -0.1032  0.0591  0.3572
25550W        W42024   7.287  10.466  14.037 -0.0277  0.1016  0.0845
25551W        W42025  13.316  16.277  11.255 -0.1381  0.1878 -0.1987
25552W        W42026   3.883  11.678   4.691 -0.0959  0.3675  0.0321
25553W        W42027  14.144   3.629  14.082  0.1232 -0.0607 -0.0297
25554W        W42028  14.829   7.238  11.076  0.0085 -0.1158 -0.4830
25555W        W42029  18.688  11.482  14.072 -0.0730 -0.2214 -0.1151
25556W        W42030   5.474  18.162  10.193  0.1281  0.1740 -0.0437
25557W        W42031  10.334  16.655  12.337 -0.1163  0.1163 -0.0273
25558W        W42032   5.705   9.958  11.202 -0.1720 -0.1182  0.1643
25559W        W42033  10.748  12.877   3.602 -0.0852  0.4135 -0.0451
25560W        W42034  18.318   1.263  10.060  0.0274 -0.1286  0.1556
25561W        W42035  10.993  18.668   3.842  0.1394  0.5697 -0.3512
25562W        W42036  18.302  11.052   0.589 -0.2562 -0.3467 -0.1567
25563W        W42037   2.587  17.504   1.135 -0.0598  0.0349 -0.3150
25564W        W42038  15.440   7.754   2.174  0.4234  0.2925  0.1741
25565W        W42039  17.758   6.790   3.309 -0.2858  0.0095 -0.0578
25566W        W42040   0.594  12.271   3.766  0.0109  0.2269 -0.2591
25567W        W42041  14.420  13.081  13.815  0.0069  0.0235  0.1217
25568W        W42042  13.398   6.240   3.145  0.1606  0.0682 -0.0280
25569W        W42043   2.284   0.146  14.061 -0.0899  0.0624  0.0850
25570W        W42044  14.095   5.013  10.999  0.1688 -0.1109 -0.1019
25571W        W42045   2.119   3.933   3.049 -0.1053 -0.0628 -0.0865
25572W        W42046  11.522   5.678   2.631 -0.6092  0.1479  0.0683
25573W        W42047   6.913  14.716  11.947  0.4793 -0.1966 -0.2150
25574W        W42048  15.618   2.921   1.862  0.1744 -0.2157 -0.0122
25575W        W42049   5.464   3.460  10.717  0.1469  0.0744  0.2523
25576W        W42050   1.740   9.166   1.291 -0.2945 -0.1530  0.1735
25577W        W42051  19.078  13.549  12.240 -0.2341  0.0339  0.0226
25578W        W42052   1.495   5.349   4.493  0.0462 -0.2090  0.0100
25579W        W42053  13.890  13.330  13.837  0.4813  0.1347 -0.0642
25580W        W42054   7.536  16.004  11.975 -0.0031  0.1506 -0.1594
25581W        W42055  12.507   1.895   5.069  0.0693  0.1736  0.2051
25582W        W42056   8.616   0.332   3.135  0.0644 -0.2771  0.0592
25583W        W42057   3.652  11.179   2.444 -0.0023 -0.4427  0.1281
25584W        W42058   7.286  15.297  11.355 -0.1424 -0.0085 -0.0762
25585W        W42059  17.073   1.463   3.942  0.4760 -0.1977  0.3060
25586W        W42060   6.684   1.218  11.725  0.2312  0.2706 -0.2201
25587W        W42061   7.348  10.510  10.285  0.0528 -0.2544 -0.1751
25588W        W42062   3.140  18.848  11.155 -0.0976  0.0471 -0.0201
25589W        W42063  12.230  13.526   3.638  0.2158  0.0908  0.4681
25590W        W42064   1.340   4.704   1.329  0.2732 -0.0819 -0.2236
25591W        W42065   9.112  18.458   4.273 -0.0449 -0.0003 -0.2083
25592W        W42066  19.017   4.229  14.084  0.4310 -0.2486 -0.0879
25593W        W42067   8.743   3.773   3.029  0.2405 -0.0086  0.0923
25594W        W42068  10.034   4.638   5.561  0.2945 -0.4035 -0.0508
25595W        W42069  11.224   9.695   2.292 -0.1935 -0.0894  0.0675
25596W        W42070  10.590   6.553   5.530 -0.1138  0.2669  0.0337
25597W        W42071   7.987   0.980   4.866 -0.1831 -0.3812  0.0686
25598W        W42072   9.312   4.205   2.231 -0.0637  0.2554  0.0868
25599W        W42073  15.418   8.722   3.177 -0.1819  0.1658 -0.0722
25600W        W42074  11.001   2.046   0.545 -0.0919  0.1053 -0.1534
25601W        W42075  12.405   8.858   4.810 -0.3211 -0.0188  0.0438
25602W        W42076   9.899  14.522  14.164  0.2400  0.1194 -0.1080
25603W        W42077  15.181   4.077  12.646  0.4651 -0.1250 -0.0251
25604W        W42078  11.359   0.262   0.092  0.1646  0.1801  0.0446
25605W        W42079  15.724  18.088   1.520 -0.1442 -0.2089 -0.4320
25606W        W42080  12.663   5.144  11.233  0.1872  0.2619  0.0175
25607W        W42081   3.463  13.916  14.644  0.1772 -0.0368  0.0299
25608W        W42082  16.009   8.577  11.740 -0.4129  0.1298  0.2180
25609W        W42083   0.165   4.790   3.131 -0.0154  0.2889 -0.0525
25610W        W42084  15.816   4.793   3.725  0.0900 -0.0660 -0.3068
25611W        W42085   8.898  16.329   3.828 -0.1428  0.0863 -0.3419
25612W        W42086   9.191   9.939   4.304 -0.1346 -0.0604  0.0349
25613W        W42087  12.791  13.515   2.187  0.4043 -0.1051  0.1487
25614W        W42088  12.304   5.832   0.467  0.1456  0.1010  0.2859
25615W        W42089   4.137   3.536  10.645 -0.0610  0.1879  0.0316
25616W        W42090   6.078   8.871  14.303  0.0710 -0.2610  0.0722
25617W        W42091   4.961   5.963   0.587 -0.1455  0.0541  0.0623
25618W        W42092   8.618   0.830   9.114 -0.0767 -0.0237 -0.0792
25619W        W42093  12.985   0.152   3.301 -0.0396 -0.2630  0.0439
25620W        W42094  15.614  17.635  13.694 -0.2119  0.4627 -0.0767
25621W        W42095   5.656   8.630   5.344  0.0603 -0.2097  0.2010
25622W        W42096   5.234  15.084   3.915  0.0621 -0.1978  0.1236
25623W        W42097   6.354   1.398  14.715 -0.5993 -0.0654 -0.0412
25624W        W42098   7.103  11.164  10.867 -0.2194 -0.2021  0.2523
25625W        W42099   7.672   5.751   1.771  0.0619 -0.0996  0.0602
25626W        W42100   6.008  17.115  12.221 -0.1056  0.1736  0.1256
25627W        W42101  18.159   1.735   1.107  0.4742 -0.0898 -0.0347
25628W        W42102  13.754  18.843   3.238 -0.1770  0.2061 -0.2256
25629W        W42103   8.254   5.522  11.082 -0.0308 -0.0256  0.0936
25630W        W42104  10.231  17.514   1.944  0.0950  0.2169  0.0321
25631W        W42105   3.051   6.859   2.571  0.2675  0.0012 -0.2044
25632W        W42106   9.138  18.556   2.421 -0.5616 -0.0662 -0.2041
25633W        W42107   8.294   1.846  10.512 -0.2173  0.1342 -0.4340
25634W        W42108  11.066   8.365   5.396  0.1632 -0.1398  0.0593
25635W        W42109   0.983   8.052  12.489  0.0998 -0.1190  0.1432
25636W        W42110   7.280  11.942  13.634 -0.2498  0.0747 -0.5564
25637W        W42111   7.268   4.975  11.502  0.0210 -0.0629  0.0519
25638W        W42112   2.435  18.706   2.944 -0.0879 -0.1659 -0.0978
25639W        W42113   6.829   1.190  13.652 -0.3081 -0.1509  0.0715
25640W        W42114  14.703  14.153   4.097 -0.0173 -0.0563 -0.0624
25641W        W42115   4.840  13.099  14.085  0.1555  0.0456 -0.2397
25642W        W42116   9.143   0.300   0.723 -0.1554 -0.1366 -0.0772
25643W        W42117  17.437   1.881  13.495  0.0659 -0.2123  0.0066
25644W        W42118   9.073  11.563  13.266  0.0007  0.3593 -0.1743
25645W        W42119   4.772   9.855   5.476  0.1527 -0.1110  0.2274
25646W        W42120   6.251   0.641   9.179  0.1615  0.1457 -0.0818
25647W        W42121  12.087  19.097   4.707 -0.2218 -0.1900  0.1770
25648W        W42122   3.255  14.334  14.177 -0.1918 -0.0588  0.0634
25649W        W42123   1.003   3.331   5.440  0.0476 -0.0379 -0.0533
25650W        W42124  13.045  11.584  10.761 -0.3483 -0.1962  0.1752
25651W        W42125   6.948   3.424   1.338 -0.1459  0.0618 -0.1106
25652W        W42126   0.751   5.178  12.995  0.0833  0.0287 -0.0303
25653W        W42127   0.860   6.362  10.694  0.1103  0.2117 -0.0125
25654W        W42128   4.966   2.738   3.584  0.3006  0.1091  0.0127
25655W        W42129  13.203   6.320   4.088  0.1086 -0.0968 -0.0317
25656W        W42130   6.648   6.708   1.960  0.3321 -0.1976  0.1328
25657W        W42131  12.216  19.149  12.902 -0.0290 -0.0740 -0.0153
25658W        W42132  13.546  11.510  11.642  0.2215  0.1535  0.3461
25659W        W42133   3.972   2.929   1.450  0.0276  0.1457  0.0378
25660W        W42134  10.846  12.247   0.052  0.2084 -0.1752  0.1780
25661W        W42135   1.966  13.154  12.442 -0.1055  0.0003  0.2511
25662W        W42136   3.712  13.583   0.201 -0.2162 -0.2390 -0.2893
25663W        W42137  19.497  18.468  12.406  0.1031  0.1935 -0.1469
25664W        W42138  13.554  11.517  10.674  0.1540 -0.2343  0.1113
25665W        W42139   5.240  16.086   1.064  0.0610  0.2111 -0.1129
25666W        W42140   4.087  19.312  10.564 -0.3889  0.2086 -0.0929
25667W        W42141   2.698  19.164  12.684 -0.0135  0.1908  0.2124
25668W        W42142   5.258  15.984  10.364  0.1622  0.0054 -0.1117
25669W        W42143   0.454  15.871   2.986  0.1682 -0.0432  0.1853
25670W        W42144   0.145  19.395   0.453  0.0213 -0.0723 -0.0493
25671W        W42145  10.277   7.748   4.882  0.3231  0.2140  0.1948
25672W        W42146  12.662   4.170   2.694  0.2703  0.0261 -0.1887
25673W        W42147   1.242  11.524   3.043 -0.2184  0.0507 -0.0481
25674W        W42148   4.132  15.366  14.674 -0.0794  0.2403 -0.0555
25675W        W42149   6.478  10.245   4.032 -0.2712  0.2936  0.3083
25676W        W42150  14.038   6.138  11.293  0.2207 -0.4305 -0.1576
25677W        W42151   1.571  11.714   2.252  0.1176  0.1926 -0.0494
25678W        W42152  18.707   7.134   5.280  0.0744  0.4039  0.0187
25679W        W42153  11.549  12.080  11.276 -0.0312  0.3947 -0.0079
25680W        W42154   3.959  14.956  10.597  0.1029  0.1018  0.3425
25681W        W42155   9.238   3.700   9.943 -0.2390 -0.1213  0.0555
25682W        W42156   6.561   0.740   2.449 -0.3189  0.1766  0.1575
25683W        W42157  10.833  17.843  14.094  0.0919  0.0475  0.2355
25684W        W42158  10.194   1.707   3.915  0.0013  0.2445  0.0152
25685W        W42159   2.489   3.059   2.498  0.4646  0.0696 -0.1963
25686W        W42160   2.101   2.363  12.799 -0.1205  0.0408  0.5544
25687W        W42161  13.201   0.390   2.335  0.1512 -0.1625  0.1015
25688W        W42162  18.176  18.042  12.005  0.1660 -0.0401 -0.2302
25689W        W42163   5.698  10.935  12.949  0.3568  0.1041  0.1087
25690W        W42164   0.095   6.977  12.792 -0.2776 -0.3687  0.2065
25691W        W42165  10.426   2.387   0.040 -0.2694  0.0131  0.1543
25692W        W42166   3.152   0.032  13.932  0.0980 -0.0274  0.0562
25693W        W42167  17.635   7.658  12.436 -0.1569  0.1661 -0.1155
25694W        W42168  13.051  16.066   1.013 -0.1583 -0.0150  0.0905
25695W        W42169  17.181  10.129   1.402 -0.0880  0.2359  0.2834
25696W        W42170   5.285   3.823  10.940 -0.1290 -0.1281 -0.1076
25697W        W42171   2.228  11.115  12.614  0.1406  0.0049  0.1696
25698W        W42172  10.563   3.650  14.505  0.0832  0.2226  0.1439
25699W        W42173   7.506  18.979   4.379  0.4408  0.2320 -0.1635
25700W        W42174   2.820  18.085  14.554 -0.3255  0.1148 -0.2938
25701W        W42175   7.002   4.432  12.098 -0.1928 -0.2603  0.0277
25702W        W42176  12.601   8.702   3.262  0.2721  0.2372  0.0880
25703W        W42177   0.435  11.483   1.052  0.0677  0.0664 -0.0244
25704W        W42178  15.610  15.166   4.537 -0.0995  0.1200 -0.0747
25705W        W42179   5.283   6.385   0.286  0.0918  0.0928  0.1534
25706W        W42180  18.082   7.510  12.618  0.0319 -0.2221 -0.0096
25707W        W42181   0.713  11.315   3.152  0.0134 -0.3600 -0.1800
25708W        W42182  10.276   3.242   3.246 -0.0082  0.0507 -0.1330
25709W        W42183  17.634  13.322   0.872 -0.2748  0.1642 -0.2488
25710W        W42184   3.922   6.321  12.490  0.1395  0.1312  0.0407
25711W        W42185   2.805  17.979   0.649  0.3573 -0.0434 -0.4746
25712W        W42186  17.762   5.509  10.141  0.2360  0.1440  0.1773
25713W        W42187   0.399  18.893  14.708 -0.1905 -0.1001  0.0913
25714W        W42188  18.284   2.776   1.262 -0.0180  0.0501 -0.2690
25715W        W42189  11.816   3.869  12.549 -0.2052 -0.0569  0.0762
25716W        W42190  11.534   9.127   4.819  0.0790  0.0097  0.0756
25717W        W42191   7.036  17.971   0.744 -0.1908  0.2833 -0.0079
25718W        W42192   2.805   5.156  10.578 -0.1248 -0.0446 -0.1938
25719W        W42193   8.999   6.203   5.062 -0.0536  0.0870  0.3565
25720W        W42194  14.203  12.924   3.626  0.3965  0.2993 -0.0944
25721W        W42195   0.013   4.376   1.848 -0.0133  0.2219 -0.1022
25722W        W42196   7.277   5.307   2.607 -0.2695  0.0582 -0.4432
25723W        W42197  11.754  17.029  10.125 -0.1220 -0.1809  0.0594
25724W        W42198  12.845   9.103   5.045 -0.1772  0.0614  0.2696
25725W        W42199  18.742  16.782   4.375  0.1755  0.1170 -0.0205
25726W        W42200  19.366  10.355  11.815  0.1994  0.0424 -0.3848
25727W        W42201   2.328  11.462  10.931 -0.2855  0.1846 -0.1476
25728W        W42202   0.877  13.965   3.634 -0.2634 -0.1111 -0.3289
25729W        W42203  11.505   8.146   5.311  0.1381 -0.3508  0.0685
25730W        W42204  12.279   7.384   2.946  0.2442  0.4837 -0.6920
25731W        W42205   7.842   7.019   0.222 -0.1077 -0.0083 -0.2719
25732W        W42206   7.763   0.428   0.196 -0.0692 -0.1551  0.3134
25733W        W42207  14.377   1.648  11.634  0.1078 -0.2835 -0.0964
25734W        W42208  11.848  17.551   3.691  0.0566  0.1637  0.1074
25735W        W42209  18.349   8.533   3.632 -0.1971 -0.2082 -0.0146
25736W        W42210   0.765   8.758   2.112  0.1610 -0.4427  0.2919
25737W        W42211   1.886  13.193  13.353  0.1276  0.1014  0.0297
25738W        W42212   8.326   9.367   3.840  0.1753  0.0291 -0.1817
25739W        W42213  18.168  14.233   2.035  0.3715  0.0553 -0.0988
25740W        W42214  12.686  12.994   2.309  0.0010  0.1497 -0.0998
25741W        W42215  11.574  19.427   5.153  0.2678 -0.0866  0.0400
25742W        W42216   8.193   9.006   1.586  0.1278 -0.1067 -0.0346
25743W        W42217   2.484  10.919   3.736  0.0285 -0.1788  0.0433
25744W        W42218  18.439   8.851  11.048  0.1687 -0.1365 -0.0535
25745W        W42219  16.085  10.115  10.949 -0.0120 -0.1455 -0.3970
25746W        W42220   7.527  18.223  10.446  0.1354  0.0786  0.2109
25747W        W42221   7.678  11.483   4.442  0.2864 -0.0243  0.0870
25748W        W42222   4.794   3.966  13.228  0.0189 -0.4272 -0.0384
25749W        W42223  17.063   5.073  13.121 -0.0027 -0.1073  0.0898
25750W        W42224  11.373  11.953   3.303  0.0376 -0.3722 -0.1124
25751W        W42225  13.150  16.050   2.987 -0.1128  0.0051 -0.0655
25752W        W42226   1.056  16.464  12.620 -0.0174 -0.1803 -0.5427
25753W        W42227   8.754  17.122  11.395  0.1304 -0.1206  0.0668
25754W        W42228   9.729  16.825   2.972 -0.0960 -0.2366 -0.0968
25755W        W42229   3.605  15.024  12.991 -0.1166  0.1919  0.1457
25756W        W42230   5.125   4.237   1.730 -0.1526 -0.2163 -0.1740
25757W        W42231   2.098  12.936  12.973 -0.1097 -0.1465 -0.2031
25758W        W42232  18.827  17.664  11.594  0.2547 -0.0386  0.3489
25759W        W42233  13.469   0.168   2.870  0.0357 -0.2776  0.2543
25760W        W42234   3.617   2.209   9.447 -0.0409  0.2089  0.0666
25761W        W42235   2.871  14.724  12.516 -0.0111  0.3584 -0.0439
25762W        W42236  16.771   4.640   4.908 -0.1897 -0.0794  0.2285
25763W        W42237  13.424   0.962  12.714  0.3616  0.2197 -0.0967
25764W        W42238  16.789  19.034  10.926  0.0732 -0.2026 -0.2287
25765W        W42239   3.695   7.064   0.205  0.1822 -0.3490 -0.0224
25766W        W42240   4.478  19.174   5.264  0.0104  0.0082  0.0927
25767W        W42241   2.110   6.358  13.632  0.1809  0.0389 -0.2283
25768W        W42242  15.134   2.706  12.522 -0.1210 -0.0189 -0.3175
25769W        W42243   9.111  16.863   1.462 -0.3235 -0.3656  0.4098
25770W        W42244   3.112  10.271   0.679 -0.0007  0.2769 -0.3577
25771W        W42245  11.805  10.581   5.168 -0.0306 -0.1905 -0.0681
25772W        W42246   4.592   8.380   1.001  0.1274  0.1961 -0.0599
25773W        W42247   9.728   4.871   3.171 -0.1386 -0.1462  0.0752
25774W        W42248   7.179   7.627   1.677  0.1592  0.1307  0.1858
25775W        W42249  11.114  10.820   2.561  0.0871  0.2893  0.4242
25776W        W42250  13.473   4.660   3.264  0.0160 -0.1678 -0.5570
25777W        W42251   1.254  13.420  10.976  0.0233  0.0543 -0.2990
25778W        W42252   6.968  10.737   4.532 -0.0039 -0.2988 -0.1480
25779W        W42253  15.487  17.938  14.141 -0.0552  0.0519 -0.0021
25780W        W42254   5.507  15.069  11.318  0.3277 -0.1049 -0.0569
25781W        W42255   4.650   9.679   2.434 -0.3148  0.1553 -0.2533
25782W        W42256   9.151  15.368   2.690 -0.0099 -0.0758  0.2587
25783W        W42257   6.349  18.459  12.467 -0.2423 -0.1276 -0.1612
25784W        W42258  15.450   4.460  12.359 -0.0385  0.0137  0.2622
25785W        W42259  11.042  18.246  10.694 -0.0880  0.0581 -0.0753
25786W        W42260  11.060   9.194  14.675  0.0540  0.1524  0.1945
25787W        W42261  14.607  12.475   3.965 -0.1900  0.0940 -0.3248
25788W        W42262   0.708  18.790   2.713 -0.2766  0.2279  0.0466
25789W        W42263  15.846  10.408   1.265  0.1055 -0.2552 -0.1416
25790W        W42264   7.479  11.062   0.884 -0.3258 -0.1323 -0.0173
25791W        W42265   6.766   9.916   1.225  0.1311 -0.2944 -0.1275
25792W        W42266  13.890   5.461  10.705 -0.2222  0.2272  0.3212
25793W        W42267   3.476  15.852  10.467 -0.2595  0.0323  0.2953
25794W        W42268   9.397  18.105   4.464 -0.0129  0.1077 -0.0318
25795W        W42269  15.216  13.392   3.962  0.2758  0.4876  0.1629
25796W        W42270  10.376  13.920   0.760 -0.1094  0.1315 -0.2973
25797W        W42271   6.355  15.856   1.052 -0.1801 -0.1163 -0.0160
25798W        W42272   7.328  13.240   1.407  0.4263  0.2029 -0.1684
25799W        W42273  15.462   3.766   4.728 -0.0916 -0.0771  0.2210
25800W        W42274  17.131  13.802  10.078  0.2469  0.0675 -0.2358
25801W        W42275  15.528  17.635   9.533 -0.0568  0.1338  0.4647
25802W        W42276   4.694   0.351  12.955  0.0294 -0.2207  0.5087
25803W        W42277   4.809  13.421   0.065  0.0311  0.1591 -0.0432
25804W        W42278   0.851   1.970  13.075  0.0818  0.2161  0.1729
25805W        W42279  19.532  12.933   3.031 -0.1000 -0.2822  0.3681
25806W        W42280  13.974  11.470   0.135  0.2055  0.1346 -0.3080
25807W        W42281   8.824   1.443  11.653  0.2418 -0.2026  0.2109
25808W        W42282   6.506   1.454  13.963 -0.0661  0.2341 -0.1205
25809W        W42283   6.522   5.646   5.595  0.1558  0.0470  0.0590
25810W        W42284  15.900  15.384  13.313 -0.0333 -0.0667 -0.2678
25811W        W42285  17.106   8.976   4.739 -0.0856  0.0179  0.2336
25812W        W42286  10.660   1.587  13.719  0.3462 -0.1753  0.0626
25813W        W42287  17.985   7.181   6.021 -0.0582 -0.4159  0.0886
25814W        W42288   6.868   8.679  10.772 -0.0942  0.3398 -0.2127
25815W        W42289   1.076  14.999   0.299 -0.1457 -0.0626 -0.0790
25816W        W42290   9.872   3.549   0.649 -0.3638 -0.1592 -0.0926
25817W        W42291   4.098  10.371   2.684 -0.1308  0.2548  0.2769
25818W        W42292  12.469   2.192   3.513 -0.0065  0.0009 -0.1183
25819W        W42293   8.421   9.902   3.871  0.1919 -0.0192 -0.0504
25820W        W42294  11.198  17.415   3.036  0.0053  0.0511  0.0024
25821W        W42295  16.997  12.898   3.040  0.1066  0.0784 -0.1129
25822W        W42296   1.324   8.066  11.923  0.0466  0.1298  0.2494
25823W        W42297  13.719   8.942  12.924  0.2215 -0.2687  0.1293
25824W        W42298   1.797  17.339  10.699 -0.3286 -0.0609  0.0593
25825W        W42299   8.038   5.621  11.507 -0.0006  0.0043  0.2110
25826W        W42300   3.317   4.126   2.687  0.2115 -0.2665 -0.1911
25827W        W42301  17.681  14.615   2.598  0.2461  0.1325  0.0104
25828W        W42302  11.455  19.074  13.794  0.0470  0.2061  0.0840
25829W        W42303  17.751   9.324   3.965  0.4635  0.0669  0.3774
25830W        W42304  11.680  14.301  12.341 -0.1464 -0.0920 -0.0505
25831W        W42305  11.606   5.894  14.012 -0.1160  0.1499 -0.3160
25832W        W42306  11.217  15.735   5.209 -0.1914 -0.3471  0.2614
25833W        W42307  10.913  10.716   1.011 -0.0551  0.0036 -0.1124
25834W        W42308   5.453   7.587  12.706  0.3142 -0.3337 -0.2936
25835W        W42309   2.753   4.369   2.692 -0.4206  0.1142  0.0396
25836W        W42310   9.044   8.592   0.920  0.2154  0.0016 -0.3896
25837W        W42311  14.470   8.464   5.691 -0.2540 -0.2576  0.3215
25838W        W42312  13.561   7.401   5.466  0.3183  0.3317 -0.0982
25839W        W42313   6.453  14.398   1.565 -0.1487  0.1834  0.1719
25840W        W42314   2.438   8.962   4.791  0.1545 -0.2682  0.1337
25841W        W42315   1.654  15.580  13.613  0.3224 -0.0343 -0.0310
25842W        W42316   1.410  15.370   1.701 -0.0103 -0.3443  0.1063
25843W        W42317  15.569   0.735  12.078  0.3062 -0.1492  0.1694
25844W        W42318  15.572   9.732   3.935 -0.0086  0.4550 -0.0753
25845W        W42319   4.624   4.881  13.894 -0.1005  0.3527  0.3974
25846W        W42320   9.611  12.169   2.612  0.0259  0.2370 -0.1208
25847W        W42321   8.693  18.386  12.501 -0.3692  0.0335  0.0246
25848W        W42322   1.809  19.570   9.403 -0.1237  0.0778 -0.2468
25849W        W42323   8.772  13.963  13.102 -0.2286 -0.1208  0.0002
25850W        W42324   4.455   5.203  13.214 -0.1342  0.1927 -0.1887
25851W        W42325   2.916   2.763  13.129 -0.2464  0.3231  0.2258
25852W        W42326  12.579   4.809  14.125 -0.0440  0.2359  0.0167
25853W        W42327   3.409   9.834  11.672  0.2100 -0.1727 -0.3432
25854W        W42328  13.835   8.711   1.602 -0.2012  0.0130  0.1201
25855W        W42329  15.450  13.826  12.448  0.2832 -0.1188 -0.2452
25856W        W42330   1.167   1.078  11.682  0.1638  0.0395 -0.1550
25857W        W42331   3.064   9.809   2.674 -0.4564  0.1739  0.0129
25858W        W42332   6.839  19.388  14.033 -0.0912  0.0076 -0.0291
25859W        W42333  11.370   8.288  14.531  0.0577 -0.0724  0.1386
25860W        W42334   6.803  14.572  11.186  0.0275 -0.3452 -0.1292
25861W        W42335  16.642   6.807  11.746  0.0787 -0.0037  0.0586
25862W        W42336   0.766  17.354   2.971 -0.0490 -0.2655  0.1314
25863W        W42337   8.345   0.488  13.058 -0.4338 -0.1843  0.0089
25864W        W42338   1.089  13.355   5.002  0.4981  0.1234 -0.1456
25865W        W42339  18.842  16.069  14.546  0.1399  0.1438  0.1737
25866W        W42340   7.838   7.782   0.039 -0.0320 -0.0472 -0.0131
25867W        W42341   4.510   4.300  10.249  0.1896 -0.1629 -0.2075
25868W        W42342   8.896  11.702  11.386  0.0107 -0.1142 -0.0494
25869W        W42343   1.614  14.871   9.323  0.0820 -0.2727 -0.1953
25870W        W42344   9.799  13.067   3.745 -0.1343 -0.1800  0.1935
25871W        W42345  18.896  11.631   3.691  0.0675 -0.1938 -0.1347
25872W        W42346   4.595   3.903   9.362  0.1796  0.2029  0.0953
25873W        W42347   9.663  18.451   2.511 -0.0308  0.4759 -0.1375
25874W        W42348  14.218   0.980  12.079 -0.0157 -0.1001  0.0368
25875W        W42349  17.356   9.421   9.386  0.0283  0.1618 -0.1957
25876W        W42350   1.217  10.721  11.787 -0.1188 -0.2184  0.2133
25877W        W42351   6.201   5.324   3.201  0.2314  0.3749 -0.2578
25878W        W42352   8.996  17.232   2.267  0.1490 -0.0591  0.2920
25879W        W42353  16.901   9.149   3.603  0.1167  0.1749 -0.0065
25880W        W42354  11.846  14.791   4.042 -0.3967 -0.0731 -0.4004
25881W        W42355  12.055  17.894   4.072  0.0070  0.1118  0.4702
25882W        W42356  15.226   3.630   2.161 -0.3620 -0.1018 -0.1688
25883W        W42357   3.503  16.316  11.193  0.0627  0.1353  0.1139
25884W        W42358   1.626   4.888   0.711  0.0090 -0.2281 -0.1694
25885W        W42359   0.194   3.712  13.470 -0.0937 -0.3812  0.0250
25886W        W42360   8.783   8.830  12.370 -0.0671  0.1463 -0.0062
25887W        W42361  10.782   0.910   4.040  0.2814  0.1887 -0.0023
25888W        W42362   2.683   3.494   2.114 -0.4112 -0.1078  0.0668
25889W        W42363  14.568  17.993   1.825 -0.0612  0.4042  0.0451
25890W        W42364  11.800  15.542  13.946  0.2579 -0.1845 -0.2715
25891W        W42365  14.069   4.528  13.267  0.3302 -0.0120  0.1053
25892W        W42366   2.332   0.350   2.027 -0.1536  0.1010 -0.3229
25893W        W42367   0.928   7.749  14.066  0.5588  0.1321 -0.1969
25894W        W42368   6.327  18.105  11.590 -0.0845 -0.2090 -0.1512
25895W        W42369  13.754   1.712  11.617 -0.1411  0.0670  0.2274
25896W        W42370   8.208  10.413   1.889 -0.0848 -0.1337  0.2027
25897W        W42371   1.786   8.437   5.049  0.2036 -0.1812 -0.0840
25898W        W42372  14.109  18.431   0.284  0.0170 -0.0755  0.2813
25899W        W42373  16.004   3.691  13.049  0.0547 -0.1052  0.0445
25900W        W42374  14.596  14.096   3.429 -0.0175  0.1109 -0.0043
25901W        W42375  17.266  18.993   1.226 -0.2968  0.0064 -0.1134
25902W        W42376  18.844   1.219  13.758  0.0460 -0.0787 -0.0970
25903W        W42377   2.458  16.051  13.852 -0.4542  0.0011 -0.1609
25904W        W42378  14.072   9.199  12.701  0.0619 -0.1678  0.0864
25905W        W42379  15.566  16.567   3.313  0.2314  0.1122  0.0938
25906W        W42380   7.323  14.536   1.372 -0.4410 -0.0122  0.2674
25907W        W42381   9.791  16.593  14.614  0.2603  0.0312  0.0137
25908W        W42382  14.374   4.075  14.162 -0.1859 -0.0429  0.1568
25909W        W42383   7.883  19.000  13.381  0.0894  0.1432  0.0148
25910W        W42384   9.234  16.252   4.388 -0.0029 -0.2154  0.2021
25911W        W42385  12.413   0.344  14.544  0.1781  0.0183 -0.2206
25912W        W42386   1.041   7.839  10.096 -0.0375 -0.2343 -0.2699
25913W        W42387   9.945   4.807   1.909  0.1166  0.2341 -0.4614
25914W        W42388  13.791   8.817   5.630 -0.2778  0.0190 -0.0972
25915W        W42389  10.476   9.949   1.046  0.2468  0.0556 -0.1094
25916W        W42390   6.748   8.372  13.443 -0.3285 -0.2763  0.1320
25917W        W42391  17.747   1.144   4.917  0.2880 -0.0094  0.0258
25918W        W42392  16.388   0.535  10.874 -0.0448 -0.0740 -0.3675
25919W        W42393  10.967   1.477  11.464 -0.1167 -0.2278  0.0037
25920W        W42394  15.498  18.543  12.234  0.0679  0.1433  0.3465
25921W        W42395   1.549   1.589   2.385 -0.0873 -0.4175  0.1249
25922W        W42396   9.093  11.419   1.725  0.1906 -0.0406  0.3328
25923W        W42397   9.412   6.605   6.188 -0.0289  0.1883 -0.1073
25924W        W42398   5.321  14.084   0.469  0.0991 -0.1188 -0.1572
25925W        W42399  13.523  13.470  10.737 -0.2700  0.1371 -0.0016
25926W        W42400   8.383   7.132   4.809  0.3411 -0.1144 -0.1458
25927W        W42401  17.194   8.129   4.426  0.2064 -0.0859 -0.2194
25928W        W42402  10.625  18.851   3.353 -0.2312 -0.0281  0.1082
25929W        W42403  18.181  15.608  11.870  0.1474 -0.3050 -0.1968
25930W        W42404  14.071   6.646  13.331  0.4189  0.2254  0.2710
25931W        W42405   1.595  12.380  12.309 -0.0568  0.0213  0.3008
25932W        W42406  14.262  18.587   1.808 -0.0874 -0.1487  0.2134
25933W        W42407   4.339  18.110   0.636  0.0964  0.1256  0.1169
25934W        W42408  15.420   6.500   4.830 -0.2474  0.1393 -0.0235
25935W        W42409  19.092  16.524   4.142 -0.3053  0.1368 -0.0495
25936W        W42410   1.019  18.169   2.163  0.2936  0.1907 -0.0163
25937W        W42411   0.229   5.177   2.313  0.0065 -0.2407  0.3039
25938W        W42412   7.282  10.202  12.690 -0.0035 -0.2094 -0.3536
25939W        W42413   8.577  16.765   1.137 -0.2740 -0.0901  0.0368
25940W        W42414   8.386  14.266  12.055 -0.1405  0.0810  0.2471
25941W        W42415   3.793  13.701  10.302 -0.1942  0.5845  0.3107
25942W        W42416  10.159  16.694   4.970  0.0533  0.0015  0.3389
25943W        W42417   1.356  18.768   1.770  0.0792 -0.6533  0.3276
25944W        W42418  18.317   7.640   1.433 -0.0112  0.2481 -0.0090
25945W        W42419  12.604  11.321   1.663 -0.1389 -0.3091 -0.1682
25946W        W42420   7.075   6.064   4.044 -0.0152 -0.0159  0.3292
25947W        W42421  18.995  16.961   0.748 -0.0354 -0.1404 -0.1828
25948W        W42422  13.792  15.191   3.308  0.3164  0.2956 -0.1048
25949W        W42423   8.030  10.087  10.469  0.0175 -0.4357 -0.0996
25950W        W42424  15.556  10.160   9.190 -0.2757 -0.0091 -0.3641
25951W        W42425   5.303   3.492  14.408  0.3267  0.0898  0.1370
25952W        W42426   9.514  11.854   0.542  0.0905  0.1827 -0.2197
25953W        W42427  14.894  18.026   4.690  0.1214  0.2300  0.2994
25954W        W42428  17.378   9.275   0.152  0.1277  0.0535 -0.0025
25955W        W42429   0.855   1.535  12.632  0.2454  0.0553 -0.3026
25956W        W42430  10.688  12.045   0.475 -0.1367  0.0255  0.0840
25957W        W42431   8.384   6.869   3.963 -0.2912 -0.3229  0.2566
25958W        W42432  13.328  15.544  11.816  0.3974  0.2469 -0.2204
25959W        W42433   2.434  11.111   0.462  0.0299 -0.1244 -0.2629
25960W        W42434   2.371   3.738  10.749 -0.0138  0.0072  0.0909
25961W        W42435   9.286   7.428  12.327  0.0769 -0.1648 -0.0344
25962W        W42436  10.658   7.845   6.174  0.1793 -0.0279 -0.1875
25963W        W42437   5.058  14.438  13.540 -0.0662  0.3117 -0.0581
25964W        W42438   0.260   8.417   1.974 -0.4145  0.1738  0.3723
25965W        W42439   2.575   0.572  11.761 -0.2653  0.2652  0.1574
25966W        W42440  19.452  17.047  13.417  0.1605 -0.3545  0.2226
25967W        W42441   4.150  14.403  14.056 -0.3095  0.2969  0.1486
25968W        W42442  13.799   9.776   2.999 -0.2287 -0.3652  0.0415
25969W        W42443  17.683  12.114   5.400  0.0141  0.1033 -0.2264
25970W        W42444   8.136   8.539  10.565  0.1179 -0.3366 -0.3411
25971W        W42445  10.314   8.827   0.287  0.0325  0.0143  0.0841
25972W        W42446  12.027   9.268   4.820  0.0213 -0.3790  0.0756
25973W        W42447  12.194  16.832   2.873  0.0654  0.3724  0.3028
25974W        W42448   6.557  11.329   1.095  0.1633  0.0017  0.0734
25975W        W42449  10.878   4.913  11.470  0.1242  0.1340  0.0971
25976W        W42450   2.090  17.601   1.126  0.1054  0.4263 -0.1467
25977W        W42451  13.432  18.845   4.371  0.3210 -0.1631 -0.0066
25978W        W42452  15.269   1.561  13.930 -0.1840 -0.3494  0.2697
25979W        W42453   4.434   6.378   0.787 -0.0191 -0.0213 -0.1086
25980W        W42454  18.140  13.291   1.406  0.0465  0.1330  0.2031
25981W        W42455   5.865   4.472  10.691  0.0044  0.2994 -0.1272
25982W        W42456   8.205  12.926  11.608 -0.1478 -0.0134 -0.1510
25983W        W42457  15.713  11.770  11.239 -0.0360  0.2165 -0.0837
25984W        W42458   4.998   8.349  11.163 -0.0844 -0.4139  0.0979
25985W        W42459  12.083  14.619   1.076 -0.4785 -0.1230 -0.0062
25986W        W42460   8.875  16.945   9.295  0.2401 -0.1607  0.1625
25987W        W42461   0.076  12.162   3.341 -0.0299  0.3555 -0.2279
25988W        W42462   5.916  18.533  14.225  0.1486  0.0382  0.2090
25989W        W42463  18.979  14.649   3.180 -0.4624  0.4012 -0.0773
25990W        W42464  11.849   8.835   1.212 -0.0185 -0.0676 -0.0574
25991W        W42465   2.547   8.948  10.639 -0.1906 -0.0519  0.0494
25992W        W42466  18.697  14.787  10.473 -0.1443 -0.0117 -0.2818
25993W        W42467  12.411  16.636  11.957 -0.1263  0.2120  0.4026
25994W        W42468  19.030   0.709   1.618  0.0440  0.2518  0.1109
25995W        W42469   8.393   5.875  12.587  0.1201  0.1671  0.0689
25996W        W42470   5.229   1.502   0.337  0.1965  0.0258  0.0913
25997W        W42471   5.224   2.040  14.361  0.2623 -0.1040  0.1553
25998W        W42472   8.522  14.429  10.490  0.1430  0.0239  0.3422
25999W        W42473  16.591   7.244  12.622  0.1164  0.0523  0.0595
26000W        W42474  14.202  12.171  14.407 -0.0217 -0.0301  0.0489
26001W        W42475  12.225  11.766  12.856  0.2295 -0.1723  0.1890
26002W        W42476   9.068   6.300   4.501  0.0955  0.2536  0.1006
26003W        W42477   9.922  19.389   3.740 -0.0091 -0.1414 -0.0640
26004W        W42478  10.858   7.723  13.481 -0.3532 -0.1979 -0.1224
26005W        W42479  18.632  11.219  11.158 -0.0877 -0.1812  0.2149
26006W        W42480  15.383   3.041   0.804 -0.0690 -0.1850 -0.0318
26007W        W42481   8.683  17.514  14.460 -0.1106  0.1411 -0.0383
26008W        W42482  18.621   4.845   0.903 -0.2953 -0.1510 -0.1608
26009W        W42483   9.254  10.873  13.837 -0.0298  0.0501  0.1824
26010W        W42484   6.775   1.864   1.474  0.3692  0.1341 -0.1938
26011W        W42485   4.706  15.157   2.233 -0.1790  0.0163  0.1498
26012W        W42486   5.480  15.759   3.283  0.1307  0.2979  0.1777
26013W        W42487  15.097   0.379  10.063 -0.0332 -0.3341 -0.0146
26014W        W42488   9.169  12.762  13.783  0.0000  0.0171  0.1403
26015W        W42489   1.782   7.424  10.886  0.1303  0.1074 -0.0652
26016W        W42490  14.190  12.559   0.860  0.1790 -0.3351  0.0826
26017W        W42491   5.617   1.507  12.636  0.0173 -0.0545  0.3320
26018W        W42492  14.501   9.052  10.972  0.2306  0.0549  0.1514
26019W        W42493  18.021   2.895  13.412 -0.0340  0.2318  0.0940
26020W        W42494   6.830   2.309   3.698  0.0132  0.0235  0.2751
26021W        W42495   4.662   5.648   0.089  0.3659 -0.0199 -0.0968
26022W        W42496   9.735  13.592   1.026 -0.1284 -0.2002  0.0944
26023W        W42497   9.801   3.742   3.135  0.2376 -0.2926 -0.4246
26024W        W42498   2.965  11.174   0.508 -0.0737 -0.1861 -0.1008
26025W        W42499  13.137   8.646   4.354  0.0040 -0.1277  0.1862
26026W        W42500   3.220   0.477   4.086 -0.0466  0.0639  0.0350
26027W        W42501  14.466  10.232   4.062  0.2684  0.1550  0.0458
26028W        W42502   0.800   8.953   4.459 -0.3273  0.1785  0.3492
26029W        W42503  12.102  11.549  14.702  0.1032 -0.1335  0.1727
26030W        W42504   7.480  10.363   1.718 -0.1222 -0.2344 -0.1614
26031W        W42505   8.871   4.164  13.546  0.2955 -0.0733  0.0717
26032W        W42506  10.019  14.978  11.525 -0.0464  0.0787  0.2592
26033W        W42507   2.923  11.967   1.088  0.2418  0.3533 -0.1498
26034W        W42508  14.224   7.205  13.374 -0.0206  0.1989 -0.3636
26035W        W42509   1.240  19.538   3.445  0.0278  0.2647 -0.0328
26036W        W42510   4.114   8.813   0.342  0.1225 -0.2005 -0.0642
26037W        W42511   7.828  12.809   2.833 -0.1485  0.3702  0.3434
26038W        W42512   6.111   4.522   5.328  0.3434  0.0547 -0.4114
26039W        W42513  17.375   6.784   4.186  0.1721  0.1729 -0.1120
26040W        W42514   1.513   5.505   3.933  0.1703  0.0141  0.1140
26041W        W42515  13.051   7.459   5.204 -0.0380 -0.2761 -0.0654
26042W        W42516   4.904   1.551  11.499 -0.3785 -0.2926 -0.0021
26043W        W42517  10.708  13.335  13.276  0.1338 -0.1145 -0.0828
26044W        W42518   7.307   7.822   0.035  0.0236 -0.1888  0.4806
26045W        W42519   1.289  10.150  11.559  0.0316  0.1595  0.1570
26046W        W42520   1.573  15.089  13.754 -0.3846 -0.0960  0.3048
26047W        W42521  13.250   0.789  11.990 -0.1050 -0.3099  0.2754
26048W        W42522  10.638   6.828   1.141 -0.0177 -0.2327  0.1126
26049W        W42523  15.334  16.403  12.843  0.2609  0.3690  0.1871
26050W        W42524   0.228  17.843   2.737  0.2067 -0.1544 -0.0610
26051W        W42525  18.147   0.355   9.764  0.0929  0.0260 -0.0731
26052W        W42526  16.419  17.031   4.049  0.1371  0.0621 -0.1934
26053W        W42527  18.401   2.581  12.624  0.0530 -0.0714 -0.1912
26054W        W42528  12.154   3.934  11.701  0.2575 -0.1909 -0.1753
26055W        W42529  13.496  14.826  12.321 -0.3052 -0.1340 -0.0779
26056W        W42530  14.277   8.023   5.981 -0.2299 -0.0863  0.2672
26057W        W42531   5.276   0.692   2.925 -0.2693 -0.1825 -0.2384
26058W        W42532   9.773  15.458   1.216  0.0009 -0.1621  0.1602
26059W        W42533  10.724   1.877   0.010  0.2309 -0.3037  0.0779
26060W        W42534  10.427   6.601  11.894 -0.1051  0.0294 -0.2123
26061W        W42535  19.504   9.886   0.484  0.1244  0.2452 -0.1019
26062W        W42536  16.662   4.758  10.057  0.1258  0.1963  0.1015
26063W        W42537   2.865  17.210  11.219  0.0130 -0.0199 -0.0830
26064W        W42538  12.639   2.635   2.400 -0.0566 -0.1449 -0.2278
26065W        W42539   2.355  16.410   4.714  0.0304 -0.2616 -0.2288
26066W        W42540  12.711   7.138   5.995  0.2786 -0.1356 -0.0063
26067W        W42541   8.076   2.193   5.044 -0.2447 -0.0199  0.1063
26068W        W42542  13.879  18.395  13.786  0.2119  0.3039 -0.3242
26069W        W42543   1.628   0.575  14.682 -0.0378  0.4519 -0.1511
26070W        W42544   0.136   0.524  13.903 -0.0678 -0.0740  0.2294
26071W        W42545   3.088   0.218   9.076 -0.1390  0.2730 -0.1400
26072W        W42546   4.188  13.896   9.981 -0.1269  0.0181 -0.3821
26073W        W42547   1.928   0.901  12.357 -0.2218 -0.1432  0.1660
26074W        W42548  13.764   8.055   4.109 -0.0121 -0.2353 -0.1785
26075W        W42549   7.594   6.368   4.866 -0.1156 -0.1641 -0.4148
26076W        W42550   8.229  14.325   5.136  0.0045 -0.0150 -0.2945
26077W        W42551  16.276   8.672  13.198 -0.1943 -0.0266 -0.0327
26078W        W42552  10.093  15.414   5.059  0.2919  0.1506  0.2426
26079W        W42553  17.226  17.521  10.810 -0.0931 -0.5655 -0.1856
26080W        W42554   2.237   4.513  11.234 -0.1492  0.1211  0.0519
26081W        W42555   0.613  16.627  14.043 -0.3114  0.0585  0.1610
26082W        W42556   1.573   3.925   3.227  0.0127  0.3493  0.1072
26083W        W42557   9.170  13.281  12.996  0.1524  0.0515  0.1932
26084W        W42558   1.646   3.301   0.703  0.1521  0.0975 -0.0288
26085W        W42559  18.732   8.135   4.892 -0.0685  0.1964 -0.2317
26086W        W42560   1.172   7.965   1.680  0.1094 -0.2900  0.3245
26087W        W42561   8.859   7.282   4.681  0.0091 -0.0306 -0.0672
26088W        W42562   9.812  18.234   3.917 -0.1329  0.0499  0.0658
26089W        W42563   8.592  16.111  12.588  0.3884  0.1939 -0.0966
26090W        W42564   1.831  19.479  10.886  0.0646 -0.2396  0.4228
26091W        W42565   6.506   6.734  14.330 -0.0275 -0.0435  0.0478
26092W        W42566   9.948  18.952   2.692  0.3223  0.0399  0.1409
26093W        W42567  16.106   2.529  12.349 -0.1668  0.1216 -0.1538
26094W        W42568   6.311  13.375  14.109 -0.2483 -0.1838  0.1241
26095W        W42569  16.121  16.612   2.331 -0.2852 -0.0765  0.1324
26096W        W42570  12.214   4.853   4.286 -0.0631  0.2164  0.1682
26097W        W42571   1.954   7.064  11.247 -0.1875  0.2025  0.1897
26098W        W42572  18.520   6.771   1.381  0.2234 -0.1454  0.0268
26099W        W42573  11.375   6.171  13.033  0.1611 -0.3595 -0.1272
26100W        W42574  19.338   2.920   0.665 -0.0503 -0.1102  0.0285
26101W        W42575   3.624  16.565   0.270 -0.0602 -0.2585  0.0282
26102W        W42576  10.221   1.227   2.482  0.1285 -0.3232  0.0683
26103W        W42577   0.277  18.796   4.019  0.2051  0.0594  0.2122
26104W        W42578  19.444   6.541   3.306 -0.0036  0.1219  0.0429
26105W        W42579   5.633   3.961  12.736 -0.0430  0.3970  0.1747
26106W        W42580  15.843  14.241  10.114  0.2481 -0.4066 -0.1068
26107W        W42581  12.169   7.465   1.064 -0.1585  0.0924 -0.3709
26108W        W42582  12.579   5.779   5.196  0.0483 -0.3048  0.0640
26109W        W42583   8.180  13.597   9.665 -0.1954  0.0424 -0.0323
26110W        W42584   0.769  19.180  11.174  0.0720 -0.0573 -0.4306
26111W        W42585  12.850  14.513  14.633  0.1454  0.1053  0.2041
26112W        W42586   0.567  17.973  11.640 -0.5106  0.0847  0.1051
26113W        W42587   7.954   3.048   0.564 -0.0622 -0.3942 -0.3464
26114W        W42588  15.359   7.424   3.442  0.4080 -0.0580 -0.1546
26115W        W42589  16.649  15.149   3.307 -0.0271 -0.2869 -0.0070
26116W        W42590   2.378   1.058  13.145  0.1406  0.2491  0.2298
26117W        W42591  14.837  16.912  13.549 -0.0948  0.2640  0.1147
26118W        W42592   0.933   0.390  13.440  0.1276  0.2756 -0.0845
26119W        W42593  12.660   6.848   2.980 -0.0905  0.1042  0.2481
26120W        W42594   9.777   2.338  11.976 -0.0131 -0.0460  0.0001
26121W        W42595   6.322   5.301  10.441 -0.0854 -0.2617 -0.2037
26122W        W42596   6.529   1.103   0.360  0.1397 -0.1933  0.1732
26123W        W42597  19.315   2.368  11.653 -0.1601  0.0633  0.0059
26124W        W42598   9.359  16.604  13.703 -0.1719 -0.0800 -0.2023
26125W        W42599   2.126   4.106   0.398  0.0869  0.0955 -0.2290
26126W        W42600   0.984   8.615   1.361  0.2331  0.0598 -0.3235
26127W        W42601  17.625   7.615  14.688  0.1236 -0.2583  0.3281
26128W        W42602   6.011   5.457  14.152 -0.1147 -0.2548 -0.2452
26129W        W42603   3.940   7.746  11.026  0.1431 -0.0868 -0.1102
26130W        W42604   1.706  14.454  11.210  0.0592  0.0951 -0.1130
26131W        W42605   8.525   8.528   4.256 -0.0048  0.0023 -0.2136
26132W        W42606   5.684  15.781   2.794  0.3117  0.1270  0.1162
26133W        W42607  14.322   8.633  10.681  0.1465 -0.0568  0.0753
26134W        W42608  11.554   5.724  11.369 -0.2542  0.0207 -0.3800
26135W        W42609   8.490  16.669  12.666  0.0194 -0.0889 -0.1297
26136W        W42610  19.371  10.271  12.908 -0.0448 -0.1991  0.2445
26137W        W42611  18.888  10.519  12.994  0.1789  0.0536 -0.3052
26138W        W42612  17.271   8.970  13.371  0.0806  0.3365  0.1170
26139W        W42613   8.466  11.958  11.371  0.0252  0.3566 -0.1544
26140W        W42614  12.384  12.725  13.684  0.0193  0.0966  0.2603
26141W        W42615  16.865  16.570  11.047 -0.0456  0.0356  0.0446
26142W        W42616   6.315  19.448   4.035 -0.0362  0.0357 -0.1820
26143W        W42617   0.300  17.598   1.790  0.1709  0.1248  0.0044
26144W        W42618   6.502   9.423  11.937  0.1776 -0.2327  0.2419
26145W        W42619   8.507   3.054  11.758 -0.0857  0.1816  0.3302
26146W        W42620   7.388  14.190  13.782 -0.0728  0.0444  0.0539
26147W        W42621  12.188   3.560   0.260 -0.0159  0.0323 -0.1366
26148W        W42622  10.754   5.765  10.354 -0.2547 -0.1034  0.0691
26149W        W42623  12.580   5.439  13.332  0.2922  0.2561  0.0176
26150W        W42624  13.120   2.942  14.589 -0.1643  0.2880  0.1695
26151W        W42625   2.628   6.527  14.037 -0.2033  0.1795 -0.0258
26152W        W42626  18.206   2.814   3.252 -0.0069  0.1066  0.3820
26153W        W42627  15.739   6.181   0.500 -0.1000  0.0332 -0.0635
26154W        W42628   2.816  14.196  10.314  0.0879  0.0303  0.1295
26155W        W42629   7.036   0.128   2.958 -0.2863  0.1783  0.0127
26156W        W42630  18.434   1.326  12.252 -0.1544 -0.0930 -0.1907
26157W        W42631   0.654  18.656  12.669 -0.3821  0.1452  0.0492
26158W        W42632  10.413  19.450  12.990 -0.0588 -0.0435  0.2078
26159W        W42633   2.173  11.684  13.513  0.1312 -0.0581 -0.1738
26160W        W42634   3.912  12.581   4.050 -0.1258 -0.0894  0.1410
26161W        W42635  14.830  11.496  10.113  0.1514  0.0902  0.2990
26162W        W42636   6.961  11.016   5.493 -0.0544  0.2837 -0.2362
26163W        W42637  10.016  15.478  11.449 -0.1208 -0.1154  0.1158
26164W        W42638   1.226   7.667   0.173  0.1474  0.1181 -0.0798
26165W        W42639   7.187  14.109   4.478  0.0803  0.2097 -0.2421
26166W        W42640   5.791  15.459   1.554  0.0923 -0.0679  0.0588
26167W        W42641   4.749  18.407   3.835 -0.0249  0.1683 -0.0805
26168W        W42642  10.535   2.457  14.094  0.0127 -0.2278 -0.1131
26169W        W42643   2.665   9.391   2.224  0.2264 -0.0195 -0.3691
26170W        W42644  15.346   4.268  10.976  0.0456 -0.1122 -0.2106
26171W        W42645  10.531   1.363   3.474  0.3378 -0.0573  0.0854
26172W        W42646   2.910   1.482   1.705 -0.1707 -0.0062 -0.1394
26173W        W42647   6.490   4.901   0.472  0.0622 -0.0463 -0.2188
26174W        W42648  14.825  13.343   5.336  0.1358  0.1399  0.2281
26175W        W42649  18.225  11.858   4.916 -0.2043 -0.0184 -0.3888
26176W        W42650   4.064   7.029   3.487 -0.1584  0.2334 -0.1787
26177W        W42651  10.630   8.100  14.139 -0.2078 -0.0713 -0.2268
26178W        W42652  14.123   1.166   0.027  0.1517 -0.1638  0.2905
26179W        W42653   3.176   0.982   4.894 -0.1056  0.0902  0.0889
26180W        W42654   8.659  16.641  10.800  0.3857 -0.1072  0.0835
26181W        W42655  14.286   8.440   3.598 -0.1203  0.0555  0.1258
26182W        W42656  12.955  18.543   4.789  0.0468 -0.1796 -0.6081
26183W        W42657   1.386   2.319   0.564  0.0301 -0.0288  0.2616
26184W        W42658  14.562   1.490   3.179  0.2688  0.2639  0.0522
26185W        W42659  17.044  13.883   2.581 -0.0901  0.0616  0.2276
26186W        W42660  19.310  11.622  12.662 -0.0934  0.0057  0.1302
26187W        W42661   5.239  14.795   1.138  0.0007 -0.0477 -0.1719
26188W        W42662   2.416  17.579  14.433 -0.1943  0.0246 -0.1595
26189W        W42663  18.486   8.523  14.053  0.3605  0.1535 -0.1796
26190W        W42664  18.575   5.175   2.193  0.1864 -0.0600 -0.0789
26191W        W42665  11.281   3.354   3.977  0.0244  0.0991 -0.2173
26192W        W42666  17.114  11.464  12.852  0.3524  0.0982  0.0972
26193W        W42667  16.524  14.990  13.167  0.2917  0.2678  0.2429
26194W        W42668   9.979   8.014  12.087 -0.0523 -0.0953 -0.1127
26195W        W42669  10.047   7.337   1.607  0.0947 -0.1733  0.1498
26196W        W42670   5.477  12.751   1.365  0.3405 -0.0226  0.0972
26197W        W42671  11.358   2.796   0.906 -0.3701 -0.1450 -0.1270
26198W        W42672   8.102   2.590   3.943  0.0234  0.1173  0.2322
26199W        W42673   1.951  14.753  13.457  0.0297  0.1574  0.2393
26200W        W42674   1.991  18.144  10.188  0.0687 -0.3076 -0.1362
26201W        W42675   1.231  10.628   2.315 -0.0417 -0.0357  0.1373
26202W        W42676   8.990   8.448   0.143  0.2949  0.1399 -0.2108
26203W        W42677   4.376  11.594  14.607  0.2820  0.3693  0.3611
26204W        W42678  14.962  13.912  12.365 -0.1909  0.1871  0.1144
26205W        W42679   7.534  17.259  14.645 -0.1530 -0.2272  0.0415
26206W        W42680   7.155   7.646   0.515  0.0798  0.0180  0.2768
26207W        W42681   2.147  11.250   3.861 -0.1884  0.2420  0.2127
26208W        W42682   8.822  15.265  10.669 -0.0816  0.1163 -0.2493
26209W        W42683  12.240  11.239  10.904 -0.2079  0.3734  0.1541
26210W        W42684   7.872   7.346  12.788  0.3980  0.1423  0.0070
26211W        W42685   6.077  13.322   2.105 -0.4236  0.1055  0.1492
26212W        W42686   4.085   0.660   3.618  0.2172 -0.0418  0.3606
26213W        W42687   1.264  15.477   0.653 -0.1084 -0.2058 -0.2305
26214W        W42688  16.364  12.787  10.540  0.0285  0.3449  0.0747
26215W        W42689   9.713   0.182  12.306 -0.0627  0.1230 -0.2202
26216W        W42690   7.083   2.195  12.476 -0.0876  0.0579 -0.2627
26217W        W42691  10.858   7.131   2.181 -0.1706 -0.0445  0.1177
26218W        W42692   4.568   7.212   5.010  0.1072  0.1183  0.1606
26219W        W42693   9.246   6.696  14.719 -0.1647 -0.5037  0.3452
26220W        W42694  13.973   8.022   3.657  0.0235 -0.3773 -0.0355
26221W        W42695   7.706   3.798   9.754  0.0096  0.2128 -0.0336
26222W        W42696   2.588   5.687  10.840 -0.2549  0.2130  0.2112
26223W        W42697   0.860   1.391   4.600  0.3256  0.2313  0.0740
26224W        W42698   8.476  16.416  13.077  0.1404  0.0821  0.1834
26225W        W42699  12.662   1.942  13.089  0.0272  0.1084 -0.1835
26226W        W42700   8.208  13.504   1.003  0.0432 -0.0733 -0.1911
26227W        W42701  17.860  12.265   3.567  0.0748  0.2558  0.1116
26228W        W42702  10.936   8.728   1.581  0.2796  0.3083 -0.0444
26229W        W42703   1.739   0.962   3.908  0.0490  0.1841 -0.0146
26230W        W42704  19.116  13.633   1.124  0.3228  0.0969  0.2810
26231W        W42705  12.098  18.294   0.541 -0.2276 -0.2145  0.2277
26232W        W42706  11.652  13.756  13.097  0.0095 -0.1217  0.0389
26233W        W42707  10.942   4.405  14.011  0.2128 -0.0480 -0.0391
26234W        W42708  13.537  14.036  14.226  0.0955 -0.3458  0.1366
26235W        W42709   8.589  16.632   5.220 -0.1327 -0.2225 -0.1060
26236W        W42710   5.554  13.032  11.801 -0.0999 -0.3015 -0.0847
26237W        W42711   1.367   1.562  10.135  0.1355  0.2854  0.0391
26238W        W42712  10.800   8.416  11.039  0.0303  0.0739 -0.1196
26239W        W42713   2.669  11.947   0.221 -0.0820  0.2658 -0.3216
26240W        W42714  12.016  12.429   3.472  0.0340  0.2708  0.3703
26241W        W42715   7.882   6.119   0.174 -0.0611  0.3452  0.2356
26242W        W42716  16.284  15.107   1.324 -0.0955 -0.0961  0.0972
26243W        W42717   9.897   3.458  11.251 -0.0286  0.0804  0.1154
26244W        W42718   1.536   4.977   4.802  0.2846  0.0838 -0.1544
26245W        W42719  10.169  14.055  13.704 -0.0834  0.2155  0.1880
26246W        W42720  14.250   3.043   2.469  0.2452 -0.2729  0.2771
26247W        W42721  11.350   7.216  11.021  0.1635 -0.2264 -0.3071
26248W        W42722   9.134   2.010   3.507 -0.0208 -0.2261 -0.1024
26249W        W42723   3.480   8.607   3.583  0.2086  0.3413 -0.1465
26250W        W42724  12.381  13.204   3.228 -0.1912  0.2333  0.3153
26251W        W42725   0.850  14.145  13.377  0.0315  0.3863 -0.2350
26252W        W42726   8.747  15.666   0.807  0.2319  0.1212 -0.1980
26253W        W42727  13.512   7.364   1.813  0.0483 -0.0995 -0.1077
26254W        W42728   4.610   9.939   4.999  0.2979  0.2947 -0.0277
26255W        W42729  14.933   9.002  11.947  0.4413 -0.1676 -0.1559
26256W        W42730  11.855  15.514   0.488  0.0223  0.1207 -0.0348
26257W        W42731  17.554   3.149   2.789 -0.0065  0.3115 -0.1924
26258W        W42732   0.667   8.111   3.675 -0.1795 -0.0219 -0.1605
26259W        W42733   1.774  16.299   0.738 -0.1793  0.1755 -0.0651
26260W        W42734   5.218  18.904   2.652  0.2417  0.2508  0.0948
26261W        W42735  16.013  19.328   3.890 -0.2806 -0.4925 -0.0096
26262W        W42736   4.096  14.883  12.008 -0.0538 -0.1814  0.2028
26263W        W42737  15.368  11.521   4.800 -0.1578  0.2527 -0.0603
26264W        W42738   8.467   3.184   0.779  0.0936  0.0461  0.0676
26265W        W42739  13.517   6.198   5.124 -0.1497 -0.0325  0.0738
26266W        W42740   8.349  16.979  10.555 -0.0892 -0.1530  0.0327
26267W        W42741  13.643  16.117   3.783  0.0314 -0.1122 -0.1755
26268W        W42742   6.262  15.937  12.513 -0.0413  0.1297  0.0758
26269W        W42743  10.241   8.375   3.551  0.1434  0.0105 -0.3621
26270W        W42744   5.338  10.941   3.597 -0.2932 -0.2396 -0.1073
26271W        W42745  17.171   6.103   0.801  0.0422  0.1896 -0.1780
26272W        W42746  13.077   8.274   2.698 -0.4446  0.1489 -0.1969
26273W        W42747   5.057  10.570  10.162 -0.3057 -0.2694 -0.1245
26274W        W42748   5.476  17.786   3.859  0.1980 -0.4454 -0.0149
26275W        W42749   1.930  16.355  11.719  0.0405  0.2397 -0.1702
26276W        W42750  12.850   6.047   3.223 -0.0189  0.2022  0.1350
26277W        W42751   6.993   2.648  14.174  0.0665 -0.2934 -0.2618
26278W        W42752  14.574  17.564  11.678 -0.1762  0.0036 -0.1694
26279W        W42753   2.396   1.622  12.728 -0.1310 -0.4443 -0.0030
26280W        W42754  10.544   7.477   0.372 -0.3832  0.1498 -0.1291
26281W        W42755   5.833  17.004  14.521  0.1062 -0.4080 -0.2460
26282W        W42756   9.398  19.410   3.397 -0.2301  0.2739  0.1783
26283W        W42757   0.463  11.078  13.721 -0.1852  0.2784 -0.0855
26284W        W42758   7.613  17.108   3.210  0.3035  0.1682  0.2741
26285W        W42759  10.703  17.909  10.869 -0.3737  0.3127  0.0364
26286W        W42760   4.312   9.207  14.134  0.0608  0.0207 -0.3441
26287W        W42761   1.111   7.177   3.998 -0.0830  0.2331 -0.0435
26288W        W42762   7.758   7.535  10.428  0.2767 -0.0129  0.1109
26289W        W42763   4.969  12.795   1.693 -0.0163  0.3196  0.1263
26290W        W42764   5.248   5.887  14.244 -0.0710 -0.1055 -0.1678
26291W        W42765   8.917   0.725   3.627  0.0734  0.0626  0.0572
26292W        W42766  12.814  14.622  11.087 -0.0624  0.4141 -0.0082
26293W        W42767   2.984  18.722   2.884 -0.2228  0.0498  0.4748
26294W        W42768   2.902   2.092   1.872 -0.3795 -0.1155  0.2569
26295W        W42769   0.562  15.655  11.087 -0.2155 -0.0976 -0.1308
26296W        W42770   7.471   6.635  12.231 -0.1048 -0.1382 -0.0230
26297W        W42771  18.616  19.365  13.413  0.2918  0.0733  0.1751
26298W        W42772  10.851   1.524  10.741  0.0536  0.1785  0.1859
26299W        W42773  15.916  13.898  12.742 -0.0217  0.0443 -0.1080
26300W        W42774   5.549   5.152   0.585  0.1921 -0.0051  0.1590
26301W        W42775  16.964   0.316  13.131  0.0939 -0.0977  0.2469
26302W        W42776   3.852   8.943   5.795  0.0084  0.0384 -0.2175
26303W        W42777   8.810   7.442  13.040  0.0155  0.0173 -0.2966
26304W        W42778   6.493   4.198   2.727 -0.1153  0.0809  0.0398
26305W        W42779  17.343  16.668   5.608  0.0266 -0.2220  0.1452
26306W        W42780   2.106   4.134   4.029 -0.2017 -0.0889 -0.2566
26307W        W42781   3.221   7.517   4.460  0.1264  0.0625 -0.0197
26308W        W42782   6.158   5.652   4.098 -0.2768 -0.2201 -0.0893
26309W        W42783  18.608   0.318   2.505 -0.2461 -0.0868 -0.2355
26310W        W42784   7.743  17.996  10.812  0.3551  0.1392  0.0829
26311W        W42785   1.068  18.363   3.219  0.2194 -0.0123  0.3395
26312W        W42786   9.010  18.288   5.335 -0.0124  0.1870  0.0328
26313W        W42787   5.090   1.121   2.103 -0.0376  0.0596 -0.0290
26314W        W42788   2.369   3.517  14.391  0.1035  0.3518  0.0100
26315W        W42789   1.512   6.350   2.719 -0.4436 -0.2591  0.0419
26316W        W42790  11.188  10.927  12.632  0.2462  0.0231 -0.1068
26317W        W42791   9.834  11.572  10.991 -0.1402  0.1913 -0.3116
26318W        W42792  12.745  17.981   1.410  0.1533 -0.1938  0.0065
26319W        W42793   1.464   7.580  11.796 -0.0725  0.0729 -0.1393
26320W        W42794   9.135   5.967  11.979  0.4074 -0.0730 -0.1142
26321W        W42795  14.062   5.841  12.924 -0.1172 -0.1616 -0.0202
26322W        W42796   7.372   6.266   0.110  0.0998  0.0373  0.2302
26323W        W42797  17.595   4.760  11.843 -0.2011 -0.1828 -0.1186
26324W        W42798  16.161   2.788   4.921  0.3206  0.1507 -0.2509
26325W        W42799   0.925   4.361   4.300 -0.2334 -0.3803 -0.1722
26326W        W42800   3.111   9.354   2.437  0.2142 -0.0890  0.4107
26327W        W42801   3.989  18.373   3.636  0.1423 -0.0451 -0.0626
26328W        W42802  14.207   1.592  12.489 -0.0792 -0.3526  0.1102
26329W        W42803   0.932  16.097  14.002 -0.0223 -0.2583  0.1562
26330W        W42804   4.514  13.771  13.060  0.0647  0.3631 -0.0558
26331W        W42805   8.690  18.256  11.050 -0.1823 -0.0582  0.1069
26332W        W42806  17.954  18.311   1.048 -0.1816 -0.2089 -0.2575
26333W        W42807  14.149  14.498   2.217  0.0841 -0.0575  0.2305
26334W        W42808   2.917  12.396  11.893  0.2204  0.1707 -0.0618
26335W        W42809   0.620  17.225   1.150  0.0107  0.0201  0.1218
26336W        W42810   6.324  17.690   4.278  0.2518  0.0359 -0.1178
26337W        W42811   4.240   9.798  11.647 -0.1582 -0.2863 -0.0675
26338W        W42812  12.119   9.019   3.492  0.1757  0.0343 -0.0499
26339W        W42813  18.271  16.443  11.080  0.1490  0.2440 -0.4712
26340W        W42814  13.168  14.493   0.298 -0.0947 -0.1038 -0.0915
26341W        W42815  18.772  13.595  13.544 -0.0800  0.2102 -0.2219
26342W        W42816   2.896   0.954  13.013 -0.0680 -0.0195 -0.0281
26343W        W42817   9.582   1.169   5.017 -0.2028 -0.2306 -0.0587
26344W        W42818   1.699  13.769  12.275 -0.1044 -0.1905 -0.0474
26345W        W42819   1.033   3.365  14.592  0.1389  0.0309 -0.2959
26346W        W42820  12.431  15.550  12.620  0.0438 -0.1272 -0.0704
26347W        W42821   2.890   5.177  13.872 -0.0623  0.1300 -0.2150
26348W        W42822   5.488  12.379   4.707  0.1331  0.1181 -0.0018
26349W        W42823   7.388  12.498   5.255  0.1269  0.1113 -0.2608
26350W        W42824  11.157  15.975  12.338 -0.2636 -0.1467  0.0962
26351W        W42825  19.341   8.958   1.618 -0.2723  0.2951  0.1102
26352W        W42826  10.955  11.623   0.669 -0.1178 -0.1850 -0.1905
26353W        W42827   2.530  18.583   3.895  0.0386 -0.2551  0.3030
26354W        W42828  16.284   7.124  10.408 -0.2572  0.1760 -0.1387
26355W        W42829  12.881  16.723  11.808  0.2150  0.0696  0.2403
26356W        W42830   5.096   4.164  11.284 -0.0528 -0.1225 -0.0348
26357W        W42831   7.573   3.938   1.963 -0.1687 -0.0626 -0.3277
26358W        W42832  18.967  17.217  13.170 -0.1498  0.1303 -0.0293
26359W        W42833  15.099   8.625  12.816  0.1663  0.1970 -0.1907
26360W        W42834  18.581   5.591   1.930  0.1292  0.0948 -0.2042
26361W        W42835  10.161  19.237   4.174  0.0543 -0.2471 -0.0411
26362W        W42836   4.394  18.274   1.629  0.0148 -0.1863  0.3006
26363W        W42837   0.039  10.597   0.840  0.1014  0.0621  0.0244
26364W        W42838   4.310   9.468  12.389  0.2879  0.2186 -0.3465
26365W        W42839   2.929   6.775  10.755 -0.0670 -0.0768 -0.1635
26366W        W42840   7.259  11.132   2.018  0.2981  0.0104 -0.2508
26367W        W42841   2.119   8.448  14.374  0.1435  0.1136  0.2888
26368W        W42842   9.887  17.998   1.326  0.0197 -0.0934 -0.0627
26369W        W42843   8.566  13.345   3.092  0.0647 -0.1101 -0.1295
26370W        W42844  17.209  13.076  14.313  0.1313 -0.3542  0.1893
26371W        W42845  16.418   9.437   1.850 -0.0558  0.1209  0.0118
26372W        W42846   8.286   5.741   0.349 -0.0883  0.1066  0.0703
26373W        W42847   5.432   7.561  14.130 -0.0873  0.0699  0.2349
26374W        W42848   2.385  14.562  12.238  0.0825 -0.0850  0.0380
26375W        W42849   5.737  15.563  10.534 -0.2686  0.2723  0.0039
26376W        W42850   0.654  18.698   1.396 -0.3107  0.1286  0.0589
26377W        W42851  18.405  18.633   2.895 -0.1497  0.0276  0.0307
26378W        W42852  11.452  11.394  11.196 -0.1740  0.1058 -0.0973
26379W        W42853   7.172   9.751   2.352 -0.0759  0.1758 -0.0922
26380W        W42854   1.794   6.381  14.483 -0.1037  0.1429 -0.2571
26381W        W42855  13.413  18.642   1.490 -0.5054  0.2156  0.0968
26382W        W42856   7.657  18.428  13.231 -0.0122 -0.0878 -0.1535
26383W        W42857   1.535   0.353   2.809 -0.0835  0.1875  0.1757
26384W        W42858  13.230  17.657   3.175 -0.1318 -0.3223  0.0073
26385W        W42859  19.378   1.862  10.225 -0.0797 -0.0054 -0.0256
26386W        W42860   9.046   8.786   9.912  0.5693  0.1427 -0.0201
26387W        W42861   1.030  14.316   1.795  0.0124 -0.2268  0.2271
26388W        W42862   8.508   6.274   1.141  0.3102  0.2104  0.0492
26389W        W42863   2.695   9.573  11.705  0.0068 -0.0763  0.2629
26390W        W42864   2.812  12.051   5.551  0.0483 -0.2068  0.0742
26391W        W42865  13.770  13.549  10.004  0.4848  0.2657 -0.1659
26392W        W42866   2.310  12.958   2.709 -0.0933  0.0797 -0.1277
26393W        W42867  13.800   0.738   4.871  0.0966 -0.0003  0.1684
26394W        W42868  19.310  12.652   0.931 -0.0092  0.1088  0.1885
26395W        W42869   4.685   1.652   1.084  0.0020  0.0714 -0.2601
26396W        W42870  13.206   7.176   3.381 -0.0716  0.1221 -0.5500
26397W        W42871   8.110  16.294  12.601  0.1920  0.0422 -0.0545
26398W        W42872   6.681  18.842  12.347  0.0655 -0.0372  0.1923
26399W        W42873   4.928   0.241  10.300 -0.2139  0.3150  0.4638
26400W        W42874   1.959  10.068  13.150 -0.0491 -0.0411  0.0519
26401W        W42875  16.174  12.016  13.101  0.1093 -0.4067  0.0504
26402W        W42876  11.225  17.034   2.681 -0.1667  0.2665 -0.0374
26403W        W42877   5.102   2.130   2.792  0.2159  0.3037  0.0909
26404W        W42878  16.473  17.876   1.673  0.2361  0.0107  0.1077
26405W        W42879  10.580   8.933  12.545 -0.1901  0.1696 -0.2987
26406W        W42880   5.045  13.925   2.784  0.0312 -0.1116  0.0629
26407W        W42881  11.601  18.462   1.349  0.1129 -0.0278 -0.0178
26408W        W42882   1.065   6.696  12.426 -0.2031  0.2660  0.1182
26409W        W42883  14.658  19.091   3.595  0.3991  0.2054 -0.0696
26410W        W42884  12.762   9.554   5.370  0.0328  0.1217 -0.0279
26411W        W42885   5.576  18.287   3.713 -0.0069 -0.1212  0.1059
26412W        W42886   1.965  15.319   1.791 -0.2964  0.1690  0.3390
26413W        W42887   5.485   5.039   2.364  0.0151 -0.0284 -0.1851
26414W        W42888   5.894   0.126   9.946  0.3146 -0.2475  0.1255
26415W        W42889   4.143  13.457  11.390  0.0268  0.1226  0.1070
26416W        W42890   6.536   6.636   2.526  0.2013 -0.1086  0.0484
26417W        W42891  17.463   7.643   1.296  0.0333  0.1108 -0.0401
26418W        W42892   3.552   0.095   2.393 -0.0741 -0.3629 -0.1484
26419W        W42893  10.138   2.877   2.251  0.0745 -0.0378 -0.1886
26420W        W42894   4.931   2.805  13.952 -0.1213  0.0224 -0.2703
26421W        W42895   5.582  13.364   3.294 -0.2413  0.2393  0.0045
26422W        W42896  16.680   1.928   3.775  0.1600  0.1992  0.1337
26423W        W42897  17.374  15.428   2.953  0.0435 -0.1386 -0.1468
26424W        W42898   1.510   9.520  12.315 -0.1528  0.0262  0.0374
26425W        W42899   3.392   5.487  11.125 -0.3697  0.0338 -0.1990
26426W        W42900  11.605  16.395   0.230 -0.2274  0.1540 -0.2085
26427W        W42901   2.404   4.940   4.297  0.0888  0.0225  0.4538
26428W        W42902  16.111   8.200  13.246  0.3352 -0.4489 -0.0479
26429W        W42903   9.631   8.130   2.730 -0.0060 -0.0892  0.1198
26430W        W42904  14.218  12.182   4.116  0.0080 -0.1125  0.2762
26431W        W42905  13.655  13.329   9.534  0.4242  0.1638 -0.0091
26432W        W42906  10.585   2.847   0.247  0.1047 -0.0650  0.0875
26433W        W42907   3.592  14.589  10.758  0.1041 -0.2150 -0.2924
26434W        W42908  12.160  13.844   4.524 -0.1133  0.5964 -0.3083
26435W        W42909  17.597  11.838   0.656  0.2336  0.1376  0.1971
26436W        W42910  11.971  15.288   3.701 -0.0450  0.2915  0.3176
26437W        W42911   0.936  19.414   1.762  0.0176  0.0998  0.0450
26438W        W42912   1.101  13.629  11.390  0.0712 -0.1071 -0.1126
26439W        W42913  10.207   6.666   3.737 -0.0951 -0.0564  0.1339
26440W        W42914   4.095   0.510  12.078  0.0667 -0.0976 -0.1068
26441W        W42915  11.072   7.118  14.571  0.2474 -0.0991 -0.2058
26442W        W42916  19.373   2.515   8.951 -0.0108  0.0946  0.0226
26443W        W42917   6.997  15.257  13.687 -0.1286  0.0512  0.1741
26444W        W42918  19.398   7.510  13.777  0.0202 -0.1899  0.1151
26445W        W42919  14.384  11.879   4.469  0.4167 -0.2132 -0.2094
26446W        W42920   1.989   5.216   4.280 -0.1478 -0.1801  0.2059
26447W        W42921   2.633   7.035   1.171  0.2292  0.1883 -0.1250
26448W        W42922  11.315  16.607  12.237 -0.0775  0.2531 -0.0613
26449W        W42923   6.810   6.333   1.612  0.0210  0.0819  0.2394
26450W        W42924  14.818   8.376   3.884  0.2004  0.4789  0.1381
26451W        W42925   1.503  11.877  12.146  0.2775  0.0288 -0.0488
26452W        W42926  15.950  15.587   1.707  0.0513 -0.0391  0.2496
26453W        W42927  11.773   1.711  13.041 -0.0345  0.1343 -0.4311
26454W        W42928  18.186  18.031  10.576 -0.0681  0.1495 -0.0509
26455W        W42929   9.926   4.940   3.676 -0.0738 -0.1567 -0.0314
26456W        W42930  14.531   9.004  13.514  0.0749  0.1238  0.1428
26457W        W42931   7.033   3.335   2.754  0.1516 -0.0199  0.1099
26458W        W42932  14.023  16.863  13.319 -0.3709 -0.2176  0.6479
26459W        W42933   1.945   1.224   4.354  0.0142 -0.1905  0.1440
26460W        W42934   5.141   3.924   0.407 -0.0859 -0.1223  0.0485
26461W        W42935   5.860   7.382  11.537 -0.3322 -0.0054 -0.0072
26462W        W42936  18.263  11.009  12.483 -0.2355 -0.1408  0.1850
26463W        W42937  19.552  13.009   2.404  0.0581  0.5574 -0.0583
26464W        W42938   8.088  16.844  13.899  0.3038 -0.0192 -0.0346
26465W        W42939   1.245   5.176   0.262 -0.1176  0.0064 -0.0104
26466W        W42940  13.982   5.579   0.372 -0.1321 -0.1076 -0.0261
26467W        W42941   3.147  15.517   3.783 -0.0428 -0.1001 -0.1934
26468W        W42942  15.503  13.020  11.200  0.2684  0.0531  0.1157
26469W        W42943  13.404  19.132  14.309  0.1085  0.0924 -0.1107
26470W        W42944  18.075   3.020   3.979 -0.0597 -0.1691  0.1643
26471W        W42945   3.882   5.175   2.460 -0.1255  0.0573  0.5549
26472W        W42946  17.433   5.183  12.791  0.2538  0.4746 -0.4063
26473W        W42947  13.049   1.755   3.519  0.0890  0.0381  0.0285
26474W        W42948   2.246  18.915  14.557 -0.0878  0.1747  0.2394
26475W        W42949  19.375  13.019  12.720  0.0205 -0.1455  0.1729
26476W        W42950   7.887   2.786  11.656  0.0823  0.1475 -0.1200
26477W        W42951  19.273  16.593  14.595 -0.2237  0.1251 -0.0354
26478W        W42952  12.485   7.091   2.315  0.0635  0.2517  0.0263
26479W        W42953  12.881   6.549   4.806 -0.1083 -0.2239 -0.2302
26480W        W42954  12.318  10.727  10.538  0.0252 -0.2631 -0.1032
26481W        W42955  10.687  10.938  12.646  0.0863  0.0599  0.1154
26482W        W42956   5.497  10.292  11.610  0.3249 -0.0050 -0.0768
26483W        W42957  13.584   6.917   2.641  0.0254  0.1743  0.3683
26484W        W42958   1.153  15.108   2.256  0.1031  0.0873 -0.0098
26485W        W42959  19.147   1.566  11.038 -0.1580 -0.0697 -0.2196
26486W        W42960   2.292   8.728   5.465  0.0378 -0.2735 -0.1262
26487W        W42961   9.536  11.294  10.440  0.0102 -0.2044 -0.0033
26488W        W42962  16.269   2.027  12.551  0.1672  0.2179 -0.1422
26489W        W42963   1.542   6.137   5.513  0.2046  0.3129 -0.1935
26490W        W42964  13.389  15.818  14.098  0.0089  0.0023  0.0717
26491W        W42965  13.610   0.838   4.392  0.0893  0.0328 -0.2187
26492W        W42966   6.560  13.925  14.236  0.1831 -0.1182 -0.1150
26493W        W42967   5.888  19.155  11.833 -0.1304 -0.2543  0.1515
26494W        W42968  10.744  17.678   3.070 -0.0693  0.0225 -0.1713
26495W        W42969   1.599   8.376  14.562  0.4126  0.0107  0.0091
26496W        W42970  10.880   5.360  13.164  0.0905 -0.0579 -0.1253
26497W        W42971   0.833  15.201   0.791  0.0204 -0.0886 -0.1769
26498W        W42972   5.538   8.515   1.651  0.2093 -0.0881 -0.3095
26499W        W42973   4.495  13.288  12.820  0.0021 -0.1025 -0.0815
26500W        W42974   9.517   5.438   3.001  0.1822 -0.2874 -0.3142
26501W        W42975  10.381  14.263   9.731  0.1508 -0.2777 -0.0273
26502W        W42976  10.004  10.711   4.069  0.3312  0.0288 -0.1802
26503W        W42977   0.342  16.227   4.002  0.2185 -0.3177  0.2918
26504W        W42978  17.675  18.696   3.647  0.2731  0.2201 -0.2146
26505W        W42979   9.107  19.178  12.315  0.0372 -0.2469  0.1197
26506W        W42980  11.844  10.212  10.836 -0.0714  0.1841  0.1485
26507W        W42981  18.446   5.482  13.123 -0.2240 -0.2847  0.2358
26508W        W42982  12.162   0.159   9.265  0.0680 -0.2275 -0.1386
26509W        W42983   9.441   0.599  13.512 -0.1441 -0.1662 -0.0796
26510W        W42984  12.341   3.098   3.884 -0.2010  0.4425  0.0604
26511W        W42985  19.551   1.723   0.555  0.2116  0.0845 -0.1408
26512W        W42986  15.536  11.596   2.057  0.0228  0.0764  0.0281
26513W        W42987  11.307  17.898   2.651 -0.0082  0.1744  0.1884
26514W        W42988   2.996   8.095  13.454 -0.1000 -0.0272 -0.2776
26515W        W42989  11.500   5.722  14.506  0.1558  0.0347 -0.0232
26516W        W42990  13.538  16.785  13.542  0.0010 -0.2028  0.1913
26517W        W42991  12.185  12.895   5.644 -0.0330  0.1021 -0.0165
26518W        W42992  13.962   9.305  14.319  0.0643 -0.2167 -0.2478
26519W        W42993   8.510   2.208  13.606  0.1665 -0.1131  0.1142
26520W        W42994  11.032   9.353  11.728  0.0045  0.1149  0.1178
26521W        W42995  10.158   3.358  13.571  0.0368  0.0501 -0.0293
26522W        W42996   1.252  15.846   1.377  0.3674  0.2361 -0.0519
26523W        W42997   2.712  18.348  11.971  0.2283  0.1842 -0.2281
26524W        W42998  14.249  12.297   3.359  0.1977 -0.0161 -0.0078
26525W        W42999  15.012  11.827  13.359  0.1115 -0.0630  0.3622
26526W        W43000   4.476  12.395   4.226 -0.2955 -0.1055 -0.0923
26527W        W43001  17.496   3.336  12.740  0.0278 -0.1425 -0.0506
26528W        W43002  14.005   6.694   4.484 -0.0387  0.0941  0.3015
26529W        W43003  13.126  17.107  14.172 -0.0221 -0.1689 -0.3023
26530W        W43004   4.344  17.968  12.303 -0.1251 -0.1865 -0.1210
26531W        W43005   3.097  17.173   3.377 -0.5267 -0.0394 -0.1367
26532W        W43006   3.604   5.460  12.618 -0.1837  0.2212 -0.2236
26533W        W43007  14.012   6.262  13.658  0.1387  0.2972  0.0973
26534W        W43008   1.827   8.188   2.251  0.1922  0.0137  0.0601
26535W        W43009  15.521   6.247   5.657  0.0975  0.1602  0.0757
26536W        W43010  11.382  18.046   1.103 -0.1153  0.2416  0.1502
26537W        W43011  19.492  15.327  10.704 -0.1711  0.2270 -0.1879
26538W        W43012   8.368   4.416  14.229 -0.0773  0.2235  0.1158
26539W        W43013  14.057   6.455   1.316 -0.0953 -0.0975 -0.1401
26540W        W43014  10.626   2.090   5.467  0.2210 -0.1886 -0.0385
26541W        W43015  19.368  16.896   0.359 -0.0578  0.1180  0.2941
26542W        W43016   2.357   6.149   4.467  0.0645 -0.0098  0.3602
26543W        W43017  13.618  13.139   5.425  0.0682 -0.1665  0.1283
26544W        W43018   1.827   8.688   2.004 -0.0460  0.3323  0.2008
26545W        W43019   6.950   2.560  11.354  0.0848 -0.1306  0.2272
26546W        W43020   4.014  11.045  12.183 -0.1516  0.2854 -0.3469
26547W        W43021   4.228   3.132  10.033  0.4354 -0.2224 -0.0852
26548W        W43022   6.440   8.968  10.498 -0.0648  0.0884  0.2801
26549W        W43023   5.213   6.285  12.854 -0.1256 -0.2864 -0.1324
26550W        W43024  13.644   4.664   9.650 -0.0447 -0.2326  0.0994
26551W        W43025   1.868  15.842   3.120 -0.2275 -0.0913  0.1319
26552W        W43026  15.934   9.230   1.753 -0.2346  0.0756  0.1294
26553W        W43027   8.761  10.122   0.758 -0.0117 -0.0186  0.1322
26554W        W43028  10.241  18.456  11.075 -0.1040 -0.0261  0.0127
26555W        W43029   7.417  14.038   2.011 -0.0425 -0.1252  0.0377
26556W        W43030  12.884  17.455   0.811  0.2015  0.0426  0.0058
26557W        W43031   2.883   8.111   5.175  0.0921 -0.1968 -0.2850
26558W        W43032  12.454   6.571  11.394  0.1737 -0.1875 -0.0343
26559W        W43033   7.650   7.109  13.604 -0.2973 -0.0182 -0.3952
26560W        W43034   9.626   1.386  10.147 -0.0582  0.2562 -0.3419
26561W        W43035   7.262  13.271  13.062 -0.1145  0.2026  0.3840
26562W        W43036  15.639  18.382  11.117 -0.0998  0.1897  0.0734
26563W        W43037  10.117   4.592   1.116 -0.1604 -0.0046  0.4334
26564W        W43038   9.359   1.204  11.865 -0.4237  0.0482 -0.1968
26565W        W43039   9.255  13.666   4.904 -0.2087  0.0574 -0.0462
26566W        W43040   5.090   2.609   1.712  0.3978  0.3183  0.2670
26567W        W43041  19.122  10.347   1.021  0.0980 -0.0650  0.0081
26568W        W43042   5.019   6.369  11.097 -0.1266 -0.1473 -0.2780
26569W        W43043  11.172  12.615   2.170  0.1014 -0.2741 -0.1011
26570W        W43044   4.267   1.457  13.688 -0.2467  0.2511 -0.0658
26571W        W43045   7.983   2.930   4.272 -0.1659  0.2348  0.1766
26572W        W43046   3.294  13.922  10.147  0.0187 -0.3283 -0.1777
26573W        W43047  16.901  14.240  14.159  0.0618  0.0940 -0.1374
26574W        W43048  13.699  18.584  10.488 -0.3676 -0.2194  0.0251
26575W        W43049   7.946   1.446  12.935  0.0387 -0.2604  0.0929
26576W        W43050  18.614  14.004   0.625 -0.3508 -0.0362 -0.2211
26577W        W43051  19.308  16.832  12.587 -0.3617  0.2404  0.0285
26578W        W43052   7.116   9.603   1.509 -0.0187  0.1394 -0.1160
26579W        W43053  10.617   4.509  10.314 -0.2434  0.0826 -0.0987
26580W        W43054  19.353  16.371   9.544 -0.1768  0.1082 -0.3510
26581W        W43055   5.169   8.566   1.957  0.3004  0.0442 -0.0509
26582W        W43056   3.676  15.454   0.390  0.2448  0.2608 -0.0653
26583W        W43057   7.580   9.974   4.417  0.2715  0.1508  0.3658
26584W        W43058  10.132  11.397   0.134  0.0125 -0.1183 -0.0416
26585W        W43059   0.769   5.223  14.068  0.1224 -0.0568 -0.5079
26586W        W43060   7.434  17.991  13.439  0.2546  0.1911 -0.0382
26587W        W43061  10.299  14.620  13.721  0.0463 -0.2392  0.0408
26588W        W43062   2.190  12.507   2.975 -0.2413  0.1162 -0.0013
26589W        W43063   2.837   4.344  14.428  0.0413  0.2205  0.1820
26590W        W43064   2.829  17.071   1.048 -0.1813  0.4382  0.0168
26591W        W43065  15.482  18.431  14.099 -0.2259  0.1686  0.5225
26592W        W43066   3.625   5.451  10.641 -0.2529  0.2568  0.0676
26593W        W43067   7.733  16.632  12.499 -0.4164 -0.3967 -0.1220
26594W        W43068  15.186   4.162   0.617  0.3477 -0.1465  0.0071
26595W        W43069   0.150   8.997   2.972 -0.1826  0.3167 -0.4984
26596W        W43070  16.930   4.597  11.394  0.1209  0.1726  0.2290
26597W        W43071   9.606   6.882   1.392 -0.0897 -0.2131 -0.2601
26598W        W43072  14.295   3.118   9.112 -0.0018  0.2181 -0.0735
26599W        W43073   4.234  14.771  13.043 -0.0352  0.3286  0.1620
26600W        W43074  16.223  14.460   3.915  0.0071 -0.1514 -0.0779
26601W        W43075   8.140   5.920   1.069  0.0446 -0.0896  0.3549
26602W        W43076  16.669   9.821   9.638  0.0207 -0.1804  0.1479
26603W        W43077   9.307  11.096   4.596 -0.2323  0.2096  0.0791
26604W        W43078   2.699   5.631   0.403  0.2379 -0.2270  0.0194
26605W        W43079   6.220   8.747  11.780 -0.0021 -0.0026  0.1427
26606W        W43080  11.980   4.785  12.858  0.1150  0.0358  0.0303
26607W        W43081  19.450   4.433  13.929 -0.0211  0.3169  0.1384
26608W        W43082   5.518   5.974   3.540  0.0487  0.1675 -0.3941
26609W        W43083   5.755  10.544  14.602  0.4976  0.0646  0.0169
26610W        W43084  12.020   8.397   2.550  0.1541 -0.0246 -0.1760
26611W        W43085  13.704  14.940   2.813  0.0898 -0.2024 -0.0176
26612W        W43086  18.727  10.801  13.380  0.0546  0.5152  0.1674
26613W        W43087  13.500  19.210   9.735  0.3787  0.1177  0.1614
26614W        W43088   6.081  15.036  13.050 -0.1472  0.1787 -0.0841
26615W        W43089   3.957  11.100  13.084 -0.1963 -0.2348 -0.0425
26616W        W43090   6.229  18.922   4.203 -0.0295 -0.1488 -0.1024
26617W        W43091   0.489  16.811  10.556  0.1620  0.0778 -0.1736
26618W        W43092  14.206   4.222  14.697  0.1267 -0.3789  0.0330
26619W        W43093   1.039  12.741  13.628  0.0184  0.1498 -0.0899
26620W        W43094  13.073   4.230   1.864  0.2302 -0.0776 -0.0218
26621W        W43095   1.050  15.237   3.415 -0.2522  0.2236  0.1571
26622W        W43096  14.973   4.972  10.451  0.0833 -0.2034 -0.2988
26623W        W43097  13.078   5.587  12.690  0.4387  0.0502  0.1390
26624W        W43098  13.995   1.930  14.221 -0.1916 -0.0812  0.0184
26625W        W43099   5.553  18.209  13.479  0.2085 -0.2431 -0.0868
26626W        W43100   1.936  12.820   4.079  0.0359 -0.0129  0.0717
26627W        W43101   4.914   4.064  14.348  0.1692 -0.1147  0.3380
26628W        W43102  17.575   4.034  10.561  0.0323  0.0100  0.1609
26629W        W43103   2.432   3.709   5.362 -0.1711  0.0239 -0.1039
26630W        W43104  14.498  17.739  10.950  0.0891 -0.4353 -0.0828
26631W        W43105   3.916  15.737   2.183 -0.1276  0.4021 -0.0131
26632W        W43106   2.969  18.498  10.347  0.2702 -0.0949  0.1246
26633W        W43107  16.282   6.439  11.541  0.1913  0.1328  0.0271
26634W        W43108   7.750   8.285  10.859  0.1628  0.3405  0.1609
26635W        W43109   4.130  19.084   3.055  0.0121  0.2668  0.0650
26636W        W43110   1.059  12.383  14.459  0.0527  0.1736 -0.0229
26637W        W43111   6.487  16.509   3.930  0.0528 -0.0684 -0.1940
26638W        W43112  11.617   5.842   4.941  0.0259  0.0438  0.1099
26639W        W43113  15.818   9.432   2.709  0.1639 -0.3658  0.0192
26640W        W43114  10.469  16.128  12.082 -0.1162 -0.2462 -0.1164
26641W        W43115  16.411  16.042  10.619 -0.1864  0.2820  0.0532
26642W        W43116   0.418  14.093  10.049 -0.0117  0.1642  0.4169
26643W        W43117  10.804  13.581  10.781 -0.0075 -0.3057 -0.1601
26644W        W43118   4.350  19.188   2.571  0.2760 -0.0308 -0.3365
26645W        W43119  12.902  16.902   0.569 -0.0463  0.0363  0.4801
26646W        W43120  12.066  10.051   0.428  0.3418 -0.3884 -0.1923
26647W        W43121  16.728  19.295  11.969  0.1818  0.0165  0.0140
26648W        W43122   7.937  16.224  13.676  0.1525  0.0039  0.1318
26649W        W43123   2.439  11.166   9.172 -0.1672 -0.1440  0.0851
26650W        W43124   1.643   4.047   3.868 -0.6494 -0.2693 -0.0533
26651W        W43125   6.328   9.809   3.879  0.2808  0.0585 -0.0427
26652W        W43126  14.445  16.499   4.167 -0.1183  0.1176  0.0278
26653W        W43127   0.541  16.146   0.342  0.4153  0.1609  0.0600
26654W        W43128  13.578   0.785  11.639  0.2697  0.3884 -0.1184
26655W        W43129   4.296   3.185   5.042  0.0890 -0.2726  0.1012
26656W        W43130  13.458   9.013   2.907 -0.1872  0.1154  0.5042
26657W        W43131   7.867  15.048  12.135  0.1913 -0.1144  0.1937
26658W        W43132  14.497   4.106   4.490 -0.2048 -0.0843  0.1906
26659W        W43133   0.365   5.506  10.652  0.1276 -0.1496  0.1828
26660W        W43134  17.683  11.193   0.861 -0.1826  0.0895  0.0578
26661W        W43135   1.301   8.228   4.524  0.1838 -0.4533 -0.4411
26662W        W43136   8.627  17.602   2.852  0.0325  0.0956  0.1069
26663W        W43137  19.532  13.461   2.097 -0.0041 -0.0718  0.0147
26664W        W43138   6.437  15.124   3.238 -0.2706 -0.0261 -0.1987
26665W        W43139  14.276   0.734  13.872 -0.2657  0.1542 -0.1735
26666W        W43140  13.525  14.447  14.569 -0.1425 -0.1404  0.2071
26667W        W43141  17.911   5.277   5.256  0.0138  0.0989  0.1773
26668W        W43142   3.267  15.065   2.587  0.1489 -0.0480  0.1775
26669W        W43143   2.720   7.391  11.623 -0.0669 -0.0302  0.5605
26670W        W43144  14.151  17.613   3.041 -0.0891 -0.0524 -0.2170
26671W        W43145  12.911   5.990  11.702 -0.2793 -0.0403 -0.0611
26672W        W43146   1.403  17.957   4.024  0.0179  0.0156 -0.0888
26673W        W43147   0.332  19.467   5.390 -0.1797 -0.0987  0.0361
26674W        W43148  18.476  14.451  12.220  0.0838  0.1212 -0.0151
26675W        W43149   3.466   9.734  12.949 -0.1505 -0.0825  0.1249
26676W        W43150   3.870   0.583   2.211 -0.1447  0.0697  0.3110
26677W        W43151   7.874  17.646  12.764 -0.1395  0.3103 -0.1252
26678W        W43152  10.254  18.976   1.035 -0.0121  0.0874  0.2161
26679W        W43153   2.580  13.414   2.863  0.1708 -0.1450 -0.1563
26680W        W43154  17.887  15.144   1.346 -0.0411  0.2184  0.0290
26681W        W43155   8.940   7.423   1.101 -0.3545 -0.2145 -0.2708
26682W        W43156   5.019  14.759   1.852 -0.0510  0.0540 -0.0000
26683W        W43157  14.942  17.556  10.979 -0.0147 -0.1788 -0.0039
26684W        W43158  18.003  11.098  11.614  0.1551  0.1896  0.2760
26685W        W43159  19.056   4.256  13.591  0.1834 -0.2152  0.2607
26686W        W43160  17.369  13.413   3.862 -0.1167 -0.0558 -0.4729
26687W        W43161   6.016  12.535  10.311  0.1156  0.0991  0.1306
26688W        W43162   6.543   7.728  12.187 -0.0264  0.1476  0.1994
26689W        W43163  14.595  18.142   0.711 -0.1240 -0.2729 -0.2698
26690W        W43164  15.976  15.869   0.750 -0.0880 -0.3996  0.0872
26691W        W43165   1.247   9.085  13.649  0.4376 -0.1979 -0.3705
26692W        W43166   7.565  17.987  12.546  0.0993  0.1272  0.2073
26693W        W43167   1.732  10.459   2.378  0.1632  0.1068  0.3155
26694W        W43168  14.754   0.090   3.728 -0.0720  0.3823 -0.2211
26695W        W43169  18.434  18.362   1.221  0.0390 -0.2087 -0.2707
26696W        W43170   2.768   2.639   3.179  0.1407  0.2455 -0.0429
26697W        W43171   7.390  19.010  13.323  0.0216  0.0601 -0.0260
26698W        W43172  13.085   6.997   0.045  0.1298 -0.1984 -0.0630
26699W        W43173  10.881   7.720  13.992  0.2397 -0.0863 -0.1535
26700W        W43174   7.616  14.826   9.287 -0.0791 -0.2860 -0.1638
26701W        W43175  15.109  12.555  11.748  0.2827 -0.2462 -0.0116
26702W        W43176  18.942   5.740  12.333 -0.0376  0.0398  0.0972
26703W        W43177  14.068   9.582   2.540  0.0745 -0.2224  0.0765
26704W        W43178  16.686   3.167  13.632 -0.0822 -0.0319  0.2471
26705W        W43179  19.547   1.380   3.489  0.1596  0.1981  0.0198
26706W        W43180   4.945  10.119   0.465  0.1827 -0.0439 -0.0342
26707W        W43181   7.941  17.319  14.163  0.0023  0.4318 -0.0224
26708W        W43182   5.398   9.570   2.989 -0.2763 -0.0281 -0.2823
26709W        W43183  11.093  10.995   4.845  0.3524 -0.0890  0.1036
26710W        W43184  18.478   2.533   1.647  0.0665  0.2616 -0.0371
26711W        W43185  11.997   6.650  12.686 -0.1337  0.0928 -0.3649
26712W        W43186  17.340  13.550  14.018 -0.3706  0.0751 -0.1190
26713W        W43187  11.756  10.874  11.497  0.1250  0.0646 -0.4148
26714W        W43188  16.526  14.949   4.626 -0.0511  0.3895 -0.1361
26715W        W43189  18.979   7.309   0.094 -0.3643  0.0477 -0.1589
26716W        W43190   3.153   8.614  10.617 -0.1551  0.1496  0.0607
26717W        W43191  16.225  17.287   2.139  0.3086 -0.0396 -0.0694
26718W        W43192  12.947  18.388  12.167 -0.3979 -0.0408 -0.1656
26719W        W43193   4.552   2.267   1.883  0.3320  0.0870  0.2186
26720W        W43194  14.671   0.519   0.631 -0.0300  0.3723  0.1243
26721W        W43195  12.855  10.452  10.976  0.2725  0.0549  0.0813
26722W        W43196  19.513  18.995   4.577  0.0326 -0.0115 -0.1858
26723W        W43197  17.879  19.343  13.937 -0.1130 -0.0360 -0.0743
26724W        W43198  16.313   4.629  10.770  0.3030  0.0267  0.2791
26725W        W43199  10.317   4.227  13.238  0.0534  0.0831 -0.0138
26726W        W43200   2.426   7.626   0.742  0.3368  0.2488  0.1535
26727W        W43201   6.085   6.363  11.820 -0.0161 -0.0533 -0.0791
26728W        W43202  14.071  17.296   1.521  0.1091 -0.2028 -0.0069
26729W        W43203   4.422  11.331  12.596  0.1248  0.1393 -0.0630
26730W        W43204  17.619   8.110  12.385  0.4023  0.2818  0.0557
26731W        W43205  11.388   2.841   3.883 -0.1244 -0.0126 -0.5202
26732W        W43206  12.439   6.238   3.968 -0.0078 -0.1808 -0.3214
26733W        W43207  10.502   7.297   1.388 -0.1535  0.3714 -0.0569
26734W        W43208   6.372  18.451  13.058  0.0039 -0.1451 -0.0172
26735W        W43209   4.670  17.225   2.713  0.3354  0.0279 -0.0565
26736W        W43210  10.566  16.038   2.375  0.0163  0.2246 -0.3813
26737W        W43211  18.788  11.532  12.397 -0.1054 -0.2382  0.1264
26738W        W43212  13.364  10.225   9.992  0.2327  0.0294  0.2366
26739W        W43213  14.659   5.403  12.326 -0.1312  0.0697 -0.1806
26740W        W43214   2.545   9.566  14.068 -0.0267  0.1573  0.2519
26741W        W43215   6.856  18.760   0.944  0.0418 -0.2318  0.0583
26742W        W43216  12.652   8.859  13.490  0.1706 -0.0019  0.1331
26743W        W43217  18.300   8.068   1.073 -0.0260  0.2558 -0.1330
26744W        W43218  18.659   5.905  12.880 -0.2888 -0.2542 -0.0617
26745W        W43219   8.281  13.511  11.600  0.2234 -0.1195  0.2158
26746W        W43220  15.198  18.981   4.193  0.0104  0.0463 -0.2595
26747W        W43221   5.461   9.900   4.017  0.0855  0.3866 -0.2134
26748W        W43222  13.850  15.715   2.261 -0.2032  0.1161 -0.0852
26749W        W43223  14.819  13.272   0.609  0.1961 -0.0851  0.1740
26750W        W43224   6.869   4.320  11.606 -0.0980 -0.1107 -0.4556
26751W        W43225  10.886  10.499  12.857 -0.0513 -0.0689  0.3114
26752W        W43226  15.991   9.065   2.460 -0.1286  0.1893 -0.0899
26753W        W43227   2.499   2.240   3.498 -0.2343 -0.0585  0.1010
26754W        W43228  12.549   4.261  10.944  0.1159  0.2085 -0.3182
26755W        W43229  12.925  15.669  14.329  0.0377 -0.0917 -0.3138
26756W        W43230  11.911   5.658  11.002 -0.1817  0.0109  0.0026
26757W        W43231   0.531   9.980   4.403  0.0308 -0.0030 -0.0291
26758W        W43232   2.496   9.051   0.663 -0.0823 -0.4488  0.2372
26759W        W43233  18.845   3.468   0.978 -0.2461  0.0714 -0.0850
26760W        W43234  18.813   1.793  12.833 -0.0992 -0.4661 -0.1062
26761W        W43235  11.885   4.538   3.557  0.0823  0.3003 -0.0408
26762W        W43236  17.214  14.729   1.502 -0.1243 -0.1529  0.1775
26763W        W43237   1.744  11.015   3.021 -0.0042 -0.1172 -0.2074
26764W        W43238  15.937  12.206  11.313 -0.0010 -0.0421  0.0329
26765W        W43239  14.824  19.294   3.107 -0.1423  0.1611  0.1118
26766W        W43240   9.510  14.597   4.662  0.0069 -0.1984  0.1252
26767W        W43241   3.200  10.146  10.648 -0.0418 -0.3071  0.0641
26768W        W43242  18.253  16.966  11.121  0.0095 -0.0147 -0.1076
26769W        W43243  17.205   9.268  14.191  0.0957 -0.1044 -0.2425
26770W        W43244  16.619  18.323  13.077 -0.5782  0.1214  0.1048
26771W        W43245   6.798  13.783   3.721  0.1118  0.0310 -0.0879
26772W        W43246   3.140   8.790  13.849  0.1352  0.1600 -0.1813
26773W        W43247  18.919   9.627  13.986  0.0598 -0.0701  0.3025
26774W        W43248   4.991   1.530   2.583 -0.2166  0.0879  0.1306
26775W        W43249  16.931  16.776   3.145 -0.2419  0.1881 -0.3186
26776W        W43250   0.293   3.721  13.981  0.2468 -0.3168 -0.0997
26777W        W43251  17.157  17.520   2.953 -0.2180 -0.2583  0.1195
26778W        W43252   9.798   4.049  14.640 -0.3844  0.0051  0.2807
26779W        W43253  18.856   8.158   2.904 -0.1199  0.1338  0.1603
26780W        W43254   3.025  15.552   1.959 -0.3013 -0.2369 -0.3358
26781W        W43255  10.207  12.700  13.568  0.1311  0.0356 -0.1267
26782W        W43256   9.383  10.317  10.820 -0.0466 -0.1153 -0.0945
26783W        W43257   1.023   5.133   4.658  0.2839  0.2554 -0.1044
26784W        W43258   0.239  16.927  13.848  0.0434 -0.2649 -0.1485
26785W        W43259   0.809   9.502   4.280 -0.0677  0.0010  0.2109
26786W        W43260   7.829  12.231  10.400 -0.2629  0.1785 -0.1789
26787W        W43261   9.028  17.715  12.017 -0.3431 -0.2472  0.0939
26788W        W43262   6.017  15.061  10.366 -0.2178  0.0243  0.0612
26789W        W43263   3.496  10.211   0.304 -0.0294 -0.0680 -0.4044
26790W        W43264  10.873  16.251   4.824 -0.2097 -0.2197 -0.1134
26791W        W43265   5.033   2.493   5.234 -0.0241 -0.6317 -0.0128
26792W        W43266   2.240  15.516   1.407 -0.4489 -0.0916 -0.0990
26793W        W43267  17.391   4.723   2.112  0.0027 -0.1364  0.0959
26794W        W43268   1.034   0.070  11.141 -0.0256  0.1231  0.0055
26795W        W43269  10.938  18.571  13.423  0.0028  0.1150  0.0478
26796W        W43270  15.885   9.285  13.508 -0.0828  0.2326  0.1758
26797W        W43271   1.746   9.020  13.608 -0.0220 -0.2302 -0.1526
26798W        W43272  13.522  16.599   4.732  0.3962 -0.1884 -0.1817
26799W        W43273  10.160  18.310  12.252 -0.2197  0.4044 -0.2283
26800W        W43274  18.641  12.073  10.755  0.2544  0.4272  0.1058
26801W        W43275  15.993   0.110  14.457  0.0390 -0.1571  0.0627
26802W        W43276  15.795   4.624  11.096 -0.3000  0.0360  0.2460
26803W        W43277   7.532  18.468  10.964 -0.3151 -0.1158 -0.1451
26804W        W43278   1.613  13.316  12.923 -0.3227  0.5502 -0.3759
26805W        W43279  16.028   6.429   0.201 -0.0953 -0.2178 -0.1587
26806W        W43280  17.329   3.722   1.603  0.3080 -0.1580 -0.1160
26807W        W43281   5.648  12.506  13.010 -0.3485  0.2267 -0.1264
26808W        W43282  19.174  16.639   2.868 -0.0350 -0.0359 -0.0342
26809W        W43283   5.376   5.715   4.492 -0.0228 -0.1205 -0.2462
26810W        W43284  13.912   5.205  12.340 -0.0372 -0.0844  0.1780
26811W        W43285   5.290  11.692  10.913 -0.1770 -0.1590 -0.0759
26812W        W43286  17.401  10.596   0.077 -0.2355 -0.1966 -0.2514
26813W        W43287   2.161  16.138   3.450 -0.0063 -0.0484  0.1948
26814W        W43288   7.165  14.891  11.078  0.1570 -0.3321 -0.2493
26815W        W43289  10.581   2.144  10.079 -0.0721  0.0438 -0.1161
26816W        W43290  17.449  11.802   3.880 -0.3541 -0.1821 -0.0222
26817W        W43291   8.589   3.372   3.604 -0.0058 -0.0902 -0.0237
26818W        W43292  15.724  11.954   4.043 -0.0109 -0.2106  0.0531
26819W        W43293   7.392  12.101   2.855 -0.1338 -0.0424  0.2137
26820W        W43294  19.113   3.429  14.502  0.2728  0.3576  0.2023
26821W        W43295   5.280  16.553   1.707 -0.0205 -0.0753  0.1624
26822W        W43296  13.387   3.741  10.767 -0.1706  0.0926 -0.1087
26823W        W43297   3.408   2.031   2.841  0.1476  0.1194 -0.1680
26824W        W43298   9.582  10.514   2.851  0.1396 -0.0569 -0.1545
26825W        W43299  17.262  11.406  12.359 -0.0746  0.1836  0.0163
26826W        W43300   2.938  15.937  10.303  0.1560  0.2062 -0.1740
26827W        W43301  10.773  14.963   1.477  0.1570  0.2912  0.0630
26828W        W43302   6.027  13.928  10.315 -0.3964  0.1055  0.2969
26829W        W43303  14.360  17.678   4.244 -0.1411 -0.0597 -0.0044
26830W        W43304   5.564  17.247   4.257 -0.2220  0.0197  0.4732
26831W        W43305  18.479  11.059  11.603  0.0802  0.2157 -0.2572
26832W        W43306   0.172  11.252   1.422  0.0840 -0.0155 -0.3364
26833W        W43307   8.385   4.701  10.725  0.0837  0.1204  0.1493
26834W        W43308  13.663   9.442  12.693 -0.1825 -0.0551 -0.3584
26835W        W43309   8.751  17.490   4.673  0.0665 -0.2838  0.1018
26836W        W43310  13.845   1.530  13.057 -0.2012 -0.0187 -0.2076
26837W        W43311  16.260   3.363  11.818  0.2780  0.0128  0.1442
26838W        W43312   7.589  15.130  12.564 -0.2738 -0.3485  0.0331
26839W        W43313   0.840  15.400  12.741  0.0923  0.2204  0.0413
26840W        W43314  19.323  16.879  13.903  0.1256 -0.0706  0.0121
26841W        W43315  13.981   2.132   2.411  0.2600  0.1833 -0.4059
26842W        W43316  17.167  14.256  12.581  0.0329 -0.1919  0.0766
26843W        W43317  14.044  15.270  12.414  0.2537  0.1698  0.2494
26844W        W43318   6.829  12.327   5.255 -0.5207  0.0033  0.0006
26845W        W43319  10.461  12.680   0.025 -0.1444  0.3053  0.0342
26846W        W43320  15.493  15.137  12.564  0.0159 -0.4239  0.0164
26847W        W43321  16.719  10.624   3.670  0.0001 -0.1139 -0.0255
26848W        W43322  17.053  11.363  14.495 -0.0015  0.0032 -0.0861
26849W        W43323   3.901   2.942   3.916 -0.1645  0.2015  0.3466
26850W        W43324  18.163   8.377   0.702 -0.2675 -0.1732  0.2279
26851W        W43325  14.024   6.414   9.692  0.2065 -0.0058  0.3928
26852W        W43326   5.753  16.976   2.809  0.2153 -0.3254 -0.1544
26853W        W43327  17.201  11.940   0.426  0.0086 -0.2241  0.0696
26854W        W43328  10.105   3.802   1.060 -0.2046 -0.1230  0.1007
26855W        W43329   3.016   2.812  10.758 -0.0564  0.0315  0.1108
26856W        W43330   5.781  11.201   3.566 -0.2629 -0.1723  0.2219
26857W        W43331   8.187  15.773   0.936 -0.1926  0.0191  0.0601
26858W        W43332  12.343  18.999   5.588  0.1793 -0.1905  0.2149
26859W        W43333  12.160  16.558   4.324  0.0850 -0.0962 -0.0031
26860W        W43334   9.292  11.177  12.363 -0.0233  0.0020 -0.1848
26861W        W43335   0.783   8.640  13.440  0.0201 -0.0869  0.0881
26862W        W43336   3.454  18.958   2.783 -0.3540  0.1901  0.1130
26863W        W43337  13.195   1.892  13.073  0.2198 -0.2904 -0.2669
26864W        W43338   4.603   4.344  12.614 -0.0978 -0.1274  0.1890
26865W        W43339   1.153  19.564   4.658  0.0529  0.0687  0.0270
26866W        W43340   2.371   1.512  11.204  0.1746 -0.0627 -0.5091
26867W        W43341   8.428  15.762  12.324 -0.2757  0.1017 -0.0549
26868W        W43342   1.087   2.020  13.596 -0.0873  0.1245  0.4162
26869W        W43343  15.626   9.189  10.731 -0.0202  0.1294  0.0042
26870W        W43344   5.930   9.143   0.586 -0.2826  0.0047 -0.1786
26871W        W43345   9.312  14.295  14.435 -0.1343  0.1233  0.2176
26872W        W43346   1.194   6.768   1.120 -0.2006 -0.1675 -0.1379
26873W        W43347  13.822   4.836  13.706 -0.0605  0.1190  0.2080
26874W        W43348  14.657   6.362  14.438 -0.1041 -0.2665 -0.0041
26875W        W43349   3.841  10.824   0.028  0.2406 -0.1403 -0.3344
26876W        W43350  19.272   9.867  12.100  0.0386 -0.0564 -0.0737
26877W        W43351   2.428  13.729  10.943 -0.0554 -0.0584  0.2176
26878W        W43352  10.925  14.768  14.674  0.0384 -0.0399  0.0269
26879W        W43353  15.270  11.699  11.530 -0.4067  0.1323  0.3065
26880W        W43354   7.927   4.710  11.061 -0.0326 -0.2740 -0.1686
26881W        W43355  14.902   7.029   0.572 -0.0541 -0.0546 -0.0160
26882W        W43356   8.974   8.083  10.990 -0.1707 -0.1239  0.0787
26883W        W43357  15.372   9.582  11.628 -0.2134  0.1033 -0.2920
26884W        W43358   6.914   2.118  10.245  0.4840 -0.1721 -0.0793
26885W        W43359   6.480   5.736  12.461  0.1414  0.1176  0.4013
26886W        W43360  10.932   6.487  11.998  0.0505  0.0195  0.3476
26887W        W43361   7.514   0.980  13.912 -0.0111  0.1201  0.2275
26888W        W43362   1.977   9.125   2.947 -0.1393 -0.1959  0.1329
26889W        W43363   4.244  12.673   0.965  0.3259  0.1007 -0.0398
26890W        W43364  10.903   2.552   5.108 -0.3185  0.3177 -0.0024
26891W        W43365   8.507  12.878   4.210 -0.1755 -0.2087 -0.0915
26892W        W43366  18.965   5.534   1.415  0.0764 -0.1654 -0.2931
26893W        W43367   6.647  17.153  12.845  0.2223 -0.0295  0.0643
26894W        W43368   7.265  15.311   2.837  0.0294  0.0514  0.3424
26895W        W43369   2.017  18.863   4.782 -0.1373 -0.0218  0.1090
26896W        W43370  16.077  17.167  14.632 -0.0575  0.1670  0.1075
26897W        W43371  16.101   6.398   9.842 -0.0345  0.1508 -0.5019
26898W        W43372  14.291   1.289   9.004 -0.4680  0.0982  0.2040
26899W        W43373   1.526   8.884   5.056  0.2008 -0.0443  0.1164
26900W        W43374   1.025  16.159   9.780 -0.2934  0.0259  0.0846
26901W        W43375  15.751   5.379  10.542 -0.0990 -0.1392 -0.0578
26902W        W43376   7.030   8.665  12.978  0.3031 -0.0727 -0.1274
26903W        W43377  18.100  19.297   0.708 -0.1040 -0.0251  0.3289
26904W        W43378   7.454   3.232  13.548  0.1667  0.1874 -0.0793
26905W        W43379   3.203  11.879   4.218  0.0504 -0.1455  0.1215
26906W        W43380  12.832  17.306   2.304 -0.0438  0.1279  0.2352
26907W        W43381   0.184   6.781  12.329 -0.3273 -0.2871 -0.0804
26908W        W43382  18.452  16.674  12.342 -0.1710  0.0084 -0.3686
26909W        W43383   9.782  14.072  14.367 -0.0127 -0.1287 -0.4031
26910W        W43384   7.466  16.654   4.693 -0.0324 -0.3153 -0.2247
26911W        W43385  17.076  18.828  12.147 -0.1459  0.0708  0.1889
26912W        W43386  14.805  10.436   1.285  0.0520 -0.5287 -0.2506
26913W        W43387   0.877  10.834  13.521  0.0251  0.0012 -0.2483
26914W        W43388  11.569  19.204   3.400 -0.0222 -0.0088  0.1523
26915W        W43389   8.959  11.432  12.044  0.0260  0.0987  0.2744
26916W        W43390  12.304   0.877   9.767 -0.0315  0.0083  0.0417
26917W        W43391   2.660   1.556  13.939  0.1784 -0.4456 -0.0378
26918W        W43392  14.782  16.731   3.862 -0.0560 -0.1581 -0.0950
26919W        W43393   7.267   2.710   3.404 -0.3140 -0.0481 -0.2612
26920W        W43394  15.955  11.719   2.915 -0.0936 -0.0704 -0.2844
26921W        W43395  10.507   1.352  10.334  0.1230  0.2009 -0.2595
26922W        W43396   5.779   4.643   3.141 -0.1051  0.0768  0.2078
26923W        W43397   6.280  18.948   0.229 -0.0805 -0.0683  0.1339
26924W        W43398   7.765   7.314  10.018 -0.3447  0.1213 -0.3892
26925W        W43399  15.606  14.069   2.367  0.3258 -0.1652  0.0264
26926W        W43400  18.233  17.499   0.089  0.0157  0.0385  0.0186
26927W        W43401   4.660   4.943  11.902  0.0171 -0.0461 -0.0596
26928W        W43402   6.764  11.716  14.377  0.0697  0.0648  0.0197
26929W        W43403  14.564  19.406  12.844 -0.2790 -0.1118  0.1533
26930W        W43404   4.403  19.212  14.403 -0.0615 -0.0298  0.1912
26931W        W43405   0.102   1.939  12.671  0.0785 -0.0306 -0.0422
26932W        W43406  19.562   0.741   1.551  0.0372  0.0903  0.3808
26933W        W43407  13.173   3.014   1.500 -0.2467  0.2262  0.0957
26934W        W43408   6.481   1.508  12.224 -0.2571 -0.1023  0.1677
26935W        W43409  16.202   7.593  12.437 -0.0263 -0.2008  0.1783
26936W        W43410  15.836  16.115  12.752 -0.0110 -0.1174 -0.1380
26937W        W43411  17.261  18.361  10.600 -0.1591 -0.0403  0.1349
26938W        W43412  19.362   1.025  10.428 -0.0031  0.2736 -0.4648
26939W        W43413   4.708   6.684  13.254  0.1584 -0.0145  0.0475
26940W        W43414  18.608  17.816  11.168  0.3152 -0.2475  0.1604
26941W        W43415  18.024   2.346   3.317  0.3361  0.0880 -0.2188
26942W        W43416  12.528  14.886   0.116  0.3361 -0.0776  0.2160
26943W        W43417   8.174   2.854   0.966  0.0241 -0.2052 -0.4722
26944W        W43418  18.478   2.142   1.946  0.1727 -0.3609 -0.1171
26945W        W43419   0.764   3.035   4.085  0.0713 -0.0769  0.0912
26946W        W43420  15.607   3.309   0.432  0.1944 -0.2296 -0.2831
26947W        W43421   8.364   5.430  12.327 -0.2614  0.2942  0.0045
26948W        W43422   0.023   6.219  14.707 -0.3631 -0.1294 -0.0481
26949W        W43423  13.356  17.370   0.514  0.1131  0.0588 -0.0226
26950W        W43424   6.291   3.208   3.902 -0.0280  0.1236  0.1155
26951W        W43425   9.158   2.380  14.115  0.1584 -0.2059 -0.7236
26952W        W43426   1.894   0.432  12.640  0.3359 -0.3889 -0.0414
26953W        W43427  13.963  15.710   9.648  0.2244  0.3145  0.0363
26954W        W43428   0.667   6.510   1.764 -0.1066  0.1450 -0.4402
26955W        W43429  12.962   2.391  13.860 -0.0684 -0.1660 -0.0397
26956W        W43430   9.982   8.866  14.649 -0.0181 -0.2234  0.0986
26957W        W43431   3.543   4.184   0.916 -0.2483 -0.1453 -0.1128
26958W        W43432  18.057  19.477   1.925 -0.1198  0.1148 -0.1270
26959W        W43433   6.321  10.130   4.676 -0.1954 -0.1468 -0.3699
26960W        W43434   8.615  11.247   4.862  0.0923 -0.1027 -0.3005
26961W        W43435   0.956  18.081   4.343 -0.2155 -0.1342  0.5081
26962W        W43436  10.301   0.417   2.119 -0.0369 -0.0492  0.1854
26963W        W43437  12.008   3.884  13.029  0.1118 -0.3289  0.0445
26964W        W43438  11.957   5.744  14.332  0.0346 -0.0004 -0.0852
26965W        W43439   3.802  16.157   1.638  0.0570  0.0191  0.1832
26966W        W43440  18.243   7.397   2.788 -0.1646 -0.0656  0.3029
26967W        W43441   9.745  11.997   4.960 -0.0761  0.1649 -0.0339
26968W        W43442   6.647   0.549  14.366  0.4864 -0.0411  0.2697
26969W        W43443   2.270  16.156   2.938 -0.0765  0.3336  0.0841
26970W        W43444  14.510   2.212   5.358  0.1256 -0.0434  0.2220
26971W        W43445  15.650   8.210   2.308  0.1948 -0.2215  0.1598
26972W        W43446  15.077  12.103  14.192 -0.1662  0.0187  0.4202
26973W        W43447   2.336   3.489   0.773 -0.0076 -0.0010 -0.1544
26974W        W43448   6.610  13.895   0.526 -0.1996  0.1864 -0.0452
26975W        W43449  17.392  16.964  13.746  0.0860 -0.0826 -0.0487
26976W        W43450   0.981  17.352  12.951 -0.1600  0.0384 -0.0998
26977W        W43451  15.654   8.198  11.620 -0.3326  0.0778  0.0663
26978W        W43452  17.052   0.171  14.101  0.1294  0.1851  0.0134
26979W        W43453  14.631  15.300   0.411 -0.2398  0.2284 -0.3122
26980W        W43454  17.973   6.745  13.080  0.1167  0.0085 -0.0512
26981W        W43455   7.056  12.341  10.195  0.4696 -0.0395  0.4837
26982W        W43456   5.670  10.123   3.567  0.0866 -0.2578 -0.6794
26983W        W43457  18.877   3.564   9.367  0.3327 -0.2889 -0.1921
26984W        W43458  12.942   2.934  13.412 -0.1150 -0.1541  0.1364
26985W        W43459  11.274   9.871   2.800 -0.0719  0.1387  0.2296
26986W        W43460  10.291  10.825  11.522  0.1984 -0.1127  0.1457
26987W        W43461  13.580   9.485   2.615 -0.2787  0.0185  0.0004
26988W        W43462   6.378   3.443   9.287  0.0799 -0.2486  0.1354
26989W        W43463  10.008  17.046  12.249 -0.1861 -0.2404 -0.4060
26990W        W43464  17.319   1.843  11.993  0.1220  0.2259  0.1189
26991W        W43465   6.416   5.001   2.397  0.0531 -0.0133 -0.0967
26992W        W43466   2.929  14.408   1.220 -0.2707 -0.2164  0.1203
26993W        W43467   4.810  13.086   0.757 -0.4728  0.0979  0.0373
26994W        W43468  15.085   0.720  13.343  0.0775  0.0058  0.1657
26995W        W43469   9.930   0.750   1.658  0.3187  0.3919  0.3272
26996W        W43470   3.064  17.922  12.195 -0.0337 -0.0803  0.3365
26997W        W43471  17.379   1.217   3.072 -0.0136 -0.4231  0.0793
26998W        W43472  12.668  12.460  12.227 -0.3678  0.0864 -0.1527
26999W        W43473   9.441  14.971  11.296  0.0179 -0.1808  0.1311
27000W        W43474   9.863  16.477   3.754  0.2417  0.2128  0.0081
27001W        W43475   4.128   9.324   9.301  0.0810 -0.2201 -0.0746
27002W        W43476  16.240   7.456   3.080 -0.1755 -0.2027  0.2639
27003W        W43477   9.737   7.983   0.200 -0.2489 -0.0832 -0.1985
27004W        W43478  15.747  13.915   1.688 -0.1343  0.2543 -0.1057
27005W        W43479  13.611   6.650  14.710 -0.3185  0.0444  0.0519
27006W        W43480  12.439   2.372  11.894  0.2924  0.1049 -0.1380
27007W        W43481   6.288  18.090  10.612 -0.2092  0.4359 -0.0376
27008W        W43482   9.957   6.687  13.250  0.0043  0.0715  0.0346
27009W        W43483   9.235   7.039   4.435  0.0117  0.2342  0.1178
27010W        W43484   1.440  15.461  11.390 -0.0830  0.1101 -0.1410
27011W        W43485   7.924   6.179   0.666  0.2442 -0.0909 -0.0526
27012W        W43486   1.471   4.913  11.108  0.2522 -0.3889  0.1184
27013W        W43487  11.767   0.232  10.876 -0.1636  0.1272 -0.1869
27014W        W43488   1.585  18.328   3.146  0.0942  0.0193  0.1895
27015W        W43489  11.266  14.514   3.146 -0.2642 -0.0967 -0.1922
27016W        W43490  14.103   0.056  11.584  0.0530  0.1463  0.3679
27017W        W43491  11.949  19.257  12.508  0.4459 -0.2460  0.4469
27018W        W43492   5.857  14.405  13.871 -0.0041 -0.0572 -0.0095
27019W        W43493   6.290  18.959  13.515  0.0290  0.1505 -0.0996
27020W        W43494   5.397   5.927   2.721  0.1670  0.3314 -0.1083
27021W        W43495   3.344   3.874  12.312 -0.0561  0.2958  0.1409
27022W        W43496  17.027  18.529  11.091 -0.0854  0.2014  0.1541
27023W        W43497   2.746  19.478   3.493  0.2013  0.5810  0.0940
27024W        W43498  10.016  14.849   4.578 -0.1567 -0.2509  0.0635
27025W        W43499  14.332  12.850   4.152  0.2741  0.0483  0.0224
27026W        W43500  12.716   0.872   4.835 -0.0538  0.2958 -0.0933
27027W        W43501   5.034   2.666   0.990  0.0399 -0.0949  0.1930
27028W        W43502   3.627   3.746   1.276 -0.0457  0.2885 -0.0049
27029W        W43503  16.741  10.140   5.746 -0.3164 -0.3941  0.0687
27030W        W43504   2.967  12.842   2.393  0.4396  0.1949  0.1293
27031W        W43505   2.737   1.254   3.657 -0.1799 -0.1318 -0.1595
27032W        W43506  19.023  13.644   2.132  0.1818 -0.0274 -0.0312
27033W        W43507  17.466  11.108  14.150  0.1937  0.1098  0.0281
27034W        W43508  15.636   8.901   2.122 -0.4129  0.1519  0.3033
27035W        W43509   7.835   8.332  13.437 -0.1043 -0.0258 -0.3276
27036W        W43510   9.475  16.552   5.713  0.0193  0.0395  0.1095
27037W        W43511  10.647   3.469  13.617 -0.1963  0.2136 -0.0520
27038W        W43512  13.267  18.244  12.523  0.0280  0.1340 -0.3956
27039W        W43513  15.347  16.760  13.659 -0.1490 -0.0989  0.0052
27040W        W43514   0.161   5.520  12.360  0.1444 -0.2117 -0.1787
27041W        W43515  13.447   4.830   0.532  0.3550 -0.3233 -0.0587
27042W        W43516   8.998   0.621  13.883  0.1300  0.5626  0.0319
27043W        W43517   8.701   6.751  10.764  0.2247 -0.1579 -0.1877
27044W        W43518   8.333  12.514   1.531  0.2499  0.2792  0.1410
27045W        W43519   6.278   0.632   0.630 -0.2070 -0.1226  0.3084
27046W        W43520  10.556  10.895  11.052 -0.1516 -0.1619 -0.2097
27047W        W43521  16.212   0.306   2.679 -0.1399  0.2558 -0.1306
27048W        W43522   7.791   1.162  14.236 -0.0911  0.0445 -0.0252
27049W        W43523   4.006  10.756  13.896  0.0747 -0.1921 -0.0002
27050W        W43524  10.084  13.508   3.643 -0.2979 -0.0313  0.1733
27051W        W43525   6.882  11.686  13.832 -0.1974 -0.0232  0.3736
27052W        W43526  14.102   0.295  10.115  0.0114  0.2292 -0.1478
27053W        W43527   6.975   5.514   1.724 -0.1301 -0.1095  0.2091
27054W        W43528  16.852   2.585   2.562  0.2525 -0.0049 -0.1876
27055W        W43529  12.375  11.524   4.667  0.1812  0.2645 -0.2227
27056W        W43530  17.109  12.718  11.061  0.3359  0.0301  0.0554
27057W        W43531   3.940  16.766   4.347  0.0330 -0.0585  0.1638
27058W        W43532   9.054   9.000   2.709  0.1658 -0.3155 -0.1074
27059W        W43533   6.456  17.966   0.905  0.1034  0.1185 -0.0939
27060W        W43534   0.489  12.254  14.643  0.3167  0.3155  0.0552
27061W        W43535  15.095   8.850  14.079 -0.0015 -0.0358 -0.0467
27062W        W43536  18.273   3.085  12.990  0.5058 -0.2285  0.0943
27063W        W43537   1.227   4.071   0.453  0.2330  0.0844 -0.0326
27064W        W43538  19.076  19.260  14.701  0.2602 -0.1489 -0.2931
27065W        W43539  14.371   8.497   3.080 -0.2551  0.1483  0.1992
27066W        W43540  19.129  16.185   2.972 -0.3549 -0.2465 -0.0015
27067W        W43541   1.618  16.316  10.769 -0.3995 -0.2083  0.4460
27068W        W43542   9.103   6.923  12.304 -0.0678  0.0780 -0.3096
27069W        W43543   4.341  13.619   2.139 -0.0698 -0.0705  0.0102
27070W        W43544   7.201  10.738   5.066 -0.0519 -0.2989  0.2481
27071W        W43545  16.183   3.771  12.573  0.0148 -0.1846  0.1079
27072W        W43546  15.381  15.811  13.938 -0.1701 -0.2701  0.0444
27073W        W43547  15.022   1.343   1.076 -0.1023  0.1219  0.0211
27074W        W43548   1.274  11.665   1.154  0.1811 -0.2633  0.1449
27075W        W43549   5.597  18.060   0.523 -0.2377  0.0400  0.6426
27076W        W43550   9.415   4.551   0.107  0.0071 -0.2992 -0.2628
27077W        W43551  11.412   0.351   1.353  0.0017  0.3403 -0.0923
27078W        W43552   7.543   9.706  10.960  0.3751 -0.1915  0.2113
27079W        W43553  19.570  17.182  12.907 -0.4323  0.2061 -0.1033
27080W        W43554  17.568  16.255   3.369 -0.3157  0.2830 -0.2594
27081W        W43555   9.050   1.215   4.115  0.1889 -0.1980 -0.1383
27082W        W43556  10.778  11.049   5.352 -0.0516 -0.1870 -0.1334
27083W        W43557   7.579   1.954   3.727  0.2858 -0.0115  0.0887
27084W        W43558   6.327   1.600  11.781  0.1007 -0.2440  0.1512
27085W        W43559  11.929  13.742   1.581  0.2990 -0.1392  0.1774
27086W        W43560  15.407   7.493  14.708  0.0250  0.2152 -0.0136
27087W        W43561  12.092   9.304   5.890  0.0052  0.1614 -0.0929
27088W        W43562   5.221   4.885   0.239  0.1563  0.3618 -0.3936
27089W        W43563  18.685   7.459  11.458  0.3055 -0.0738  0.2958
27090W        W43564  15.436   0.401   3.035 -0.1079 -0.1032  0.0055
27091W        W43565   5.288   1.267   3.005 -0.3380 -0.0066 -0.2022
27092W        W43566   0.834   8.236   4.883 -0.0737 -0.0250  0.0314
27093W        W43567  14.035   4.239  10.412  0.0223  0.0880  0.6989
27094W        W43568   1.492   8.342  10.588  0.2268  0.0374 -0.0302
27095W        W43569  13.022   9.254  10.746  0.0902 -0.0212  0.2579
27096W        W43570   1.841   0.680   2.667  0.2564  0.1315  0.1981
27097W        W43571  13.771  13.670   4.630  0.3275 -0.1814 -0.0920
27098W        W43572  18.972  18.981  11.455  0.4904  0.0774  0.2157
27099W        W43573  14.212  11.178  14.546 -0.3092 -0.2140  0.2159
27100W        W43574  18.024  16.084  14.035  0.1576  0.0709  0.0076
27101W        W43575  13.587   6.707  13.355 -0.2988  0.1765  0.0108
27102W        W43576  17.508  17.022  14.296  0.0149  0.1268 -0.0695
27103W        W43577  12.652   9.619   4.527 -0.0324 -0.0962  0.2589
27104W        W43578   6.092   5.233  13.685  0.3209 -0.2580  0.0998
27105W        W43579  12.077  13.549  14.635 -0.2506 -0.0876  0.0227
27106W        W43580   4.752   6.935   1.937 -0.2619  0.1697  0.2399
27107W        W43581  11.275   7.481  12.249 -0.1355  0.0758 -0.3876
27108W        W43582  14.097  14.671   0.055 -0.0181 -0.1294  0.2448
27109W        W43583  14.125  15.920  10.086 -0.1943  0.2373 -0.0776
27110W        W43584   8.230  14.165  14.158 -0.0301  0.2437 -0.1129
27111W        W43585  13.936  10.292   0.506  0.2727 -0.3575  0.0912
27112W        W43586  13.929   4.791   3.521  0.0199 -0.0187  0.0681
27113W        W43587  17.289  11.531  11.386  0.3618  0.0156 -0.3332
27114W        W43588  10.897   4.282  10.713 -0.2256  0.2141 -0.2345
27115W        W43589  10.269  18.985   0.085  0.2480  0.3106 -0.1689
27116W        W43590   3.309   0.682  13.198 -0.1469  0.1316 -0.1138
27117W        W43591  12.733   3.794  14.153 -0.1361 -0.0693  0.0187
27118W        W43592   4.381  13.178   1.825 -0.1962 -0.1021  0.1011
27119W        W43593   8.832   9.344   4.540  0.2201  0.3560 -0.1522
27120W        W43594   5.111   3.208  12.877 -0.1725 -0.0501  0.0954
27121W        W43595  12.605  13.362  12.218 -0.1122 -0.1473 -0.2097
27122W        W43596   8.462  11.485   2.929  0.0422  0.1632 -0.0227
27123W        W43597   0.312  14.226   0.250  0.0669  0.1464 -0.0148
27124W        W43598   3.454  15.766   2.724 -0.3085  0.0437 -0.0084
27125W        W43599   2.167  10.866   4.178  0.1483 -0.1105  0.0422
27126W        W43600   1.391   9.784   3.448 -0.0519  0.0393  0.0541
27127W        W43601  17.899   4.052  12.885 -0.2524 -0.0152 -0.1888
27128W        W43602  13.109   3.905  13.772  0.0259  0.0195  0.0362
27129W        W43603  19.112  14.602   9.973  0.2588  0.3586  0.4424
27130W        W43604  19.547   9.531   9.733  0.1194  0.1643 -0.3659
27131W        W43605   0.845   6.733  13.974  0.2750 -0.0247 -0.1622
27132W        W43606  16.865   0.412  11.014  0.0332  0.0581  0.4515
27133W        W43607   6.272  19.353  14.081 -0.0079 -0.3279 -0.0196
27134W        W43608   1.027  18.282   3.793 -0.2582  0.0866  0.3051
27135W        W43609   8.276   5.243  13.360  0.2255 -0.0834  0.4918
27136W        W43610   3.066  16.744   2.572 -0.0079 -0.1462  0.0942
27137W        W43611   2.956  10.129   0.155 -0.3939 -0.4336 -0.1021
27138W        W43612   3.908   1.637  11.843  0.2244 -0.0597  0.2766
27139W        W43613  13.189   3.671   3.142  0.0971  0.1025  0.1900
27140W        W43614   4.661   8.677   0.539 -0.1450  0.1656 -0.2797
27141W        W43615  19.192  12.388   9.851 -0.1808  0.2638  0.0561
27142W        W43616   7.611   2.303  12.494  0.1452 -0.0114 -0.0741
27143W        W43617  12.030   2.493   0.489 -0.0464 -0.0675  0.1218
27144W        W43618  14.796  10.080   4.986 -0.2595  0.0642  0.0988
27145W        W43619  15.479  13.952   0.688 -0.1181  0.3002 -0.1218
27146W        W43620  13.242  17.159  13.632 -0.0822 -0.0283 -0.2241
27147W        W43621   5.828   4.047  10.989  0.1864  0.0767  0.0842
27148W        W43622  17.912  17.596  11.833  0.1647 -0.0896 -0.0344
27149W        W43623   2.406   7.391  12.074  0.0644 -0.1483 -0.0844
27150W        W43624  18.161   6.945   9.970  0.1242 -0.2623 -0.3325
27151W        W43625   8.436  19.018  14.079  0.3091  0.1376  0.0798
27152W        W43626   9.371  17.879   0.703 -0.0324 -0.1162 -0.2983
27153W        W43627  18.598  16.955   1.127  0.0662 -0.0619 -0.1753
27154W        W43628   6.630   9.740   2.195  0.2802  0.3415  0.1219
27155W        W43629  12.330  12.018   2.899 -0.1476  0.0140  0.1844
27156W        W43630   9.966  18.493   1.180 -0.3678 -0.0932 -0.2186
27157W        W43631   0.957  14.787   9.919 -0.1099  0.1429 -0.4203
27158W        W43632   2.954   2.804  11.362 -0.1477  0.0251 -0.0981
27159W        W43633   8.405   2.968   4.731 -0.1752 -0.0740  0.2339
27160W        W43634  13.451   1.717   1.763 -0.0354  0.2023  0.1665
27161W        W43635   2.982   2.374  11.099  0.1529  0.2893  0.0570
27162W        W43636  15.715   0.111  11.582  0.3066  0.0129  0.1617
27163W        W43637  14.271  15.013   3.157 -0.0351  0.0343  0.2000
27164W        W43638  17.491  16.703  10.495  0.1325 -0.0470  0.1064
27165W        W43639  17.290   1.619  10.853  0.2256  0.2592 -0.2792
27166W        W43640   1.055   6.129   3.316 -0.0161 -0.2256 -0.2266
27167W        W43641   9.396   6.392   1.223  0.3126 -0.1134  0.1224
27168W        W43642  17.852  11.308  12.464 -0.2969  0.0781 -0.2753
27169W        W43643  18.699  13.329   1.244  0.2911  0.1625  0.0774
27170W        W43644   3.984  11.838  10.489 -0.1625 -0.4723  0.2630
27171W        W43645  13.813   7.782  13.992  0.1661 -0.0740  0.0957
27172W        W43646   3.691  10.242   0.814  0.3764 -0.2006 -0.2499
27173W        W43647  12.126   3.473   1.682  0.3867 -0.1860  0.4397
27174W        W43648   9.576   2.653  10.892 -0.1027 -0.2034  0.3479
27175W        W43649  17.383   8.485  11.334 -0.2823 -0.0290 -0.3563
27176W        W43650  16.989   9.865   1.854  0.1891 -0.2318  0.3423
27177W        W43651  16.268  15.265   2.993 -0.2523  0.0406  0.0096
27178W        W43652  10.115   7.519   9.855  0.2969 -0.1105  0.0761
27179W        W43653   2.000  11.297  11.349  0.1932 -0.6059  0.0799
27180W        W43654   4.382  10.040   3.530 -0.1251 -0.3497 -0.2066
27181W        W43655  14.827   5.688  10.810  0.3707  0.4604  0.1064
27182W        W43656  16.867  15.326   0.400 -0.2015 -0.1994 -0.1253
27183W        W43657  15.426  16.181  12.335  0.1704  0.0521  0.1232
27184W        W43658  10.883   3.075  12.222  0.2743 -0.0641 -0.0721
27185W        W43659  10.200   0.266  13.113 -0.0254 -0.1775  0.2635
27186W        W43660  14.871   1.514   1.615  0.1976 -0.1007  0.1125
27187W        W43661   4.543  15.656  12.079  0.0984  0.0039 -0.4215
27188W        W43662   6.493  17.622  11.662  0.1524  0.3300 -0.1880
27189W        W43663   1.797   4.356   1.444  0.0943 -0.0526 -0.3333
27190W        W43664   1.487   5.385  11.336 -0.0433  0.2374 -0.3152
27191W        W43665   6.578  13.087   9.582  0.3167 -0.1908 -0.0092
27192W        W43666  16.412   2.315   1.522 -0.1633 -0.2413 -0.1499
27193W        W43667   2.678  16.147   2.500  0.3560  0.0994 -0.0009
27194W        W43668   5.921  12.075   3.817  0.0188  0.1019 -0.2676
27195W        W43669   5.806   5.853   4.301  0.4813  0.1577 -0.1341
27196W        W43670   8.721  14.870   2.168  0.2104  0.0539  0.4240
27197W        W43671  15.900   3.026   5.348  0.2135 -0.3901  0.0635
27198W        W43672  10.539   6.918   5.172 -0.3887  0.2264 -0.0675
27199W        W43673  18.251  15.944  10.950 -0.1283  0.0976 -0.3257
27200W        W43674  14.480  15.935   1.211  0.1862  0.1185  0.2600
27201W        W43675   5.205   7.107   1.486  0.2766 -0.0649 -0.3632
27202W        W43676   6.578   7.768  10.898 -0.1726 -0.1227  0.2113
27203W        W43677  19.531   8.162   3.166 -0.1505 -0.0643 -0.1432
27204W        W43678   2.815   0.300  14.057 -0.0499 -0.0731 -0.0835
27205W        W43679  13.932   2.505  11.023  0.2795  0.0635 -0.0377
27206W        W43680  14.324   5.905   0.683 -0.1683  0.0627 -0.0670
27207W        W43681  17.864   6.005  12.388  0.1391  0.0493 -0.4611
27208W        W43682  16.296   7.026   1.422  0.2150 -0.0584  0.1889
27209W        W43683  13.243  11.184  11.959 -0.2470  0.0754 -0.1748
27210W        W43684   1.482   5.184   1.094 -0.0128 -0.2760 -0.3125
27211W        W43685  18.128   0.966   1.501  0.0991  0.2385  0.1573
27212W        W43686   3.760  11.377  10.737  0.2883  0.1844 -0.1828
27213W        W43687   2.098  17.275  13.094  0.3385 -0.2430  0.2311
27214W        W43688   6.353   5.651   3.607  0.0274 -0.0594 -0.3343
27215W        W43689   0.376  18.051   4.941  0.1283  0.2155 -0.5291
27216W        W43690   5.965   5.204   4.083 -0.2281 -0.2811  0.0482
27217W        W43691   5.626   8.561  12.495 -0.1859 -0.0620  0.2430
27218W        W43692   5.336   8.048   1.925 -0.1103 -0.0234 -0.1101
27219W        W43693   6.018  14.943  12.185 -0.0057  0.2353 -0.0130
27220W        W43694  14.116   6.820   3.912  0.4598 -0.0675  0.2697
27221W        W43695  15.688   0.249   2.627  0.0956 -0.0781  0.3034
27222W        W43696   5.775   5.949  10.735  0.2967  0.2368 -0.1128
27223W        W43697   7.827   6.732  11.588  0.3186  0.4276 -0.0572
27224W        W43698   9.163  14.482  11.517 -0.1006  0.2800  0.1105
27225W        W43699  19.283   6.409   1.069  0.2770 -0.2637  0.0089
27226W        W43700  17.894  14.186   5.082  0.0251  0.0151 -0.1375
27227W        W43701  13.409   5.521  13.842 -0.1696  0.2910 -0.2562
27228W        W43702  19.390   9.305   3.187  0.0389 -0.2185 -0.1333
27229W        W43703  16.599   4.257  11.679  0.0515 -0.2456 -0.4894
27230W        W43704   2.766  18.898  12.029  0.1033 -0.1728 -0.2754
27231W        W43705  12.084   6.673   4.058 -0.0776 -0.0747  0.0471
27232W        W43706   4.727  17.539   2.306 -0.0684  0.0495  0.1499
27233W        W43707   2.049   8.894   5.111 -0.1892  0.1129  0.0578
27234W        W43708   9.701   0.331   4.773 -0.0374 -0.1692  0.1958
27235W        W43709  17.907   1.588  13.783 -0.0254  0.1154  0.2614
27236W        W43710   8.452   5.716   3.216  0.0608  0.1919 -0.2581
27237W        W43711  11.402  10.053  12.480 -0.1253 -0.0879  0.1716
27238W        W43712  11.792   7.503   4.481  0.3171 -0.1789 -0.1220
27239W        W43713   2.065   6.674  14.156 -0.0055 -0.1741 -0.0802
27240W        W43714   9.777  13.979  12.077 -0.2055 -0.1354 -0.0906
27241W        W43715  13.513   0.755   2.210 -0.1476 -0.0508  0.4542
27242W        W43716  15.145   2.189  14.439  0.3055  0.3398  0.2466
27243W        W43717   0.893   4.366   3.794  0.1909  0.1920 -0.0320
27244W        W43718   5.111  17.817   2.136 -0.3265 -0.0148  0.1081
27245W        W43719   2.251   0.958  11.905 -0.1505 -0.0997  0.0802
27246W        W43720  17.376  16.395   2.923 -0.0814  0.0041  0.3768
27247W        W43721  19.407  16.344  12.747  0.2968 -0.1710 -0.0895
27248W        W43722  18.927   1.116  10.858  0.0882  0.0505 -0.0009
27249W        W43723   8.742  12.255  12.796 -0.1072 -0.1220  0.0822
27250W        W43724  10.512  19.130  14.110 -0.0005  0.2081 -0.0389
27251W        W43725  14.556   5.295  10.351 -0.0776  0.3213  0.0108
27252W        W43726   6.261   9.549   0.667 -0.0212 -0.3077 -0.1100
27253W        W43727  18.492  17.511   1.159 -0.0707 -0.1344 -0.0844
27254W        W43728  19.375  14.043  10.623  0.2682 -0.2968  0.1069
27255W        W43729  13.963  15.753  14.078 -0.0735 -0.4591  0.5134
27256W        W43730   3.813   5.775   3.832 -0.1077  0.3474  0.2004
27257W        W43731   7.174  12.161   4.070 -0.1574  0.0262  0.1811
27258W        W43732  17.948  13.759   2.840  0.1853  0.0668  0.2105
27259W        W43733  13.285  12.120   3.776  0.1381 -0.2716  0.0732
27260W        W43734  14.273  15.426  14.207  0.1065 -0.1384  0.2203
27261W        W43735  10.145   5.056   2.414 -0.3165 -0.0628 -0.1041
27262W        W43736  12.883   4.823  13.434  0.3790 -0.2693  0.1106
27263W        W43737   4.433  16.402   2.188 -0.1041  0.2204 -0.2744
27264W        W43738   1.176   4.546   2.561  0.0890  0.2425  0.0614
27265W        W43739  11.832  16.656   3.997 -0.0898  0.0617 -0.3027
27266W        W43740  12.851  11.934  11.211 -0.2541 -0.0068  0.0100
27267W        W43741  14.012  12.410  11.849  0.0710 -0.1130 -0.1598
27268W        W43742  16.907   8.117  11.222  0.0535  0.4261  0.2159
27269W        W43743  16.033  18.049   1.945 -0.1087  0.1978 -0.1735
27270W        W43744  15.241   6.927  12.302 -0.0571 -0.0511  0.0417
27271W        W43745   0.806   5.746   2.029 -0.3089 -0.1015 -0.4745
27272W        W43746   9.717   4.481   2.338 -0.0019 -0.1297  0.3128
27273W        W43747   9.410  13.925  11.213 -0.0935 -0.1082 -0.2121
27274W        W43748  11.719  17.747   0.035  0.1841 -0.0883 -0.2196
27275W        W43749  16.113  16.947   9.714 -0.1433  0.0425  0.1727
27276W        W43750   9.551   5.212  13.743 -0.2095 -0.4301 -0.2938
27277W        W43751   0.261   3.572  12.612 -0.0341  0.0599 -0.1182
27278W        W43752  16.703   9.214   4.500  0.0705  0.1637 -0.0434
27279W        W43753  18.025   3.084  12.062  0.0073  0.1960 -0.1218
27280W        W43754   8.428  11.997   4.462 -0.0691  0.1695 -0.0016
27281W        W43755   6.436  16.421  10.508 -0.1551 -0.0665 -0.3715
27282W        W43756   5.892  18.451   9.481 -0.0649 -0.0400  0.0362
27283W        W43757  17.832   9.877  13.970 -0.4677  0.2752 -0.0772
27284W        W43758  12.524   8.278   1.848  0.1075  0.1229  0.2779
27285W        W43759   8.793  18.122   9.826  0.3769 -0.1108 -0.1608
27286W        W43760   7.970  11.333  11.538 -0.1843  0.0646  0.1818
27287W        W43761   0.998   1.517   4.110 -0.0563 -0.0623 -0.1571
27288W        W43762   5.637  11.845  11.474 -0.1388  0.0157 -0.1023
27289W        W43763  18.157  10.619  11.728  0.4244 -0.1368 -0.0017
27290W        W43764  15.549   5.480  12.111  0.1182  0.1709  0.2218
27291W        W43765   7.681   5.243   9.737 -0.2898 -0.0891  0.0669
27292W        W43766   0.801  10.676  14.068  0.0314 -0.1061  0.2371
27293W        W43767  14.022   0.494  14.580  0.0022 -0.2140  0.0123
27294W        W43768   4.749   3.742  12.257  0.1094  0.1156 -0.1296
27295W        W43769  12.065   1.490   3.100  0.1019  0.0429 -0.0888
27296W        W43770   5.113   2.564  13.505  0.0866  0.0470 -0.2304
27297W        W43771  17.095  15.923  11.483  0.0197  0.0419  0.0897
27298W        W43772   3.509   4.784  11.281  0.1558 -0.0719  0.3816
27299W        W43773  11.227   8.589   3.138 -0.2902 -0.0689  0.0523
27300W        W43774   3.220   3.272   5.319 -0.0514 -0.0404  0.1013
27301W        W43775   1.465  11.248   0.596  0.1887  0.4456 -0.1574
27302W        W43776   2.379  17.771   2.885  0.2598 -0.0043 -0.2900
27303W        W43777   3.072   0.761  14.328 -0.1959 -0.0725  0.0521
27304W        W43778   1.519  16.533  12.631 -0.0913  0.1616  0.3845
27305W        W43779   9.093  19.355  10.304  0.3207 -0.3511  0.0237
27306W        W43780   5.195  16.276   4.450 -0.0216  0.1118  0.1683
27307W        W43781  13.145  16.162  14.413 -0.1171 -0.2648 -0.0406
27308W        W43782   1.079   1.569   5.202 -0.1794  0.0154  0.3132
27309W        W43783   4.617   8.493  10.844 -0.3371  0.2149 -0.2506
27310W        W43784   6.759   5.895   1.435 -0.0022 -0.0870 -0.0147
27311W        W43785   0.913   5.677   1.144  0.1346 -0.2897 -0.0028
27312W        W43786   6.486  18.300   3.733  0.1792 -0.2070 -0.1312
27313W        W43787   4.870   6.475   2.413 -0.0078 -0.0904 -0.3921
27314W        W43788  15.766   8.391   4.443 -0.2482 -0.2549  0.3047
27315W        W43789  12.029  13.958  11.607 -0.0139  0.1251  0.1212
27316W        W43790  15.694  19.017   4.357  0.0350 -0.0089 -0.2212
27317W        W43791  14.875   4.804   5.887 -0.0249  0.1254  0.2118
27318W        W43792   9.265  12.192   3.940  0.3506  0.0269  0.0721
27319W        W43793   7.553   3.623  12.665  0.3098  0.0991  0.1041
27320W        W43794  15.323   6.168   2.880  0.2175  0.0543  0.1001
27321W        W43795   3.689   5.847   1.539  0.0881 -0.2841  0.3559
27322W        W43796  18.256   6.421  14.621  0.0574  0.1864  0.2771
27323W        W43797  11.256   8.111   1.670 -0.0576 -0.0062 -0.0607
27324W        W43798   7.738   2.186   3.176 -0.2804  0.1011 -0.2097
27325W        W43799   7.159   9.638   1.028 -0.4195 -0.2013 -0.1318
27326W        W43800  11.586  16.036  12.591 -0.1881  0.0889  0.1197
27327W        W43801  16.684  12.075   3.820  0.1190 -0.1414  0.0292
27328W        W43802   1.436   9.383  10.893  0.1097 -0.2655  0.0469
27329W        W43803  11.567  18.360  10.799  0.1588 -0.1291 -0.0272
27330W        W43804   7.622  14.678  11.281  0.2428  0.1201  0.2457
27331W        W43805   1.654   6.460  11.592  0.0085 -0.1904  0.0141
27332W        W43806  14.549   9.666   3.466  0.0726 -0.0329 -0.0454
27333W        W43807   6.571  19.361   1.056  0.1153  0.1033  0.1143
27334W        W43808   8.046   3.626  12.408  0.1557 -0.3141 -0.0936
27335W        W43809  15.041   8.672  11.330  0.4330 -0.0756 -0.1045
27336W        W43810   6.334  15.428  12.846  0.3649 -0.2722 -0.2181
27337W        W43811  15.069   1.286   3.178  0.2630 -0.0426  0.2036
27338W        W43812  11.372  11.895  13.345  0.0487  0.2856 -0.1310
27339W        W43813  12.505  11.618   1.283  0.0338 -0.1346  0.1443
27340W        W43814   1.604   6.868   3.828  0.2139  0.2241  0.1159
27341W        W43815  11.594   4.517   0.716  0.2516  0.0677  0.2581
27342W        W43816   9.120  12.370   5.326 -0.0986 -0.3704 -0.1541
27343W        W43817   6.924  11.928   3.082  0.0349 -0.0794 -0.3381
27344W        W43818   1.888   2.216  13.252  0.2714  0.0226  0.4459
27345W        W43819  13.905   7.702   6.181  0.0520  0.0561  0.1072
27346W        W43820   9.486  15.821   1.317  0.3090 -0.2986  0.0118
27347W        W43821   9.195  17.596  10.548 -0.1519  0.3237  0.2395
27348W        W43822   6.683   9.390  12.410 -0.4452  0.2170 -0.0040
27349W        W43823   0.176   7.416   4.516 -0.0455  0.1545  0.2731
27350W        W43824   4.150  18.525   2.694  0.3032 -0.3423 -0.1063
27351W        W43825   5.185   9.051  12.836 -0.0156 -0.1886  0.2955
27352W        W43826  12.563  11.396   3.026 -0.3078  0.2160  0.0417
27353W        W43827   2.052  10.725   0.045  0.0664  0.2906  0.1788
27354W        W43828   2.899   3.343  12.197 -0.1233  0.1054  0.0461
27355W        W43829  10.510  18.575   2.909 -0.3422 -0.0957 -0.6035
27356W        W43830  16.117  15.702  12.625  0.0183  0.3037 -0.0691
27357W        W43831   2.234  15.339  13.558  0.1787  0.2158 -0.1372
27358W        W43832   4.438  16.300  12.454  0.6278 -0.2699  0.2865
27359W        W43833  15.787  15.463   3.087  0.1606 -0.1112 -0.0435
27360W        W43834   4.740  15.992   2.463 -0.0732 -0.0130 -0.0226
27361W        W43835  15.913   1.653   9.608 -0.4425 -0.1302  0.0267
27362W        W43836  17.463   6.610  13.596 -0.2957  0.0830  0.0226
27363W        W43837  14.198   7.810  14.393 -0.1682  0.0796 -0.1146
27364W        W43838  12.482   4.186   3.967  0.1241  0.2030 -0.1106
27365W        W43839   5.756  14.301   3.886  0.0479  0.0271  0.5155
27366W        W43840   0.770   2.562   9.443  0.1201  0.2495 -0.2833
27367W        W43841   8.742  16.957   4.808 -0.0968 -0.0692 -0.1389
27368W        W43842   3.199   5.194   3.639 -0.0863  0.1251  0.0601
27369W        W43843   5.716   3.853   0.371 -0.0376  0.1436  0.2228
27370W        W43844  17.335  16.745  10.975 -0.2341 -0.2592 -0.0185
27371W        W43845  10.669   3.085   2.192  0.2898 -0.0104  0.1307
27372W        W43846  18.161  18.730   3.931 -0.2380  0.0338 -0.1869
27373W        W43847   3.258  10.869  13.806 -0.2630  0.1272 -0.1286
27374W        W43848  11.149  17.555  11.726  0.0210 -0.1256  0.0475
27375W        W43849  11.928  18.851   2.707 -0.1609  0.2650 -0.2145
27376W        W43850   2.226   0.967   2.746  0.0582  0.0046  0.0257
27377W        W43851  17.358   1.711   0.261 -0.0281 -0.1914 -0.1287
27378W        W43852   1.251  11.277  10.266  0.1942 -0.0166  0.4532
27379W        W43853   8.401  11.546  11.637 -0.2616 -0.0210 -0.0124
27380W        W43854  16.621   4.343   1.420 -0.3273 -0.0349  0.3057
27381W        W43855   1.190   8.940   0.527  0.4230  0.1802 -0.1812
27382W        W43856   3.771  18.891  10.462  0.0843 -0.0202 -0.1789
27383W        W43857   5.725   1.944  11.880 -0.0345 -0.1746  0.0741
27384W        W43858   3.471  18.627   4.674 -0.2351 -0.1763 -0.4576
27385W        W43859  17.821  14.847  10.501  0.2764 -0.0783 -0.0030
27386W        W43860   9.902  17.049  13.611  0.0522  0.0227  0.0085
27387W        W43861   8.949  17.222  11.891  0.0701 -0.0885  0.0802
27388W        W43862  15.951  15.274  12.407  0.2486 -0.1674 -0.0592
27389W        W43863   9.338  11.481  11.172 -0.3060  0.0059 -0.1664
27390W        W43864   4.064   1.685   0.381 -0.3913 -0.2254  0.1205
27391W        W43865  12.198   6.380   2.676 -0.3248  0.0554 -0.0182
27392W        W43866  18.538   4.196  13.702  0.0343 -0.4082  0.0336
27393W        W43867   4.507  11.769   3.902  0.0515  0.0112 -0.0898
27394W        W43868   3.894  15.472  14.115  0.1526  0.0382 -0.1228
27395W        W43869   2.839   4.889   2.528 -0.1342 -0.0861 -0.0670
27396W        W43870  11.269   6.659  13.236 -0.0812 -0.3250  0.1624
27397W        W43871  15.577   4.058  10.521  0.3226 -0.1575 -0.1551
27398W        W43872  13.078   7.756   3.811 -0.3524 -0.1243  0.0323
27399W        W43873   3.648  14.732  13.444  0.2883 -0.0398 -0.1447
27400W        W43874  19.527   1.257   5.183 -0.0486 -0.0243  0.3591
27401W        W43875  16.132   9.392   0.941  0.1320 -0.2275  0.0469
27402W        W43876  19.212  12.064   3.590 -0.3990 -0.2008 -0.1928
27403W        W43877   9.113  12.221   1.842  0.0535 -0.3537  0.1316
27404W        W43878  16.848   2.942   0.646  0.2589  0.1421 -0.0798
27405W        W43879   5.910   2.433   0.697 -0.0944  0.1772 -0.0062
27406W        W43880  12.700   1.772   1.288 -0.2904 -0.0083  0.0743
27407W        W43881  13.462  13.649   5.498  0.0917  0.0282 -0.1283
27408W        W43882  10.570  18.218   5.930 -0.1423  0.0202 -0.1589
27409W        W43883   0.052  14.517  11.518  0.0182 -0.4682  0.1516
27410W        W43884   1.726  12.701   2.559 -0.0683  0.2259  0.0750
27411W        W43885   8.036  13.466   0.038 -0.0305 -0.2698 -0.1431
27412W        W43886  17.851  10.226   4.685  0.2178  0.2343  0.1921
27413W        W43887  16.593  19.159  10.503  0.0976  0.0070 -0.0354
27414W        W43888   6.710   4.263   4.556 -0.4478  0.1830  0.0013
27415W        W43889   3.142   4.944   0.281 -0.1963  0.1100  0.0032
27416W        W43890   0.158   4.858   4.971 -0.3729  0.0080  0.1583
27417W        W43891  16.773   4.442   3.620  0.2252  0.0243 -0.4547
27418W        W43892   9.472   8.526   1.639 -0.1681  0.0983  0.0388
27419W        W43893   7.067   4.891  13.511  0.0125  0.0283 -0.1594
27420W        W43894   2.015   0.546  11.568  0.0497  0.1242 -0.1313
27421W        W43895   6.269   6.823  10.753 -0.5329 -0.0735 -0.3262
27422W        W43896   0.350   7.356  13.705 -0.1795 -0.2702 -0.2320
27423W        W43897  16.434  14.603   1.431 -0.4440 -0.0241 -0.2124
27424W        W43898  11.111   0.678  13.259 -0.3266  0.1072  0.0729
27425W        W43899   4.310   3.220  13.336  0.1012  0.0424 -0.0914
27426W        W43900   2.677  13.851  14.059 -0.1204 -0.1945 -0.2787
27427W        W43901   6.548  16.904  14.285  0.1549 -0.3046 -0.4987
27428W        W43902  12.800  18.141  12.683  0.2490 -0.3398  0.4082
27429W        W43903   6.949  13.391  12.513  0.1049 -0.1576  0.1770
27430W        W43904   0.483  13.488   4.664 -0.1362  0.0076  0.0973
27431W        W43905   5.962   5.500  10.712  0.1359  0.0610 -0.1327
27432W        W43906  15.650   4.002   2.140 -0.4245 -0.0848  0.1439
27433W        W43907   3.476   4.408   0.439  0.3445 -0.1696 -0.1253
27434W        W43908  19.418  19.247   3.469 -0.1337  0.2461  0.0780
27435W        W43909  14.158   3.141  12.430  0.0185 -0.1219  0.0248
27436W        W43910   2.892   6.375   2.912 -0.3164  0.2898 -0.0479
27437W        W43911  13.867  14.734   0.606  0.1672 -0.0932 -0.5024
27438W        W43912  11.954  10.379  11.413 -0.0506 -0.0935 -0.0669
27439W        W43913   1.392   6.758   4.829 -0.0488  0.2697  0.1629
27440W        W43914   1.539  14.881   3.965  0.1307 -0.0033  0.0645
27441W        W43915  12.412  11.400  13.394 -0.1723 -0.3680  0.0870
27442W        W43916   7.440  11.496   1.215  0.0089  0.3325  0.1168
27443W        W43917   7.196   0.884  13.538 -0.0721 -0.0490 -0.0038
27444W        W43918   5.159   4.691   1.288 -0.2896 -0.4472 -0.3879
27445W        W43919  12.817   5.163  12.466  0.0657 -0.3106 -0.0523
27446W        W43920  16.746  13.481  12.942  0.2612  0.1473  0.1047
27447W        W43921   9.153  12.018  12.919 -0.2781  0.0958  0.0801
27448W        W43922   3.511   6.136   0.584 -0.0469 -0.1727  0.0314
27449W        W43923  17.275  14.365   1.789 -0.1608  0.1612  0.3151
27450W        W43924  15.019   9.572  13.912 -0.1502  0.1556 -0.0177
27451W        W43925  16.176   3.333  12.334  0.0878 -0.0778  0.0026
27452W        W43926   8.384  16.595   2.946  0.1589 -0.2295  0.1866
27453W        W43927   2.257  14.397  13.197  0.1866 -0.0109  0.0443
27454W        W43928   1.945  15.518  14.048 -0.1296  0.2359  0.0188
27455W        W43929   5.809  10.670   3.442 -0.1018  0.0852  0.0987
27456W        W43930  10.849  13.002  14.067 -0.1103  0.3902  0.3933
27457W        W43931  10.598   4.915   5.781 -0.2593  0.1705  0.1577
27458W        W43932  13.486   0.196   3.494 -0.2082  0.3824  0.2362
27459W        W43933  17.392  18.654   2.873  0.3335 -0.2366  0.0270
27460W        W43934   4.526  12.089   1.842 -0.0448  0.0714  0.0879
27461W        W43935   7.619   3.072   3.374  0.0031  0.0794 -0.1270
27462W        W43936  16.459   7.776   4.754  0.1530 -0.0073 -0.1150
27463W        W43937  17.911  13.990   4.472  0.0769  0.0758 -0.0190
27464W        W43938  17.706  11.690  12.961  0.4097  0.1702  0.2197
27465W        W43939  11.551   5.327  12.307  0.5030  0.0113  0.0802
27466W        W43940   7.110  17.804  10.386  0.0723 -0.0615  0.1040
27467W        W43941  18.778  17.408  10.205 -0.0441 -0.1881 -0.2126
27468W        W43942  13.637  16.331  10.689 -0.4220 -0.2052 -0.1977
27469W        W43943   2.202   9.071   1.059 -0.4504 -0.0914 -0.2636
27470W        W43944  15.617  15.240   1.246  0.1946 -0.0305 -0.0539
27471W        W43945   8.477  18.549  14.304 -0.1817  0.2422 -0.0502
27472W        W43946  14.889  12.939   3.017 -0.0413 -0.0610  0.0477
27473W        W43947  18.706   9.616   3.626 -0.0994  0.0265  0.2879
27474W        W43948   5.994  19.542  10.614  0.3915  0.0315  0.1577
27475W        W43949  16.777  16.281  14.210 -0.0013  0.1344  0.0493
27476W        W43950  10.441  18.346   4.135  0.1509 -0.4559  0.4551
27477W        W43951  10.698  14.224   4.253  0.1123 -0.2048 -0.4457
27478W        W43952   0.907   2.373  12.180  0.1222 -0.1451  0.1635
27479W        W43953  14.194  17.483   3.529  0.0831 -0.3624 -0.0239
27480W        W43954   1.335   6.255  10.942  0.0709 -0.0429 -0.0883
27481W        W43955  14.343   2.714  10.063 -0.1756 -0.0127 -0.0944
27482W        W43956  15.519  16.125   2.218 -0.0082  0.1306 -0.0571
27483W        W43957   9.777   6.504   4.035 -0.0924 -0.1312 -0.1469
27484W        W43958   6.038   8.530  12.167  0.2358  0.3234  0.0588
27485W        W43959  15.608  19.531   0.020 -0.1464 -0.0447  0.2816
27486W        W43960  14.206  18.103  12.248 -0.1095  0.1795  0.2359
27487W        W43961  15.007  19.151   2.401  0.1673  0.1705  0.3460
27488W        W43962  11.803   4.658   4.981 -0.2307 -0.2391  0.2801
27489W        W43963  13.575   5.476  13.398  0.3054  0.0074  0.0158
27490W        W43964   3.358  14.046   2.622  0.0636 -0.2313  0.0297
27491W        W43965   0.674  13.059   1.181  0.2205  0.1172 -0.0133
27492W        W43966  11.141   1.852   3.894  0.0454  0.0571 -0.0414
27493W        W43967   5.695   9.212   5.310 -0.2167 -0.2684  0.0639
27494W        W43968   9.051  17.616   4.225 -0.0250  0.1199 -0.1899
27495W        W43969  17.510  18.831  11.820 -0.0548  0.2908  0.0611
27496W        W43970  10.011   6.101   3.627 -0.4674 -0.1665 -0.1197
27497W        W43971   4.013   7.581   3.747 -0.1665  0.2612  0.2423
27498W        W43972   4.683  11.680  11.867 -0.0283  0.1116 -0.3000
27499W        W43973  19.282   5.254   9.331 -0.1259 -0.2532 -0.0627
27500W        W43974  16.955   5.154  12.142  0.0950  0.1892 -0.2397
27501W        W43975   4.033  17.700  11.231 -0.2164  0.1711  0.4215
27502W        W43976  17.100   0.132   2.992  0.2933  0.2134 -0.2834
27503W        W43977   8.035  14.441   4.666  0.0588 -0.0010  0.2875
27504W        W43978  13.317  16.969   0.173 -0.1313 -0.0517  0.3074
27505W        W43979   0.741   3.121   9.886 -0.1070 -0.0298  0.2453
27506W        W43980  13.027  15.170  10.352 -0.2509 -0.1824 -0.1059
27507W        W43981   6.265   6.632   4.334  0.0576 -0.4570  0.4363
27508W        W43982   6.182  12.465   0.246  0.1395  0.1030 -0.1355
27509W        W43983  12.595   8.421  14.397  0.0894  0.0897 -0.0439
27510W        W43984  16.577  15.235   0.918 -0.0177  0.1143  0.3846
27511W        W43985   9.769  15.392  11.049  0.3160 -0.0881 -0.5207
27512W        W43986  15.004   0.471   0.199  0.1298 -0.2246  0.2796
27513W        W43987  13.763   5.741   5.506 -0.1097 -0.1001  0.0420
27514W        W43988  10.468   8.154  12.021  0.1827 -0.1631  0.1127
27515W        W43989   1.904  15.280   3.985 -0.0800 -0.4606 -0.3007
27516W        W43990  15.987  10.125  13.106 -0.0498 -0.0210 -0.0531
27517W        W43991   2.458  16.054   4.298 -0.1193 -0.1002 -0.2579
27518W        W43992  18.018   6.317   3.318 -0.3648 -0.1421 -0.3573
27519W        W43993  17.938  16.086  12.615  0.2563  0.3479 -0.2281
27520W        W43994   2.174  14.537  11.250 -0.1120  0.0793 -0.1721
27521W        W43995   0.220  12.842  12.929  0.0849  0.0103  0.1640
27522W        W43996   2.967  16.095   4.198  0.3098  0.1897  0.1083
27523W        W43997   2.740   7.504   2.627  0.0801  0.2508 -0.1240
27524W        W43998   1.684  11.010  10.277 -0.5611  0.1077 -0.2111
27525W        W43999  10.354  16.959  11.501  0.1074 -0.2104  0.3794
27526W        W44000   0.660   9.929  13.623  0.2137 -0.2833 -0.1752
27527W        W44001   9.174   3.845  14.111  0.0891 -0.1991  0.4430
27528W        W44002   8.280   8.665  12.501 -0.1314 -0.4707 -0.0887
27529W        W44003  14.490  11.687   4.014 -0.1811  0.0652 -0.0741
27530W        W44004  13.518   2.339  12.440 -0.1174 -0.1171 -0.0899
27531W        W44005  12.656   1.394  14.336 -0.3723  0.0145  0.1753
27532W        W44006  11.157  18.210   3.668 -0.0287  0.1710 -0.0415
27533W        W44007   0.406  11.785  14.394 -0.0931  0.1309 -0.1818
27534W        W44008  15.121   5.008   2.148  0.0953 -0.3625  0.1223
27535W        W44009   6.616   0.595   0.212 -0.1064  0.1136  0.3579
27536W        W44010   5.328  18.300   4.593  0.1113 -0.0520 -0.0142
27537W        W44011   5.305   9.478  13.712 -0.3775 -0.1152  0.0334
27538W        W44012   6.679   4.506   3.101  0.1899  0.0061 -0.0105
27539W        W44013  14.775  18.681   4.424  0.2013  0.2265 -0.2457
27540W        W44014  10.004   3.792  13.790  0.0715 -0.1761  0.1874
27541W        W44015  14.621   4.318  13.762  0.0856  0.0214  0.1622
27542W        W44016   9.172  14.452   0.373  0.0021  0.2377 -0.0672
27543W        W44017   7.436  10.151  12.095 -0.2688  0.3451 -0.2945
27544W        W44018  17.734   6.778  14.018  0.1813 -0.2123  0.1312
27545W        W44019   3.939  13.372   4.401 -0.5909 -0.1085 -0.4311
27546W        W44020   8.224  13.157   1.377  0.1132  0.3150  0.1427
27547W        W44021  15.914   0.280  10.783  0.0365 -0.1554 -0.2583
27548W        W44022  13.706   2.379   2.994 -0.0288 -0.3732 -0.0340
27549W        W44023  17.175   6.873  14.215  0.1460  0.3075  0.1963
27550W        W44024  15.436   2.482   0.541 -0.4482  0.5517 -0.1386
27551W        W44025  10.461   5.448   2.296 -0.1121 -0.2390 -0.2659
27552W        W44026  17.434  13.469  14.557 -0.0191  0.2512 -0.1234
27553W        W44027   6.485   6.678  11.703  0.0952  0.1653 -0.2634
27554W        W44028  12.607   3.646   1.527 -0.0507 -0.1962 -0.0653
27555W        W44029   8.773   9.530   3.673  0.3542  0.3622 -0.0906
27556W        W44030  11.149  17.559   4.080  0.0686  0.2535  0.1884
27557W        W44031  16.932  12.373   4.756 -0.2832 -0.3287 -0.1408
27558W        W44032   5.622   8.408   2.190 -0.0154 -0.1625 -0.1438
27559W        W44033   3.139   2.969  12.671  0.1821  0.0985 -0.1032
27560W        W44034   1.666   1.526   3.062 -0.2564 -0.0927  0.1375
27561W        W44035   5.266  19.487  14.023  0.2698  0.2959  0.0846
27562W        W44036  13.219  11.715  12.011  0.2863  0.0254 -0.3430
27563W        W44037  19.322   0.795  13.278  0.1867 -0.2030 -0.2769
27564W        W44038  13.571   6.870   1.375  0.2800  0.1091  0.1548
27565W        W44039   4.644   6.128  13.633 -0.0002  0.0328 -0.2001
27566W        W44040  19.185   4.927   5.757  0.1206 -0.2377 -0.1432
27567W        W44041   6.349   2.393   3.942 -0.1311  0.0684  0.2029
27568W        W44042  19.255  11.234   3.120  0.3207  0.0061 -0.3815
27569W        W44043  11.601  11.440   3.270  0.0875 -0.0130 -0.1279
27570W        W44044   4.587   6.189   0.269 -0.0960  0.0966  0.1080
27571W        W44045   2.185   1.983   4.479 -0.0573  0.2684  0.0655
27572W        W44046  12.017  12.678   2.084  0.1261 -0.4599  0.2795
27573W        W44047   7.279  16.908   0.837  0.0362  0.0375  0.1732
27574W        W44048  17.732   0.955  13.111  0.0452 -0.3805 -0.3607
27575W        W44049  18.735   9.521   5.687  0.0148  0.3759 -0.1043
27576W        W44050   8.248  14.030   0.323 -0.0702 -0.3297 -0.4599
27577W        W44051   0.673   2.817  10.290  0.0096 -0.0044 -0.1855
27578W        W44052  17.275  15.117  13.521 -0.1391  0.1099  0.1185
27579W        W44053  19.092  13.051   4.524 -0.0850  0.0280 -0.2153
27580W        W44054  13.319   7.249   4.336 -0.2009  0.0092 -0.1811
27581W        W44055   0.726  10.016  14.565 -0.0464  0.2631 -0.1985
27582W        W44056  17.882  14.525   4.559  0.0416 -0.3272 -0.2081
27583W        W44057   9.736   2.991  14.315  0.2290  0.1458 -0.4017
27584W        W44058   3.360  13.460  13.359 -0.3129  0.1239 -0.1404
27585W        W44059  12.935  19.317   0.105  0.0518  0.1678 -0.0106
27586W        W44060   9.148   9.612   5.394  0.0435 -0.2210  0.2863
27587W        W44061  12.266  10.534   1.271 -0.3488 -0.1191  0.0920
27588W        W44062  17.822  13.893   3.979 -0.1354 -0.0647  0.0033
27589W        W44063  16.177   5.768   4.511  0.1846  0.0346 -0.3737
27590W        W44064   2.478  18.791   9.732 -0.2645 -0.2271  0.0195
27591W        W44065   7.959  19.369  10.357  0.1999 -0.0902 -0.0844
27592W        W44066   8.894   5.404   4.482  0.4055  0.0918 -0.2739
27593W        W44067   5.544   4.533   1.584 -0.0395 -0.3221  0.2429
27594W        W44068  13.001   8.731  11.188  0.2261  0.2253 -0.0398
27595W        W44069   2.298  15.286  12.347 -0.0445  0.0875 -0.3310
27596W        W44070   1.603   5.011  11.826  0.0536  0.2563 -0.0122
27597W        W44071   2.938  14.145   9.363 -0.4167 -0.0250  0.2086
27598W        W44072  10.945   9.630  13.522 -0.0870 -0.1397 -0.1659
27599W        W44073  11.926  15.185   4.538  0.0904 -0.2366 -0.3140
27600W        W44074  16.594  12.523   1.586  0.0377  0.0194  0.1531
27601W        W44075  12.250  12.672   2.542  0.1158 -0.0867  0.2595
27602W        W44076  11.970  11.526   1.114 -0.2200  0.2224 -0.3368
27603W        W44077   5.729   6.150   9.925 -0.1293 -0.0099 -0.1490
27604W        W44078   9.736   7.903  12.957 -0.2303 -0.0314  0.0941
27605W        W44079  16.972  16.032   4.189  0.4846 -0.0563  0.0265
27606W        W44080   6.087   2.877   0.307  0.1898  0.2426 -0.1663
27607W        W44081  11.920  18.386   3.157  0.1254  0.0157 -0.0528
27608W        W44082  11.033  10.039  13.098  0.0694  0.1561 -0.3658
27609W        W44083   7.037  12.499  12.742 -0.0639 -0.0396 -0.2891
27610W        W44084  16.383   4.416   3.149  0.0884  0.1673  0.1389
27611W        W44085   5.596  17.401  11.974 -0.0475 -0.0958 -0.0886
27612W        W44086  19.458  18.357  10.456  0.0888 -0.0764  0.1063
27613W        W44087  10.729   0.421   0.578 -0.2864  0.0617  0.2442
27614W        W44088  11.676   9.519  11.143  0.0999  0.1207 -0.0549
27615W        W44089   3.870  17.848  10.792  0.0134 -0.3167  0.2547
27616W        W44090   5.091  13.099  10.974 -0.1584  0.1719 -0.2977
27617W        W44091  10.988  12.611  12.702  0.0201  0.0824  0.3498
27618W        W44092   3.228  13.578   3.398  0.0694 -0.0902  0.3576
27619W        W44093   7.663   9.291   0.349 -0.1011 -0.1171 -0.0074
27620W        W44094   5.365   4.461  12.367  0.2783  0.1285  0.1575
27621W        W44095   1.637   4.050   1.941  0.0845 -0.4990 -0.0870
27622W        W44096   8.459   2.771   4.290 -0.1869  0.2292 -0.1274
27623W        W44097  10.060   1.917  12.094  0.1306  0.0530  0.5190
27624W        W44098   0.503  11.432  13.332  0.2852  0.1466 -0.0289
27625W        W44099   6.773   9.776  13.740  0.2407  0.0594  0.3301
27626W        W44100  16.508  10.716   4.968 -0.1025 -0.0348 -0.1037
27627W        W44101   9.721  10.440   3.731 -0.3360 -0.1498  0.0046
27628W        W44102   9.487  14.793  13.693  0.1422  0.0069  0.2873
27629W        W44103   7.640   2.755  13.412  0.0408  0.1773 -0.3957
27630W        W44104  12.974   7.254  13.956  0.0513 -0.0201 -0.0987
27631W        W44105  16.208   8.569  11.212 -0.1269 -0.0722  0.1841
27632W        W44106  13.071  15.667   1.443  0.0569  0.1054  0.1511
27633W        W44107  14.388  15.629   2.023  0.0208 -0.1122 -0.4953
27634W        W44108   0.506   7.502   2.466  0.0043 -0.0359 -0.0129
27635W        W44109  10.772  11.971  10.594 -0.2138 -0.0842 -0.0801
27636W        W44110   8.688  19.419  11.528 -0.1885 -0.1448  0.1417
27637W        W44111  10.408   2.791  13.394  0.0284 -0.0769 -0.1122
27638W        W44112  15.039   2.180  12.550 -0.1139  0.2688  0.2873
27639W        W44113   1.157  10.349   4.175  0.1511  0.4118  0.1884
27640W        W44114  18.806   1.345   0.586  0.0796 -0.1375 -0.3104
27641W        W44115   7.726  17.884   4.929 -0.3862  0.2917 -0.2399
27642W        W44116   8.708  13.115   5.363  0.1694  0.1151 -0.2302
27643W        W44117  14.974  15.150  13.735  0.2291  0.0114 -0.1411
27644W        W44118   1.435  16.719   1.025 -0.0810 -0.3328 -0.2378
27645W        W44119   7.188   6.927   3.089  0.1262  0.1372 -0.0279
27646W        W44120  16.330   9.693  10.624  0.0283 -0.2378  0.0340
27647W        W44121  15.068   5.545  14.289  0.0875 -0.2706 -0.2503
27648W        W44122  15.204   5.768   1.238  0.0047 -0.6591 -0.0567
27649W        W44123  14.562  16.682  12.080 -0.1140 -0.0391  0.0343
27650W        W44124   5.514  10.493  12.882 -0.0079 -0.1580 -0.4907
27651W        W44125  18.819  10.676   0.507 -0.0976 -0.0593 -0.2266
27652W        W44126  10.923   6.633  14.694 -0.0267  0.3993 -0.0346
27653W        W44127   5.703   9.265   6.067  0.1881 -0.0887  0.2857
27654W        W44128  13.536  13.373  14.612  0.0512  0.1279  0.1782
27655W        W44129  12.282   9.212  13.251 -0.2934 -0.3768 -0.1269
27656W        W44130  18.559  14.675  14.609  0.2254 -0.0412 -0.2361
27657W        W44131  14.437  11.932   0.199  0.3509  0.0484 -0.0737
27658W        W44132  10.012   5.538   2.672  0.0341  0.1490  0.0044
27659W        W44133  16.831  12.508  11.458  0.2692 -0.0449  0.2166
27660W        W44134   0.189  10.233  13.282  0.3032 -0.0475 -0.0863
27661W        W44135   3.575   6.001   1.058 -0.0148  0.0183 -0.2038
27662W        W44136   2.409   9.254   3.072 -0.0068 -0.1640  0.0116
27663W        W44137   7.986  11.718  11.856 -0.0202 -0.1327 -0.0003
27664W        W44138  19.444  16.173   0.691 -0.1458  0.1118  0.3004
27665W        W44139  18.875   0.666  13.788  0.1049 -0.0010  0.0674
27666W        W44140  13.753   2.138   4.620  0.1456 -0.1069  0.1019
27667W        W44141  16.941  12.470   3.281  0.0739  0.1937 -0.5947
27668W        W44142  13.371   4.566   1.054 -0.3899  0.0735 -0.0024
27669W        W44143   3.167   2.362  10.427 -0.0578  0.3806 -0.0043
27670W        W44144  13.498   5.454  10.327 -0.0804 -0.1635  0.2101
27671W        W44145  12.202   7.977   5.026 -0.1835 -0.0141 -0.1210
27672W        W44146   3.014   4.657   1.341  0.0670 -0.1798 -0.5676
27673W        W44147   1.598  17.788  12.700  0.1431  0.1304  0.0655
27674W        W44148   3.296   1.473   4.783  0.0497  0.3282 -0.2415
27675W        W44149   5.265  11.417  14.107 -0.0007  0.1039 -0.0412
27676W        W44150  16.028   8.946   3.435 -0.0422 -0.3197 -0.3296
27677W        W44151   0.064  15.623   4.918 -0.1983  0.2364  0.1056
27678W        W44152   9.882   1.285  10.975 -0.2240 -0.0078  0.4219
27679W        W44153  18.164   1.055   4.077  0.1639  0.1819 -0.0073
27680W        W44154  12.039   7.916   4.580 -0.1413  0.1472  0.1482
27681W        W44155   1.818   1.132   1.445 -0.0354 -0.4112  0.3077
27682W        W44156  13.989   2.981  12.890  0.0213 -0.1771 -0.1371
27683W        W44157   6.850  10.695   3.304 -0.5258 -0.2209  0.2390
27684W        W44158  18.644   9.064   5.514 -0.2184 -0.1111 -0.3591
27685W        W44159   5.073  15.597   3.583  0.0611  0.1617  0.4778
27686W        W44160  13.656  15.450  13.115 -0.0778 -0.0207  0.2054
27687W        W44161   3.565   3.672  14.707 -0.0737 -0.3334  0.1288
27688W        W44162   0.846   4.889   0.096  0.1392  0.0330 -0.0088
27689W        W44163  13.487  16.844   0.741 -0.2068  0.3801 -0.0998
27690W        W44164  13.764   4.621   0.242  0.0233 -0.3628  0.1896
27691W        W44165   5.515  17.647  13.434  0.0175 -0.0362  0.1053
27692W        W44166  12.560  17.074  11.718 -0.0199  0.2102 -0.2633
27693W        W44167   0.817  12.395  12.353 -0.0362 -0.2573 -0.1375
27694W        W44168  12.556   0.394   3.091 -0.1028 -0.1198 -0.3884
27695W        W44169  19.544  11.196  13.436 -0.0369 -0.0654  0.0197
27696W        W44170   0.540  15.302   1.185  0.0542 -0.0418 -0.0756
27697W        W44171  15.594  15.373   0.747 -0.1859  0.3919  0.1430
27698W        W44172  12.443   0.422  12.071  0.0329 -0.1531  0.0364
27699W        W44173  18.714  15.599   1.698 -0.1098 -0.2552  0.0623
27700W        W44174   5.238  10.448   3.378  0.1366  0.1080  0.0002
27701W        W44175   5.944   8.376   4.298  0.0023  0.1176  0.3462
27702W        W44176   2.335  15.274  11.684 -0.0977 -0.0274  0.2517
27703W        W44177   8.461   3.290   4.369 -0.1193 -0.0412  0.0226
27704W        W44178   8.185   8.873   2.027 -0.1030 -0.0397 -0.0852
27705W        W44179  16.429   9.481   2.362 -0.0405 -0.1255 -0.0429
27706W        W44180   0.570   0.093  11.233 -0.0098 -0.0799 -0.4583
27707W        W44181  10.583  11.764  11.979  0.0660  0.1147  0.2811
27708W        W44182   8.353   8.349  12.890 -0.0502  0.1716  0.1164
27709W        W44183  18.417  13.863   1.166  0.1476  0.0783 -0.0352
27710W        W44184   9.614   1.161   1.771 -0.3019  0.3516 -0.5003
27711W        W44185   1.231   2.520   2.586  0.3326  0.1626  0.1202
27712W        W44186   1.451  17.883  12.247  0.0689 -0.0250 -0.0190
27713W        W44187  18.299   9.947   0.412  0.1924 -0.1629  0.0743
27714W        W44188  17.325   0.566   2.921  0.1314  0.1223  0.5039
27715W        W44189   4.537   3.820  12.757 -0.2125 -0.0273 -0.1768
27716W        W44190   2.144   9.850   0.005 -0.1234  0.1307 -0.0507
27717W        W44191  19.292   0.679  12.718  0.2580  0.1016  0.1944
27718W        W44192   4.578   8.955   4.103  0.0488  0.0615  0.0372
27719W        W44193  16.813  17.983   4.431 -0.1929 -0.0733 -0.0129
27720W        W44194  12.447   1.269  12.623  0.1177  0.0294  0.0367
27721W        W44195  12.842   7.603   0.113  0.3477  0.1326  0.2265
27722W        W44196   3.469  10.505  10.350 -0.0630 -0.3032 -0.1220
27723W        W44197  16.064  11.163  14.667 -0.1439  0.2181  0.0471
27724W        W44198  16.348  13.314  10.536 -0.0901 -0.0199 -0.0392
27725W        W44199   1.924  18.625  10.117 -0.0303 -0.0723 -0.2770
27726W        W44200  18.297  14.924  11.295 -0.4480 -0.1887 -0.2224
27727W        W44201  19.563   9.372  12.748  0.2863  0.0762 -0.0180
27728W        W44202  11.124   3.854   1.677  0.2764 -0.2624 -0.2953
27729W        W44203   1.676   2.643   2.346  0.0947 -0.2315 -0.0916
27730W        W44204   3.247   6.065  11.441 -0.1142  0.1685 -0.0435
27731W        W44205  16.105  10.678   4.686  0.2247  0.0026  0.2373
27732W        W44206   6.967   1.075   1.950 -0.0158  0.0440 -0.0423
27733W        W44207  11.729   0.582  13.886 -0.0362  0.2413 -0.2703
27734W        W44208   5.119  18.100   1.541 -0.0571  0.3100  0.1302
27735W        W44209   4.319  11.792   0.310  0.1699 -0.3176 -0.1620
27736W        W44210   3.138   8.820  13.356  0.0143 -0.2992  0.0375
27737W        W44211   6.304  14.094  12.292  0.2755  0.0822 -0.0051
27738W        W44212  19.139   7.761   4.268  0.2835 -0.2701  0.4421
27739W        W44213   5.643   4.618   2.100  0.1259  0.3263  0.0063
27740W        W44214   4.143  11.180   3.199  0.0881  0.0258 -0.2395
27741W        W44215   2.132   5.963  14.647  0.1026 -0.0927 -0.2125
27742W        W44216  16.870  17.962  13.350 -0.2750  0.0604 -0.0564
27743W        W44217   4.724  17.509   1.037 -0.0179 -0.2225 -0.0844
27744W        W44218   9.014  18.492   2.904  0.3387  0.1031  0.0137
27745W        W44219  15.483  14.662   4.386  0.0226 -0.0526 -0.0701
27746W        W44220  12.260  10.859  11.554  0.1779  0.2594 -0.0524
27747W        W44221   4.633   1.787  14.286 -0.1117  0.2066  0.0451
27748W        W44222   5.524   8.275  14.016 -0.1621  0.0490  0.0681
27749W        W44223  19.010   3.320  11.290  0.0547 -0.1081  0.2623
27750W        W44224  15.175  12.047   3.416 -0.3140  0.0989  0.1106
27751W        W44225   1.592  17.469  10.258 -0.0314  0.1490 -0.0361
27752W        W44226   1.698   4.917   0.195  0.1757 -0.1292  0.1529
27753W        W44227   7.537   5.528  11.408 -0.2003 -0.0788 -0.0683
27754W        W44228   4.646  17.883   3.900 -0.1404  0.2995  0.0037
27755W        W44229  11.753   1.733  14.456  0.0334  0.0367 -0.1762
27756W        W44230  19.051  10.162  12.424  0.1023 -0.0769 -0.1026
27757W        W44231   2.773  10.668   0.615 -0.0337  0.0463  0.0790
27758W        W44232   9.499   5.607   2.482 -0.0428 -0.2685  0.0538
27759W        W44233   3.179   6.666  12.017 -0.0861 -0.4521  0.0804
27760W        W44234  14.741  10.268   0.318 -0.2876  0.0309  0.5828
27761W        W44235  11.984   3.035   2.428  0.0152  0.0068  0.0179
27762W        W44236   1.831  12.765   4.829  0.2777 -0.1917  0.1654
27763W        W44237   1.518  18.843   1.218  0.2007 -0.1380  0.0708
27764W        W44238   8.555  14.902   0.836 -0.0772 -0.4310 -0.0981
27765W        W44239   5.651   1.644  14.485  0.1284  0.1564 -0.0760
27766W        W44240   9.513  15.981  12.983  0.4279  0.0623 -0.1055
27767W        W44241  15.103  11.609  14.544 -0.2028  0.1050  0.1414
27768W        W44242  17.292  16.374   4.369  0.2490  0.0960  0.2887
27769W        W44243  12.125   7.088   0.679 -0.0918  0.2229  0.1425
27770W        W44244   5.997   5.871   4.778  0.3555 -0.1788  0.2158
27771W        W44245   9.258   4.018   5.431  0.1644  0.1677  0.1057
27772W        W44246   0.943  15.844   0.915  0.0822 -0.0541 -0.0793
27773W        W44247  15.556  12.925  14.509  0.1941  0.5637  0.2012
27774W        W44248   5.939  13.127  10.825 -0.1659 -0.2122  0.1069
27775W        W44249   4.425   5.443   5.084  0.2911  0.2585 -0.1911
27776W        W44250   6.950   7.940   2.638  0.1499  0.0309  0.0709
27777W        W44251   4.890  15.657   0.321 -0.1898  0.0218 -0.1519
27778W        W44252   4.633   7.150  13.728 -0.0163  0.0658  0.0934
27779W        W44253   5.642  17.672  10.026  0.1289  0.3329 -0.0242
27780W        W44254   5.433  19.286   1.454  0.3084  0.1244 -0.0883
27781W        W44255  14.192   6.009   5.317 -0.1282 -0.1687  0.0285
27782W        W44256  11.933   4.829  11.653  0.0881  0.5516  0.0093
27783W        W44257   4.852  19.442  13.181 -0.2314 -0.0691  0.2305
27784W        W44258   0.183   1.408  10.170 -0.0488  0.2323  0.1545
27785W        W44259   2.566  18.959  11.552 -0.1818 -0.2681  0.1700
27786W        W44260   8.042  14.706   2.380  0.0869  0.1344 -0.2086
27787W        W44261  18.431   5.531   1.218  0.3495 -0.3580 -0.2022
27788W        W44262   2.908   2.499   0.105 -0.1690  0.0982 -0.0482
27789W        W44263  14.157  16.244  11.300 -0.1101 -0.4104 -0.1513
27790W        W44264  18.277  15.552   2.396  0.1373 -0.1597  0.2822
27791W        W44265  13.208   7.684   1.513  0.0572  0.1107  0.1990
27792W        W44266  14.762   3.669   4.666 -0.2840 -0.3632  0.1094
27793W        W44267  17.245  14.592   3.840 -0.2235 -0.0512 -0.0142
27794W        W44268   8.650   6.730   2.854  0.0630 -0.0898  0.2365
27795W        W44269   8.345   7.455  11.289 -0.0376 -0.0084  0.1208
27796W        W44270  16.952  17.249   3.301  0.1374  0.3402 -0.2327
27797W        W44271  17.207   8.730   0.823 -0.3330 -0.0737  0.0639
27798W        W44272   1.531   3.506  10.872 -0.3551 -0.3740 -0.0543
27799W        W44273   0.453  10.385  13.737 -0.1109  0.2439 -0.1439
27800W        W44274  12.926  17.020   1.155  0.0076  0.1212  0.2153
27801W        W44275   1.168   4.200   2.146  0.1455 -0.2030 -0.1567
27802W        W44276  16.415  13.608  14.412  0.2836 -0.0190 -0.0820
27803W        W44277   9.868  11.672   3.586  0.1096 -0.0269 -0.3486
27804W        W44278  11.359   6.845  11.788 -0.1421 -0.1233 -0.0616
27805W        W44279  16.464   2.331   4.820 -0.1066 -0.0460  0.1243
27806W        W44280  17.782   1.632   4.725 -0.2035 -0.0143  0.1707
27807W        W44281   5.719   6.099  12.120  0.1005 -0.0446 -0.2128
27808W        W44282  14.235   1.234  13.977 -0.0410 -0.3202 -0.2349
27809W        W44283  11.803   8.389   5.043 -0.0452  0.0599  0.1059
27810W        W44284   0.539   5.900  11.594  0.3253 -0.2038 -0.3247
27811W        W44285  15.266  13.641  12.968 -0.0250  0.2857 -0.3516
27812W        W44286  10.347  14.377   3.614 -0.1597 -0.1418 -0.2888
27813W        W44287  16.030  11.970   1.436  0.0231 -0.1328  0.0707
27814W        W44288   1.279  19.178   2.148  0.0247 -0.0836 -0.1798
27815W        W44289   9.225  10.437   0.997  0.2512  0.1687 -0.0610
27816W        W44290   7.351   3.766   3.469 -0.3595 -0.0422  0.1280
27817W        W44291  17.708  13.003  12.365 -0.3655 -0.1818 -0.0550
27818W        W44292  10.992   3.258   1.767 -0.1227  0.0058  0.0208
27819W        W44293  12.087  13.793   4.006  0.1172  0.1662 -0.1687
27820W        W44294   0.622   3.754   3.021 -0.1548  0.0007  0.0426
27821W        W44295  11.340   8.569   5.019 -0.0386 -0.2641 -0.2014
27822W        W44296  10.455  17.280   3.151  0.0482 -0.1739 -0.0492
27823W        W44297   0.458   0.046  10.195 -0.3486 -0.0213 -0.0760
27824W        W44298   9.842   6.497   9.972 -0.3271 -0.0327  0.2055
27825W        W44299  14.532   1.694   9.179 -0.0299  0.1262 -0.1044
27826W        W44300   0.196   1.473   1.999  0.0615  0.1779 -0.0623
27827W        W44301  13.730  14.967   1.039 -0.0832 -0.2692 -0.3957
27828W        W44302   9.616   2.016  12.319 -0.0853 -0.1441 -0.1699
27829W        W44303  15.573   3.245  11.504 -0.0841 -0.1939 -0.1042
27830W        W44304  16.790  19.254  12.528 -0.1606  0.3333 -0.0727
27831W        W44305   5.411  16.852  12.766 -0.2172 -0.1953 -0.3869
27832W        W44306   6.475   7.701   0.479 -0.3173  0.0782 -0.1125
27833W        W44307   6.906   9.176  10.684 -0.1098 -0.1552 -0.3598
27834W        W44308   8.778  16.789  10.348  0.1490 -0.1467  0.2550
27835W        W44309   9.558  13.102   0.988  0.0378  0.0289  0.2978
27836W        W44310  18.240   0.473   3.214  0.0864 -0.0159 -0.2224
27837W        W44311   2.982   7.431   1.485  0.2254 -0.4457  0.2445
27838W        W44312  10.167   9.724  12.869  0.0964 -0.1061  0.1936
27839W        W44313   5.117  16.288   2.616 -0.2800  0.0693 -0.1662
27840W        W44314  12.612   7.187   4.704  0.0085 -0.0409 -0.0525
27841W        W44315  15.162  14.384  10.854  0.2400  0.0061  0.4256
27842W        W44316   8.063   0.249   3.393 -0.2018 -0.0431  0.3950
27843W        W44317  13.791   6.348  12.652  0.2633 -0.4493 -0.1556
27844W        W44318  17.082   1.364   0.015  0.0539 -0.3791 -0.0866
27845W        W44319   1.064   6.559   1.564  0.0843  0.2099  0.2335
27846W        W44320  16.763   7.950   3.628 -0.1186 -0.0517  0.0130
27847W        W44321  19.329  14.228  11.898 -0.0845  0.0671 -0.4600
27848W        W44322   6.636  10.837  14.450  0.0315  0.2439 -0.1341
27849W        W44323   1.734  17.523  11.822  0.1706  0.0515  0.0770
27850W        W44324  18.873  19.451  11.128 -0.1144 -0.0189 -0.0780
27851W        W44325  18.837  17.753   4.090 -0.0658 -0.1603 -0.2781
27852W        W44326  16.327   8.093   3.130 -0.2131  0.1593 -0.0657
27853W        W44327   7.829  10.436  12.343  0.1252  0.0089  0.1436
27854W        W44328   9.194  15.497  12.917 -0.2757 -0.2672 -0.1716
27855W        W44329   2.076   5.201  14.408 -0.1598 -0.1475  0.0782
27856W        W44330  14.137  10.303  11.217 -0.0418  0.3809 -0.5044
27857W        W44331   1.340   4.015  12.071  0.1818 -0.0751 -0.0457
27858W        W44332  12.335   6.936  11.054 -0.2486  0.0153  0.3738
27859W        W44333   6.641   2.024  12.273 -0.0526 -0.0457  0.3702
27860W        W44334  17.959   8.208   3.280 -0.2590  0.0870  0.0483
27861W        W44335  11.058   0.888  12.261 -0.3561  0.2112 -0.3447
27862W        W44336   3.050  15.806   1.421  0.0094 -0.4235  0.1482
27863W        W44337   8.904   6.527   1.476  0.1300 -0.0162 -0.2149
27864W        W44338   9.352  17.180   1.715 -0.0872  0.1292  0.4038
27865W        W44339  14.393   6.895   0.681  0.1255 -0.3080 -0.4102
27866W        W44340   7.319  10.450  13.130  0.0647 -0.0458 -0.5002
27867W        W44341   7.849   9.170   1.911  0.0656  0.1355 -0.0121
27868W        W44342  19.534  17.353  11.145 -0.0181  0.1380 -0.0130
27869W        W44343  19.305   5.462   1.020 -0.1918 -0.0027 -0.2318
27870W        W44344   1.139   0.862  10.133  0.1902  0.0648 -0.0321
27871W        W44345   3.777  11.333   1.322  0.0269  0.3347 -0.0217
27872W        W44346  10.754   6.007  11.546  0.0195 -0.0828  0.0896
27873W        W44347   3.645   1.375   2.234 -0.0004 -0.1240  0.1505
27874W        W44348   4.900  13.603   2.402 -0.3948 -0.0734 -0.0078
27875W        W44349   2.675   9.839   0.642 -0.0546 -0.0465 -0.1026
27876W        W44350   7.410  13.512  12.620  0.3620 -0.1935  0.3317
27877W        W44351   0.414  18.809   2.296 -0.1297 -0.1308 -0.0352
27878W        W44352   5.251   3.457   4.859 -0.2297 -0.0356  0.0863
27879W        W44353   0.756  19.288   4.552 -0.0756  0.0794 -0.1044
27880W        W44354  12.354  10.479   4.640  0.2252  0.0881 -0.2946
27881W        W44355   5.779   2.739  14.302  0.1999  0.1557  0.1299
27882W        W44356   8.176  13.145   2.643 -0.2174  0.0870 -0.3613
27883W        W44357  15.606  13.470   3.145 -0.1105  0.0046  0.2747
27884W        W44358  14.183   8.642   0.322 -0.1588  0.0748  0.3121
27885W        W44359   2.308  18.030  12.104 -0.1719 -0.0036 -0.0105
27886W        W44360  16.611  15.863  14.401 -0.2647 -0.1610  0.1628
27887W        W44361  16.565  12.498  10.989  0.2593 -0.1124  0.0030
27888W        W44362  17.498   0.769   4.603  0.5564 -0.0658  0.0097
27889W        W44363   5.338  11.467   2.765  0.0309  0.2147 -0.2025
27890W        W44364   3.288   1.572   0.060  0.0472  0.1442  0.2018
27891W        W44365   7.488  19.354  11.244 -0.2857 -0.0483  0.1710
27892W        W44366   4.160   8.898  13.805  0.1329 -0.1853 -0.0039
27893W        W44367  17.961   1.297   9.717 -0.1418  0.4519 -0.0998
27894W        W44368  15.868  17.652   2.257  0.0111  0.0414 -0.1192
27895W        W44369  10.210   0.668   1.251  0.2730 -0.2041  0.1129
27896W        W44370   1.767   9.579  14.309  0.2877 -0.1156  0.0288
27897W        W44371   5.614   5.295  13.682 -0.4463 -0.1610  0.0506
27898W        W44372   5.038   9.692   4.206 -0.1222  0.0152  0.3579
27899W        W44373   3.890   0.478  13.147 -0.1091  0.2148 -0.0027
27900W        W44374   5.812  15.529  12.775 -0.0297  0.3016  0.1461
27901W        W44375  14.622  13.196   4.495 -0.1772 -0.0983 -0.2651
27902W        W44376  14.290  15.842  12.468 -0.0684  0.2461  0.1024
27903W        W44377   9.978  14.222  10.732  0.1489 -0.1163  0.0164
27904W        W44378   0.348   4.252  12.797  0.0814  0.2232  0.0658
27905W        W44379  14.800   7.321   4.945 -0.5017 -0.0894  0.0826
27906W        W44380   9.859   6.463  11.619  0.2003  0.2597  0.1413
27907W        W44381  11.154  11.674  11.449  0.0472 -0.0233 -0.1758
27908W        W44382  11.649  17.092   1.531 -0.1972 -0.0304  0.0918
27909W        W44383   7.682   3.868   3.826 -0.2390 -0.2043  0.0940
27910W        W44384   9.465   4.099   3.821  0.1584  0.0224 -0.1713
27911W        W44385   9.650   9.684   2.399 -0.0258 -0.1465  0.4650
27912W        W44386   4.298  16.509   9.665 -0.0894 -0.2420 -0.1081
27913W        W44387  11.768  15.147  14.299  0.1102  0.0752 -0.1409
27914W        W44388  10.803   6.299   2.183 -0.0033 -0.2082 -0.5957
27915W        W44389   4.471   2.791   2.788  0.3058 -0.0290  0.1751
27916W        W44390   8.026  10.687   0.896 -0.0971  0.2306  0.0322
27917W        W44391  13.854   3.399   1.134 -0.2124  0.0855 -0.1263
27918W        W44392   9.680  12.002   4.421  0.0049 -0.2818 -0.1675
27919W        W44393  19.038   8.800  13.058  0.2150  0.0238  0.1062
27920W        W44394  17.457  15.941  13.748 -0.1426 -0.1112  0.1116
27921W        W44395   1.806  11.698  13.862 -0.0553  0.1494  0.0646
27922W        W44396   2.658   3.637  11.105 -0.0190  0.3620  0.0803
27923W        W44397  18.399  13.909   2.703 -0.1048  0.1104  0.0855
27924W        W44398   6.773   0.622   2.025  0.3578 -0.0589  0.2735
27925W        W44399   1.624   9.762  11.928  0.2133 -0.0753 -0.2342
27926W        W44400  14.272  17.815   0.850  0.1225  0.2898 -0.2165
27927W        W44401  17.390  13.632   1.183 -0.0622  0.0573  0.0789
27928W        W44402   0.196   2.049  10.394  0.0960  0.0092  0.0811
27929W        W44403  18.584  17.879  10.116 -0.1246 -0.0616 -0.2155
27930W        W44404   6.064  15.659   0.166 -0.0848  0.0154 -0.0358
27931W        W44405   9.409   7.216   3.519  0.0635 -0.2088  0.0109
27932W        W44406  16.205  13.818  11.813  0.1422  0.1464 -0.1630
27933W        W44407  14.828  10.743  10.795  0.1454  0.0224  0.1444
27934W        W44408   7.937   1.539   4.378  0.0997 -0.0195 -0.0919
27935W        W44409  13.398  15.106   9.935  0.0282 -0.2895 -0.1482
27936W        W44410   2.972   8.676   3.518 -0.0151  0.2282 -0.2840
27937W        W44411  12.064   1.551   1.247 -0.2869  0.1869 -0.2089
27938W        W44412   1.871   5.453   3.031  0.2523 -0.2473  0.0251
27939W        W44413   9.409  11.852   3.526  0.0893 -0.0275 -0.3177
27940W        W44414   1.251   9.801  10.601  0.0263  0.0442  0.1529
27941W        W44415  15.257  14.791  12.291 -0.3958 -0.2215  0.0566
27942W        W44416  15.680  18.486   3.696 -0.0154  0.1167  0.1178
27943W        W44417  17.356   2.063   4.132  0.1682  0.3683 -0.1692
27944W        W44418   8.444  12.778  10.609 -0.0945 -0.3112  0.3411
27945W        W44419   1.814  11.782  11.449 -0.1046 -0.2265 -0.0322
27946W        W44420  17.834   7.986   1.402 -0.0328  0.2102 -0.0598
27947W        W44421  14.940  13.603  13.815 -0.1469 -0.0609 -0.0887
27948W        W44422  16.101   2.899   2.197 -0.2087  0.1870  0.1770
27949W        W44423   2.585  17.528  12.247 -0.1155 -0.1505  0.1274
27950W        W44424   2.076   5.693  10.797 -0.1865  0.3315  0.0073
27951W        W44425  17.910  14.719   5.040  0.0997 -0.2953 -0.0843
27952W        W44426  12.080  17.634   3.136 -0.1900 -0.2331 -0.2387
27953W        W44427  18.378   8.857  13.609  0.0269  0.1846  0.3504
27954W        W44428   7.913  19.223  12.103  0.2889 -0.2149  0.1033
27955W        W44429  15.013   6.599  10.537 -0.1151  0.2101 -0.3216
27956W        W44430   0.549   5.232   0.967 -0.4035 -0.1578  0.1455
27957W        W44431   6.767  13.348   4.272  0.3257  0.4175  0.3646
27958W        W44432   8.136  16.905   3.868  0.5852 -0.0375 -0.0969
27959W        W44433   5.772  11.439  10.371  0.1169 -0.1068 -0.1848
27960W        W44434  15.205  16.758   0.703  0.0184  0.2344 -0.0183
27961W        W44435  11.198  12.558   9.629 -0.0392 -0.1265  0.2130
27962W        W44436  14.846  14.353  11.469 -0.2252 -0.2002  0.2201
27963W        W44437  18.359   8.294   3.006  0.1106  0.1350 -0.1579
27964W        W44438   3.182   2.660  13.673  0.2450  0.3547 -0.1431
27965W        W44439  17.761  10.091   2.226 -0.0495  0.2338 -0.0415
27966W        W44440   9.258   5.062   3.244 -0.2085  0.3222 -0.1138
27967W        W44441  15.246  16.039   0.105  0.4800  0.1231 -0.0249
27968W        W44442  15.772   6.742   3.377  0.1680 -0.2632 -0.0516
27969W        W44443   6.787   8.100   1.598 -0.0952  0.0378  0.1601
27970W        W44444   6.432  14.743  10.221 -0.1171  0.2191  0.2554
27971W        W44445  11.106   6.504  10.354 -0.3066  0.1014  0.1996
27972W        W44446  13.632   3.277  12.758 -0.0800 -0.1739  0.3030
27973W        W44447  13.949   8.786   2.958 -0.1857  0.0689  0.1122
27974W        W44448   4.614  17.982   2.083  0.0416  0.3302  0.0392
27975W        W44449  18.880   4.545   1.196 -0.0581 -0.0177 -0.4903
27976W        W44450   7.485  13.860  13.135  0.0802  0.0454  0.1376
27977W        W44451  13.046  10.979  11.164 -0.1924 -0.3412  0.2344
27978W        W44452   2.836   2.211   4.052  0.5114 -0.1158  0.0700
27979W        W44453   5.699  12.437   2.388  0.2457 -0.2199  0.3232
27980W        W44454  15.120  13.406   2.222  0.0904 -0.0720  0.1607
27981W        W44455  10.784   5.259  12.656 -0.0476  0.1559  0.4286
27982W        W44456  17.700  16.639  13.449  0.1980  0.0503  0.0079
27983W        W44457   1.365   4.341   3.643 -0.0283 -0.0132 -0.1248
27984W        W44458   1.440   1.280  12.409 -0.0053 -0.0649  0.3791
27985W        W44459   1.052  14.251  12.338 -0.0518 -0.0922 -0.1336
27986W        W44460   8.854  14.856   1.255  0.0191  0.1575 -0.1753
27987W        W44461   6.432   6.369  10.624 -0.3261  0.1017  0.2331
27988W        W44462   4.539   6.074   2.622 -0.1341 -0.1406 -0.0449
27989W        W44463  17.784  19.544   1.510 -0.1891  0.0229 -0.3798
27990W        W44464  12.056  13.576  10.802  0.0264  0.1275 -0.0202
27991W        W44465  18.353  15.401   3.022 -0.2480  0.1502 -0.3068
27992W        W44466   5.061  13.893  10.050  0.0764  0.0653  0.1184
27993W        W44467   0.343  14.877   2.685  0.0831 -0.1447  0.2993
27994W        W44468   1.298  13.990   3.952 -0.0407 -0.1000 -0.1241
27995W        W44469  19.232  10.391  10.691 -0.1359  0.0557 -0.0738
27996W        W44470  19.235   9.967   4.393  0.0529  0.3329 -0.0499
27997W        W44471   8.471  17.333  14.036 -0.2609 -0.2983  0.1431
27998W        W44472   6.218  12.682   3.152  0.0162  0.1171 -0.0423
27999W        W44473  18.674   3.677  10.638  0.1076 -0.2478 -0.0451
28000W        W44474  11.220   5.867   4.318 -0.0839 -0.0254  0.1731
28001W        W44475  11.027  13.760   2.268 -0.0069 -0.1221  0.2782
28002W        W44476   3.893   5.096   3.211 -0.1718 -0.1909  0.2770
28003W        W44477   6.015  17.679  12.362  0.1063  0.0186 -0.1152
28004W        W44478   3.335  13.477  10.469 -0.0293 -0.1123 -0.3160
28005W        W44479   5.683   6.621  12.099  0.0815  0.0671  0.1673
28006W        W44480  11.191  15.384   1.930 -0.0796  0.3113  0.2580
28007W        W44481  17.015   1.458   3.411  0.2984 -0.0763 -0.0180
28008W        W44482  11.685  16.199   8.914  0.0384  0.1199  0.1648
28009W        W44483  10.708   6.986  13.818  0.1098  0.2152  0.2672
28010W        W44484  17.603  10.667  13.765 -0.2909 -0.1490  0.0203
28011W        W44485   3.104  13.686  12.325  0.2415 -0.0039  0.1104
28012W        W44486  12.506  16.838   1.320 -0.1931  0.0979  0.0491
28013W        W44487   3.659   3.865   0.502  0.0751 -0.1205  0.1608
28014W        W44488   9.807  12.880  11.849  0.1046 -0.1633  0.3773
28015W        W44489  10.688  14.377   0.770  0.1930  0.0561 -0.1081
28016W        W44490  13.609  15.291  14.162  0.2176 -0.0595  0.0072
28017W        W44491   9.759   0.163  13.366  0.4703  0.3693  0.0969
28018W        W44492   5.923  12.741   2.685  0.1740 -0.5020 -0.4621
28019W        W44493  16.471  16.051   0.707 -0.0106  0.2042 -0.0720
28020W        W44494   6.480   5.757   4.722  0.0678 -0.1380  0.1557
28021W        W44495  15.692  10.376  10.621 -0.0337  0.0012  0.1978
28022W        W44496  10.824   9.140   5.702 -0.3438 -0.3220  0.1114
28023W        W44497   5.628   4.537   5.164 -0.0801  0.2378 -0.0667
28024W        W44498   0.582   9.943   5.727 -0.1379  0.0748  0.3331
28025W        W44499  14.692   6.751   3.707  0.1143 -0.3667  0.0808
28026W        W44500  12.149   4.589  14.318  0.0199  0.0854  0.0212
28027W        W44501   5.983  16.246   2.533  0.0005 -0.1530 -0.1102
28028W        W44502  10.849  15.358  12.677  0.0935 -0.0259 -0.1335
28029W        W44503   9.553  15.137  12.912 -0.0506 -0.0234  0.1110
28030W        W44504   0.776   9.471  12.821 -0.1730 -0.0901 -0.1686
28031W        W44505   2.787   3.349   1.615  0.2707  0.2316  0.2495
28032W        W44506  11.187   5.637   4.797 -0.0599 -0.1644 -0.0181
28033W        W44507  18.566   4.619  13.990 -0.0219 -0.0479 -0.0601
28034W        W44508   2.209  11.715   0.961 -0.1969 -0.0145  0.4641
28035W        W44509   4.858   8.243   1.719 -0.0358  0.1052  0.7075
28036W        W44510   8.837  11.591   3.739 -0.0057  0.0532 -0.1950
28037W        W44511  15.385  19.305   0.912  0.2294 -0.1894 -0.2612
28038W        W44512   2.377  15.999  10.230  0.0967 -0.4736 -0.0252
28039W        W44513   2.570   4.459  12.872  0.1689  0.0022  0.2280
28040W        W44514  17.631  19.211   4.668  0.1415 -0.0894 -0.1263
28041W        W44515  17.374  10.351   3.100 -0.3388 -0.1745 -0.2983
28042W        W44516  17.407  17.185  12.892  0.2994  0.1988  0.2635
28043W        W44517   2.858   7.413   1.008  0.0874  0.1785  0.0137
28044W        W44518  17.580   6.930  11.372 -0.5503 -0.0890  0.1785
28045W        W44519  15.302  14.861   2.396  0.1302  0.0019 -0.1237
28046W        W44520  19.488   4.589  11.273 -0.1403  0.0499  0.0470
28047W        W44521   0.607   6.723   4.127  0.2082 -0.1186  0.1100
28048W        W44522   3.717   4.397   2.753  0.2958 -0.2559 -0.0790
28049W        W44523  17.540   5.743  12.778 -0.1852 -0.0216  0.3881
28050W        W44524   8.727   6.973   4.334 -0.2384 -0.1645  0.2376
28051W        W44525   9.038   2.097   1.150 -0.1891  0.0470  0.3507
28052W        W44526   9.943  10.571  12.438  0.1636 -0.0962  0.2901
28053W        W44527  15.456   2.599  10.330  0.4580  0.1710 -0.0013
28054W        W44528   6.413   3.077  12.183 -0.0567 -0.1094 -0.1204
28055W        W44529   5.730   8.502   3.288 -0.0086  0.0706 -0.4567
28056W        W44530   5.217  10.751  13.272 -0.0908 -0.1237 -0.2255
28057W        W44531   9.988   9.248   4.477 -0.0196  0.0504 -0.6195
28058W        W44532  16.682   8.097  14.525  0.2970 -0.3431 -0.0655
28059W        W44533   1.580   9.025  14.501 -0.1223 -0.2264  0.2405
28060W        W44534   2.537   0.425  12.955  0.0109  0.1241  0.1783
28061W        W44535  16.527   9.047   2.212  0.5040  0.2228  0.1974
28062W        W44536  10.049  16.715   4.414  0.2441  0.2604  0.0272
28063W        W44537  11.337   1.466   1.621 -0.3575  0.0656 -0.2001
28064W        W44538   4.817  15.496   4.609 -0.0649 -0.3134  0.1110
28065W        W44539  15.227   0.914   0.190  0.0350 -0.1120  0.0351
28066W        W44540  16.689  17.057   9.813 -0.1829 -0.0181 -0.0827
28067W        W44541   0.532   8.977  11.615  0.0800 -0.0095  0.0449
28068W        W44542  11.939  19.269  10.096  0.4391 -0.2441  0.3491
28069W        W44543  19.194   7.933   0.802 -0.0572  0.1708 -0.0387
28070W        W44544  11.824  18.237   4.325  0.3271 -0.1941 -0.0121
28071W        W44545  16.028   5.409  12.278 -0.0808  0.3187 -0.0525
28072W        W44546  18.440   0.903  12.462 -0.3441  0.0475  0.1669
28073W        W44547   1.812  12.826   3.073 -0.6693 -0.1773  0.1058
28074W        W44548  11.773   9.329  11.574  0.0894 -0.2533  0.1233
28075W        W44549  13.747  18.626   1.043  0.1320  0.1082  0.2852
28076W        W44550  16.094  10.248  11.435 -0.0051 -0.3412 -0.0965
28077W        W44551   2.498   2.592   4.094 -0.0512  0.0246 -0.0106
28078W        W44552   0.461   7.846   3.200 -0.1100 -0.2692  0.0166
28079W        W44553   5.825  11.037  11.544  0.4372  0.1574  0.1861
28080W        W44554  15.972   7.746   2.049 -0.3117  0.2778 -0.0780
28081W        W44555   5.823   5.474   2.839 -0.1784  0.0471 -0.0040
28082W        W44556   0.863   6.066  10.320  0.0323 -0.1485 -0.0156
28083W        W44557  16.276   0.751   2.889  0.1643  0.3645 -0.1994
28084W        W44558   3.875   5.031  11.559 -0.1881 -0.1241 -0.2567
28085W        W44559   3.942  16.208   2.144 -0.3448 -0.0048 -0.0251
28086W        W44560  13.792  10.029   1.394  0.1785 -0.0671 -0.2970
28087W        W44561  10.248  14.178   1.518  0.1203  0.0588  0.0163
28088W        W44562   5.266   6.890  13.285  0.0181  0.1411 -0.2507
28089W        W44563  17.000   8.481   4.721  0.0315  0.4023  0.2573
28090W        W44564  18.722  12.946   4.020  0.2363 -0.1424 -0.1962
28091W        W44565  10.449  10.024  10.833  0.1905  0.1357 -0.1212
28092W        W44566  18.895  12.601   4.719  0.1411  0.0145  0.2091
28093W        W44567   6.636   5.787   0.365 -0.0596 -0.2999  0.0092
28094W        W44568  15.327   6.582   5.331  0.3306  0.1777 -0.0251
28095W        W44569   0.124  18.019  10.751 -0.0040  0.2124 -0.0920
28096W        W44570  16.170  11.694  11.369 -0.0354  0.1707 -0.3058
28097W        W44571  17.165   3.367   0.701 -0.1169  0.3198  0.3553
28098W        W44572  11.329  14.768  10.439  0.0581  0.2487  0.1433
28099W        W44573   2.562  16.251  13.155  0.1280 -0.1002  0.0427
28100W        W44574   9.179   4.387   0.617 -0.0426 -0.0622 -0.1751
28101W        W44575  19.025  16.691   5.395 -0.0502 -0.3394  0.0450
28102W        W44576   0.311  14.012  10.739 -0.4449  0.0492  0.0656
28103W        W44577   7.268   2.839  13.728  0.0404 -0.0237  0.2828
28104W        W44578   4.587   3.663   5.308 -0.0804 -0.2552  0.2343
28105W        W44579   5.136   5.854  10.451  0.1271  0.3237 -0.4881
28106W        W44580   7.155  17.108   4.503  0.0700  0.0946  0.0333
28107W        W44581  17.175  18.398   1.347 -0.0403 -0.0269  0.0540
28108W        W44582  12.815   6.808   1.345 -0.1067 -0.5918 -0.0782
28109W        W44583  16.796   1.812  11.046  0.1097 -0.2428  0.0161
28110W        W44584  11.119  16.993  11.231 -0.0700  0.0647  0.8002
28111W        W44585   7.124   8.209  12.696 -0.0388 -0.0313  0.4008
28112W        W44586  16.230   5.008  13.230 -0.0788 -0.1524 -0.0640
28113W        W44587   6.859   9.004   0.720 -0.1089  0.1098 -0.2091
28114W        W44588   6.729  16.901  10.424  0.0078 -0.1510  0.0642
28115W        W44589   3.385   9.031  14.405  0.0123  0.0601 -0.1304
28116W        W44590  17.298   4.124  12.936 -0.1158  0.5216 -0.1830
28117W        W44591  10.981   3.295  11.142  0.3882  0.2803 -0.1302
28118W        W44592   5.427  14.493   5.074  0.0055  0.0851  0.1688
28119W        W44593   9.163  10.994   3.275  0.0674  0.1808 -0.0728
28120W        W44594   8.007   3.205  11.965  0.2309 -0.0554 -0.2563
28121W        W44595   6.929   9.660   9.788 -0.1232  0.2619  0.0328
28122W        W44596  15.488   9.046   2.666  0.3017 -0.2584  0.2540
28123W        W44597  13.524  17.401   2.914 -0.1869  0.2023  0.3563
28124W        W44598  13.122  14.384   1.854  0.2418 -0.2296  0.0999
28125W        W44599  11.205  10.002   0.528  0.1740 -0.3230 -0.1715
28126W        W44600   7.042   7.735  12.478 -0.0504  0.4261 -0.0966
28127W        W44601  17.843   7.185   0.666  0.0396 -0.1113  0.2129
28128W        W44602  15.067  16.318   5.037  0.0217 -0.2879 -0.1237
28129W        W44603  16.047   9.018  11.021  0.2133 -0.1654 -0.0769
28130W        W44604   2.542  19.154  14.212  0.1164 -0.2223  0.1786
28131W        W44605   5.670  15.382  14.716 -0.0586  0.0697 -0.1781
28132W        W44606   0.692   7.618   4.549 -0.0941  0.1112 -0.0596
28133W        W44607   7.802  17.679   2.079 -0.0646  0.1383 -0.2013
28134W        W44608  17.803  14.792   0.444  0.1707 -0.1904  0.2388
28135W        W44609   0.497   7.841  13.791 -0.0974  0.1613  0.0698
28136W        W44610  12.009   9.562   4.378 -0.0066  0.5014 -0.3811
28137W        W44611   2.342   0.435  14.520 -0.1600  0.0794 -0.1004
28138W        W44612   4.215   5.178  12.495 -0.1126  0.1339 -0.3003
28139W        W44613   9.011  16.737   2.259  0.0158  0.0159 -0.3177
28140W        W44614  10.353   2.148   3.642  0.1214  0.0425  0.0149
28141W        W44615   7.387   6.713  10.638  0.0541 -0.0810 -0.1859
28142W        W44616  13.349  11.559  13.424  0.3484  0.0691 -0.0420
28143W        W44617   3.943   9.139   2.306  0.0261  0.0549  0.1367
28144W        W44618   9.302  13.725  12.206  0.2361 -0.0811 -0.2301
28145W        W44619   6.491  12.047  11.160 -0.1025 -0.0750  0.0455
28146W        W44620   7.311   7.101   5.269  0.3274 -0.1244  0.0157
28147W        W44621   2.902  11.713  12.528  0.0497  0.0099  0.0920
28148W        W44622   6.349   7.946  13.497 -0.0122 -0.4256  0.3405
28149W        W44623   7.048  10.992  12.803  0.1830 -0.1115 -0.1493
28150W        W44624  18.838   3.784  14.167 -0.0150  0.0155 -0.1774
28151W        W44625  12.496   0.888  10.895 -0.2684 -0.0514  0.1111
28152W        W44626   3.081  15.460   2.818 -0.1623 -0.0834  0.2598
28153W        W44627  17.300   2.986   2.185  0.0467  0.0044 -0.1879
28154W        W44628   8.056   1.974   9.847  0.2584  0.0973  0.1175
28155W        W44629   5.972  12.502  13.401  0.1018  0.1931  0.4496
28156W        W44630   8.815  17.219   1.822 -0.2899  0.4215 -0.0637
28157W        W44631   1.550  18.389   1.461  0.1171 -0.2318 -0.2420
28158W        W44632  16.629  10.250  11.685  0.2777 -0.0606 -0.1909
28159W        W44633   4.885   9.672   3.367 -0.0053  0.0267  0.1373
28160W        W44634   1.072   4.509  11.121  0.1755 -0.2705 -0.0954
28161W        W44635  16.155   7.388   4.592  0.0594 -0.0143  0.2702
28162W        W44636   4.990  18.706  10.020  0.0817 -0.1894 -0.5242
28163W        W44637  18.901  19.493  14.143 -0.2917 -0.1210 -0.1661
28164W        W44638   9.453   5.936  12.373 -0.1495  0.2651 -0.0934
28165W        W44639  19.358   5.111  13.546  0.1571 -0.3167 -0.1246
28166W        W44640  12.235  18.484  11.907  0.0440 -0.2504  0.2075
28167W        W44641  17.542   8.861   1.990  0.1201  0.0152  0.0250
28168W        W44642   7.046  14.547   3.277 -0.2152  0.0638 -0.2073
28169W        W44643   7.557   5.440  14.345  0.2776 -0.2825 -0.0397
28170W        W44644  14.632  16.021   2.263  0.0220  0.1759  0.1193
28171W        W44645  14.793   6.134   4.222  0.2913 -0.1793  0.0870
28172W        W44646   1.126  12.305   1.135  0.1501 -0.0461 -0.0382
28173W        W44647   1.833   7.843  10.531 -0.1039  0.2719 -0.2035
28174W        W44648  11.860  10.409  13.907  0.1961  0.2424 -0.1533
28175W        W44649  10.870  18.202   2.834 -0.1690  0.0465  0.1214
28176W        W44650   9.374  15.438   0.435  0.1239 -0.0291 -0.1758
28177W        W44651   8.492   7.909   4.039 -0.1256 -0.3756  0.2422
28178W        W44652   7.668  13.913  14.327  0.1385 -0.1115 -0.3449
28179W        W44653   6.560  13.867   8.670 -0.1689 -0.1117 -0.0245
28180W        W44654  18.970   8.840   1.971 -0.0489  0.0350 -0.0335
28181W        W44655   8.189  13.859   2.413 -0.0061  0.3318  0.1605
28182W        W44656   1.691   6.705  13.593 -0.0676  0.2510  0.2270
28183W        W44657   6.153   8.963  11.311 -0.1628 -0.1558 -0.2575
28184W        W44658  10.950   8.876   1.048 -0.1852  0.1621  0.0431
28185W        W44659   1.194   2.351   3.034 -0.3808 -0.0295  0.2594
28186W        W44660  11.418   9.025   1.211  0.1579  0.0896  0.1418
28187W        W44661  15.181  19.148   1.496  0.0258 -0.2055  0.1956
28188W        W44662   5.830   9.970   2.280 -0.1770  0.0863 -0.1848
28189W        W44663   5.930  16.731  14.098  0.1472  0.0771 -0.1509
28190W        W44664   4.188  18.498  12.996 -0.1268 -0.2466  0.2412
28191W        W44665   3.616   8.572   9.316 -0.0922  0.0494  0.2779
28192W        W44666  18.736   1.362   3.869  0.1372  0.0251  0.1268
28193W        W44667   5.915   2.875  10.419  0.0934 -0.1132  0.1291
28194W        W44668  17.959   3.571  11.748 -0.2525 -0.0741 -0.0728
28195W        W44669   1.250   1.474  11.041 -0.3083  0.0316 -0.0266
28196W        W44670   6.549   3.641   1.040 -0.2156  0.1759 -0.2246
28197W        W44671  16.347   8.202  10.835  0.2016  0.3645  0.3307
28198W        W44672   3.992   7.980  12.464  0.1292 -0.0195  0.3912
28199W        W44673   1.589   4.330   2.577 -0.2333  0.3192 -0.3262
28200W        W44674  15.642   2.051  14.589 -0.0694 -0.1002  0.6934
28201W        W44675   5.670   9.715  13.981  0.2798 -0.0327 -0.3295
28202W        W44676  12.835  11.682   0.933  0.3930 -0.3140  0.2928
28203W        W44677   0.114  19.313  10.034 -0.0080  0.0031 -0.2660
28204W        W44678   0.316   2.202   2.660 -0.0202  0.0550 -0.1135
28205W        W44679   9.322  15.345  10.661  0.1015  0.0757  0.1995
28206W        W44680   0.863  15.146   2.716  0.2141 -0.2167 -0.0566
28207W        W44681  16.698   9.579  13.916  0.0811 -0.2621 -0.0874
28208W        W44682   4.034   5.540  10.272  0.3418  0.1950 -0.2320
28209W        W44683   6.576  12.335   3.054 -0.1085 -0.2151  0.1386
28210W        W44684  10.858  16.539  10.853  0.2086 -0.1547  0.0158
28211W        W44685   5.613  14.598  12.913 -0.0751  0.0516  0.0460
28212W        W44686  16.825   1.734  11.971 -0.0760 -0.3982 -0.2131
28213W        W44687   2.459   5.975  10.410 -0.0477  0.3201  0.2464
28214W        W44688   1.239  15.926   4.813  0.1968  0.1041  0.1376
28215W        W44689   5.013  17.675  12.375 -0.0675  0.0973  0.0763
28216W        W44690  18.568  17.453  13.360  0.3307 -0.0314 -0.2234
28217W        W44691   0.825   4.172  12.890  0.3981 -0.0212  0.2263
28218W        W44692  17.026   7.594  12.323  0.1241  0.0675  0.3105
28219W        W44693  12.190  10.940  13.669 -0.0129 -0.2348 -0.0503
28220W        W44694   1.581   6.535   1.621 -0.0419  0.0779 -0.2846
28221W        W44695  12.640  17.014  13.663  0.3402  0.1003  0.0967
28222W        W44696  13.376  16.850  11.022 -0.0692  0.0820  0.2769
28223W        W44697  10.413   7.478  11.334 -0.3754  0.0646 -0.0635
28224W        W44698   2.783  15.685   4.001  0.1600 -0.1872  0.2098
28225W        W44699   8.695  15.650  13.906 -0.2185  0.1494  0.0099
28226W        W44700   1.775  12.889  13.828 -0.1493  0.0681 -0.0967
28227W        W44701  10.122  15.051   1.025  0.0968  0.1561  0.0859
28228W        W44702   5.877  10.655   4.357  0.0523  0.2389  0.1388
28229W        W44703  17.098  18.400  13.369 -0.0361  0.0029 -0.0965
28230W        W44704  11.388   9.172   2.287 -0.1537  0.0652  0.2764
28231W        W44705  15.479  12.369   4.968  0.2259 -0.2342 -0.0363
28232W        W44706  10.843  12.966  12.085  0.1466 -0.0353  0.0648
28233W        W44707  12.939  18.978  14.392  0.0027  0.1452 -0.1116
28234W        W44708  18.662   1.077   4.604  0.0870  0.1288  0.1373
28235W        W44709   3.512  16.667  10.785 -0.0126 -0.0694 -0.1109
28236W        W44710  18.358  15.084   2.283  0.2149  0.0597 -0.2540
28237W        W44711   8.153  18.574  13.479  0.0345  0.0686  0.0544
28238W        W44712   2.466   6.073  12.013  0.3450 -0.0836 -0.0876
28239W        W44713   3.530  10.962  11.770  0.0729 -0.0717  0.2217
28240W        W44714  17.248  19.300  11.619  0.1604  0.0211  0.2581
28241W        W44715  19.015  15.611   2.058 -0.2331  0.0516  0.1447
28242W        W44716  16.207   6.231   1.849 -0.3528 -0.0549 -0.2147
28243W        W44717  12.171  10.819   5.433 -0.1640 -0.2910 -0.2970
28244W        W44718  14.906  11.378   1.511  0.0595  0.1760  0.1518
28245W        W44719  12.664  16.937   4.557 -0.0874  0.2690 -0.0305
28246W        W44720  15.834  18.269   0.867 -0.2701  0.0767 -0.1272
28247W        W44721  19.283   3.514   0.725 -0.0427 -0.1172 -0.0684
28248W        W44722  19.206   5.656   3.239  0.0322  0.2765  0.1618
28249W        W44723   8.781  10.404  12.809  0.2010 -0.2399 -0.1784
28250W        W44724  16.762   8.920   3.196  0.0250  0.0874  0.1755
28251W        W44725   2.690   5.803  12.347 -0.0220  0.4358 -0.1027
28252W        W44726   9.674  11.796   3.031  0.2208 -0.0032  0.0336
28253W        W44727  17.969   4.196   1.083 -0.0763 -0.1355 -0.4540
28254W        W44728  18.787  14.782   4.677  0.2693 -0.1919 -0.1098
28255W        W44729  16.664   4.115   0.144  0.1656  0.1828  0.0566
28256W        W44730   3.792   8.896   1.016  0.6236  0.1111  0.0287
28257W        W44731   6.886  13.656  13.827 -0.2022 -0.2702  0.0210
28258W        W44732  10.086  17.142   2.759 -0.0766  0.0127  0.2640
28259W        W44733   3.621   0.065   4.850  0.0241 -0.0942 -0.1143
28260W        W44734  17.819  17.836  11.378 -0.0264 -0.3343 -0.0610
28261W        W44735  12.500   2.294  11.068  0.2934 -0.0387  0.0879
28262W        W44736   2.803   2.072  10.234 -0.0242  0.1342  0.4296
28263W        W44737  13.054  17.094   3.097  0.0003  0.0857 -0.0321
28264W        W44738   0.065   5.770   5.245 -0.1227  0.0969  0.0622
28265W        W44739  16.165  14.656   4.416  0.2225  0.2284  0.0148
28266W        W44740  14.023  13.299  11.831 -0.1560 -0.0598 -0.1565
28267W        W44741   1.121  17.157   2.014  0.0852 -0.0405 -0.3342
28268W        W44742  13.340   2.571  14.182 -0.0670 -0.0835  0.0720
28269W        W44743   1.253   4.900   5.281  0.2277 -0.0562  0.0309
28270W        W44744   1.686  12.698  13.145  0.1071  0.0407  0.0305
28271W        W44745   0.388  18.512   9.680  0.0582  0.1248  0.0443
28272W        W44746   7.825  14.160   0.118  0.0867  0.2783  0.1481
28273W        W44747   9.276  13.021   3.384  0.0517  0.0207 -0.0308
28274W        W44748  13.764   6.505   4.034 -0.1519 -0.2131 -0.0545
28275W        W44749  17.837  19.505  10.004  0.0024  0.0263 -0.0132
28276W        W44750  11.717  14.228  12.916  0.1766 -0.2265 -0.0655
28277W        W44751   4.328   5.771   3.672  0.3710  0.1237  0.3427
28278W        W44752   0.294  17.342   2.759  0.3648  0.0296 -0.0335
28279W        W44753   7.843  16.515   3.349 -0.3190  0.1866 -0.2189
28280W        W44754  10.514  15.213  11.875  0.0902 -0.1539 -0.3865
28281W        W44755   7.422   3.455  10.272 -0.3737 -0.0224 -0.1728
28282W        W44756   2.112   9.824   5.550 -0.4350 -0.1299  0.1222
28283W        W44757   3.383  16.098   3.163 -0.1754 -0.0723  0.2625
28284W        W44758  15.736   9.286  11.307 -0.1324 -0.0678  0.1168
28285W        W44759   6.004  11.759   3.490  0.4298  0.1171 -0.0894
28286W        W44760  10.005  19.412  14.540  0.2322  0.3448  0.0932
28287W        W44761   7.262  16.796  10.726  0.3250  0.0052 -0.0435
28288W        W44762   6.011   4.826   4.971  0.0409 -0.2582  0.2475
28289W        W44763  11.238   3.538   1.185 -0.0038  0.3206  0.0427
28290W        W44764  17.701  14.019   1.679 -0.1999  0.2537  0.1609
28291W        W44765  12.914   5.112  11.675  0.0295 -0.0826 -0.0437
28292W        W44766  10.920  12.944  14.575 -0.0454  0.2017 -0.0582
28293W        W44767  12.030   2.036   0.018 -0.0618  0.0855 -0.1653
28294W        W44768  17.679   1.345  11.184 -0.1360 -0.0036  0.0388
28295W        W44769   1.973   0.805  14.303 -0.0841  0.0450 -0.1310
28296W        W44770  17.617   4.282   2.190  0.2672  0.0989  0.0327
28297W        W44771  15.122   2.168   2.233  0.0011 -0.1387  0.1820
28298W        W44772   1.781  16.196   2.762  0.0965  0.2401  0.0038
28299W        W44773   3.006   5.139   4.231 -0.3262 -0.1422 -0.2713
28300W        W44774   6.264  17.278  14.436 -0.4249  0.0822  0.0938
28301W        W44775  11.140   6.007   5.158  0.2932  0.1366 -0.1498
28302W        W44776  18.284   8.357  13.640 -0.2526  0.1988 -0.1430
28303W        W44777   1.694  13.741   3.780  0.0780 -0.0687 -0.2385
28304W        W44778   5.553  16.712   0.117  0.3229  0.2325 -0.0016
28305W        W44779   0.598  12.429  13.604  0.1873 -0.1196  0.0973
28306W        W44780  16.941   1.033   4.725 -0.1567 -0.2894 -0.0963
28307W        W44781   1.853   3.479  11.373 -0.3614 -0.1126  0.0900
28308W        W44782  12.245  15.246   0.297  0.0403  0.0777  0.1726
28309W        W44783  14.698   4.413   1.768  0.0381  0.4487  0.2537
28310W        W44784  18.356   9.526  11.798  0.0530  0.4432  0.1681
28311W        W44785   4.657  10.299  11.939 -0.2198  0.0501  0.1376
28312W        W44786   3.841  11.891  13.050 -0.1538 -0.2702  0.2626
28313W        W44787  15.427  12.239  13.874 -0.0645 -0.0030 -0.2564
28314W        W44788   8.981  11.980   0.514  0.0786  0.0948 -0.4800
28315W        W44789   4.527   8.898  11.840  0.0877 -0.0236  0.1499
28316W        W44790  14.759  14.223  14.157  0.0655 -0.2401 -0.1318
28317W        W44791   1.903   2.879   0.072 -0.1442 -0.1920 -0.0659
28318W        W44792   2.685   0.581   1.620  0.2457  0.4236 -0.2510
28319W        W44793   8.494  14.377   2.126 -0.1813 -0.0687 -0.1139
28320W        W44794   4.644   6.244  11.960 -0.1760  0.0453 -0.4694
28321W        W44795  11.420  16.928  13.306  0.0671 -0.0428  0.1847
28322W        W44796  18.438  13.878  13.025 -0.1792 -0.0398 -0.4743
28323W        W44797   7.194  16.771   3.379  0.0596 -0.1720  0.0814
28324W        W44798   2.770   4.030   1.442  0.2324 -0.0146  0.2476
28325W        W44799  16.520   0.870  11.937 -0.1605  0.0204  0.2038
28326W        W44800  14.841  17.154   0.877  0.1007 -0.2611  0.1285
28327W        W44801   6.184  14.531   3.914  0.1453 -0.1213  0.1180
28328W        W44802   7.270  16.482  12.732 -0.0734 -0.3012  0.2134
28329W        W44803  19.180  15.047  10.876  0.1295  0.0773  0.0238
28330W        W44804  10.703  19.052   0.767 -0.0331 -0.1082 -0.2338
28331W        W44805  10.870  18.852   1.705 -0.1880 -0.0216  0.0543
28332W        W44806   1.747  11.125  14.628  0.2652 -0.2277 -0.3247
28333W        W44807  14.997  10.858   5.454  0.1106 -0.0732 -0.0512
28334W        W44808  16.702   1.894   4.771 -0.0358  0.3058 -0.0088
28335W        W44809   8.183  18.192   1.026  0.0717 -0.1790  0.1199
28336W        W44810  14.918  12.242   1.762 -0.1988  0.3515  0.3271
28337W        W44811   5.954   1.585   4.482  0.1045  0.4268  0.1287
28338W        W44812   6.716  10.585   0.180  0.3065 -0.0012 -0.3172
28339W        W44813   2.552   6.956  14.269  0.2936  0.2213  0.0083
28340W        W44814  18.153  12.212   1.478  0.2214 -0.0789 -0.0542
28341W        W44815   8.670   5.592  11.376  0.2489  0.0405  0.3222
28342W        W44816  10.168  16.685  10.932  0.3594 -0.0270  0.0429
28343W        W44817   5.863  19.381   3.855  0.0830  0.0913  0.2210
28344W        W44818   6.880   3.654   3.439  0.1127  0.0124  0.1904
28345W        W44819   1.370   0.869   1.318  0.1685  0.3087 -0.2268
28346W        W44820   4.658  10.505   0.841  0.2059 -0.0435 -0.2749
28347W        W44821  10.149  11.476   1.744 -0.0850 -0.1784  0.2442
28348W        W44822  16.936   7.579   4.526  0.2072 -0.1676  0.1869
28349W        W44823  18.248  14.589   5.637 -0.0695 -0.1081 -0.2635
28350W        W44824  19.323  14.477  12.407  0.2101 -0.0552  0.0374
28351W        W44825   0.064   3.873   4.663  0.0612 -0.0880 -0.0465
28352W        W44826  16.467   0.849   9.142 -0.5744 -0.0764 -0.1264
28353W        W44827  10.256  13.281   4.065 -0.1622  0.1616  0.0558
28354W        W44828  14.845  16.752   2.453  0.2989  0.0206 -0.1583
28355W        W44829  11.910   0.249   1.802 -0.2937 -0.2208 -0.0903
28356W        W44830  11.108   7.204  11.459  0.1868 -0.0967 -0.1816
28357W        W44831  18.836  15.127   3.085 -0.3651  0.2938 -0.3536
28358W        W44832  12.713  18.319   0.489 -0.0954  0.0058 -0.1471
28359W        W44833   1.660  13.186   1.078  0.4087 -0.0145  0.0706
28360W        W44834   4.122  14.019   4.830 -0.0905 -0.1681 -0.1573
28361W        W44835   1.323  17.817   3.436  0.2585 -0.1300  0.2024
28362W        W44836   9.931   2.300  14.710 -0.2283  0.4259  0.1625
28363W        W44837  14.548   1.013   4.015  0.1455  0.0551 -0.4025
28364W        W44838  14.808   9.259   2.732  0.0450  0.1030 -0.2274
28365W        W44839  13.593   3.315   1.526 -0.0333 -0.1753 -0.0932
28366W        W44840   1.901   5.536   3.563 -0.3604 -0.1500  0.0105
28367W        W44841  13.114   8.760  13.674 -0.1233  0.1608  0.2313
28368W        W44842   9.044   2.258  11.434 -0.1585  0.0408 -0.0550
28369W        W44843   5.593   4.851  12.117  0.1340  0.2802 -0.1672
28370W        W44844  14.973  16.898  12.951 -0.1652  0.0910 -0.0153
28371W        W44845  16.459  10.788  11.717  0.1601  0.0470 -0.0231
28372W        W44846  15.092  15.166   0.620  0.1597  0.4205  0.2362
28373W        W44847   8.584   8.489   0.819 -0.0232 -0.1816 -0.1006
28374W        W44848   5.807   6.940   0.636 -0.0720  0.2463  0.2880
28375W        W44849   2.171   0.747   1.685  0.3793  0.0016  0.0370
28376W        W44850  16.035   2.997  11.539 -0.2474  0.1366 -0.0425
28377W        W44851   9.671   5.085  10.859  0.3137 -0.0665 -0.0391
28378W        W44852  16.329   6.608  10.283 -0.1616 -0.1855 -0.2117
28379W        W44853   7.090   4.684  14.585 -0.0536 -0.1340  0.0766
28380W        W44854   5.447   8.320   0.199  0.0249  0.1690  0.0738
28381W        W44855  19.294  18.118   0.744 -0.2748  0.1188 -0.0571
28382W        W44856  11.784  17.351  14.361  0.2588  0.1995 -0.1662
28383W        W44857   3.025  19.112  14.002  0.1629 -0.0184 -0.0991
28384W        W44858  17.876  10.775  13.311 -0.3005 -0.0758 -0.4491
28385W        W44859  17.337   4.499   1.256  0.0484  0.2157  0.1640
28386W        W44860  16.982  17.186   0.548  0.1558  0.0809 -0.2096
28387W        W44861   9.971   9.802   2.043 -0.0723  0.0300  0.1080
28388W        W44862   4.941  15.976  14.594  0.1367  0.0631  0.1047
28389W        W44863  11.578   7.555  13.943 -0.4274 -0.3817  0.1847
28390W        W44864   8.807  13.539  11.474 -0.0016  0.0614 -0.1213
28391W        W44865   9.742   6.889  14.109 -0.2510 -0.0281 -0.1085
28392W        W44866   0.058  11.140   0.721 -0.0846 -0.0417  0.2517
28393W        W44867   2.727  16.712   0.296 -0.2464  0.0015  0.3169
28394W        W44868   7.610  13.037  13.870  0.1612  0.3746 -0.0602
28395W        W44869   0.385  16.776   0.464  0.0510  0.0810 -0.2074
28396W        W44870   6.336   9.464  13.855 -0.0257 -0.1407 -0.0417
28397W        W44871  15.910   0.526  11.192 -0.2435 -0.1121 -0.1158
28398W        W44872  12.755   2.332   4.942 -0.1334 -0.1249  0.1536
28399W        W44873   4.600   4.725   2.500  0.2522  0.1165  0.0786
28400W        W44874  14.508   6.670   4.154 -0.2363 -0.1883 -0.2194
28401W        W44875  15.913   4.203  13.196 -0.1401 -0.1417  0.0511
28402W        W44876   0.782   1.371  10.211 -0.0792 -0.1201 -0.1987
28403W        W44877   2.267  15.854  13.420 -0.0603  0.0171  0.1427
28404W        W44878  18.884   8.643  13.580 -0.0971  0.1279 -0.0674
28405W        W44879  19.465  17.778  11.387  0.2418  0.0817  0.0037
28406W        W44880   2.689  12.296  10.717 -0.2902  0.0291  0.4263
28407W        W44881  12.911  12.934   1.821  0.0745  0.1278 -0.0670
28408W        W44882  10.768   4.478  11.778 -0.1632  0.0013 -0.0228
28409W        W44883  15.261  10.659   0.967 -0.0990  0.0158  0.2013
28410W        W44884  14.214  19.347   1.122 -0.2571  0.0889  0.3073
28411W        W44885   8.922  13.784   2.851 -0.0240  0.1097  0.0288
28412W        W44886  17.803   6.694   1.535  0.0960  0.0565  0.1142
28413W        W44887  11.238   4.281   1.922  0.2697  0.3268 -0.1081
28414W        W44888   8.676  12.908  10.143 -0.0054 -0.0377  0.1704
28415W        W44889   6.705  16.707   3.475  0.0641 -0.1926 -0.2022
28416W        W44890   9.771  13.832   1.561  0.3035  0.2676  0.0354
28417W        W44891   9.356  13.389   3.737  0.0226  0.0975 -0.0622
28418W        W44892  15.713   7.692   1.202 -0.3489 -0.1651  0.0525
28419W        W44893  14.014  15.425  10.626  0.2685 -0.1440 -0.1437
28420W        W44894   0.712   3.085  11.247  0.0470 -0.2282 -0.1155
28421W        W44895  15.705  13.923  12.036  0.1353 -0.0492  0.0837
28422W        W44896   9.457   3.605  11.003 -0.1387  0.1321 -0.0003
28423W        W44897   0.793  17.316  13.418  0.1505  0.1355  0.0223
28424W        W44898  16.581   7.110   2.072 -0.2466 -0.1983 -0.2520
28425W        W44899   2.188   8.825   0.007 -0.2188 -0.1451 -0.0870
28426W        W44900   6.881  13.576   0.932 -0.1128  0.1659  0.0006
28427W        W44901  14.345  15.416   0.808  0.1823 -0.1185 -0.0464
28428W        W44902  13.387  16.558   4.276  0.1665  0.1390 -0.0963
28429W        W44903   2.768  10.233   2.665 -0.0870 -0.0433  0.0742
28430W        W44904   6.762  16.766   4.660  0.3417 -0.1997  0.0273
28431W        W44905  14.035   3.923  12.138  0.0753 -0.2614  0.5244
28432W        W44906  16.231   3.466   2.458  0.1280  0.2263  0.1241
28433W        W44907   6.260  17.180   2.860  0.0367  0.0815 -0.0329
28434W        W44908   8.066  16.107   2.436  0.0154 -0.0388 -0.1621
28435W        W44909  17.113  13.243   1.478 -0.1720  0.3846 -0.2046
28436W        W44910  19.315   6.507  13.580 -0.0925  0.2598 -0.0118
28437W        W44911  14.248  14.107  12.144  0.3352 -0.3850  0.1652
28438W        W44912  17.576   1.463   2.617  0.0943 -0.0859 -0.0208
28439W        W44913   7.415   3.361   9.803 -0.1829  0.0118 -0.2516
28440W        W44914  18.675   7.727   0.882  0.2247 -0.0282 -0.0296
28441W        W44915   4.031  11.560   4.180  0.1473 -0.3984 -0.2666
28442W        W44916   6.531   3.938   1.805  0.2549  0.0643  0.0009
28443W        W44917  13.369  11.364  12.890  0.1987 -0.0008  0.1156
28444W        W44918   8.683  13.072   1.084 -0.2336 -0.4069 -0.3867
28445W        W44919   7.462  13.878   8.902 -0.0023  0.1097  0.0309
28446W        W44920  15.724  16.718   4.742 -0.0847  0.1082 -0.0664
28447W        W44921  15.478  12.029  13.408 -0.2075  0.1139  0.1034
28448W        W44922  19.120   4.795  10.385  0.0046  0.0195 -0.1781
28449W        W44923   6.864  13.114   1.218 -0.2305  0.1813 -0.0668
28450W        W44924  10.505   4.201   3.164 -0.0276 -0.0037  0.3497
28451W        W44925   0.365   2.505  13.852 -0.0546  0.1721 -0.0449
28452W        W44926   7.756  10.382  12.872 -0.0185  0.0827  0.1152
28453W        W44927  19.238   8.643  11.774  0.0779  0.1075 -0.0879
28454W        W44928  11.538   0.094  10.069 -0.4747  0.0968  0.0989
28455W        W44929   7.292  12.015   5.309 -0.1462  0.0303  0.2779
28456W        W44930   4.534   7.553  11.446 -0.1713 -0.1502 -0.0215
28457W        W44931   4.927  17.380   0.425  0.0366 -0.1238  0.0155
28458W        W44932  11.639   4.910   0.356 -0.2196  0.0323 -0.2346
28459W        W44933  13.560   0.598   0.430  0.0774  0.0056 -0.0568
28460W        W44934  16.561  10.215  13.073 -0.3003  0.0413 -0.2034
28461W        W44935  19.128   0.238  10.434  0.4713 -0.0061  0.0621
28462W        W44936  18.377   7.864   2.700  0.0208 -0.1835  0.2326
28463W        W44937   5.473  10.024  10.742  0.0270 -0.1739  0.2474
28464W        W44938   8.141  14.878  13.168 -0.1394  0.1059  0.0723
28465W        W44939  10.213   4.520   2.208 -0.0792  0.0671 -0.2691
28466W        W44940   3.568   6.942   3.341 -0.1156  0.0831 -0.0643
28467W        W44941   5.913  14.628  13.302 -0.0595 -0.2049 -0.0805
28468W        W44942   1.558   3.297   2.501 -0.0518 -0.2932 -0.1559
28469W        W44943   3.780  14.834   9.425  0.2495  0.0003 -0.1187
28470W        W44944   4.396  11.346   0.713  0.1272  0.0618 -0.2976
28471W        W44945   7.090  19.162   4.677 -0.0203  0.1472 -0.1710
28472W        W44946   2.954  16.495   3.973  0.0815 -0.1164 -0.0959
28473W        W44947  11.719  18.775  11.235  0.2098 -0.0486  0.1066
28474W        W44948   9.356  14.698  12.645 -0.0564  0.3752 -0.0167
28475W        W44949  17.914   2.613  10.226  0.0636 -0.1423 -0.3912
28476W        W44950   6.509   8.968  14.647  0.3545 -0.0631  0.0694
28477W        W44951   2.120   5.973   3.480  0.0981  0.0371  0.2424
28478W        W44952  10.697   3.384  12.595 -0.4403 -0.0317  0.1512
28479W        W44953  17.661  13.376   0.299  0.1494  0.2017 -0.0232
28480W        W44954  17.441   9.327   2.136 -0.0540  0.0602  0.1132
28481W        W44955   4.553   2.513   4.404 -0.2252 -0.0309  0.0337
28482W        W44956  16.892  10.194  11.296  0.0978 -0.0023 -0.0721
28483W        W44957   4.868   5.747  12.317 -0.1218  0.0480 -0.0061
28484W        W44958   9.675   5.406   3.568 -0.1985 -0.0079 -0.2404
28485W        W44959  18.428   3.799   0.905 -0.2161  0.2123  0.0916
28486W        W44960  10.460   0.892   2.062 -0.0410 -0.1265 -0.0044
28487W        W44961  16.008   0.937   3.316  0.0174  0.1519  0.0063
28488W        W44962  12.115   5.055  10.613  0.1864 -0.1169  0.1630
28489W        W44963  17.006  13.727  13.306  0.0446  0.0937  0.0796
28490W        W44964  15.959   3.897   4.606 -0.1390 -0.0561  0.0625
28491W        W44965   6.525   1.329   2.800 -0.3889 -0.1501 -0.1390
28492W        W44966   1.881   3.564  10.527 -0.0081 -0.4340  0.1118
28493W        W44967   3.795  14.584  12.848  0.0315  0.2927  0.0333
28494W        W44968  15.029   4.609   0.277  0.1829  0.0996  0.0184
28495W        W44969  13.342   0.836   4.866 -0.0173 -0.2561 -0.2395
28496W        W44970   5.766   6.394   0.506 -0.2366 -0.1039  0.1425
28497W        W44971  13.615   1.858   3.352 -0.1993  0.1006  0.0058
28498W        W44972   9.114  17.459   2.747  0.1413 -0.0098 -0.1313
28499W        W44973  18.476   8.548   1.116  0.4023  0.0984 -0.1841
28500W        W44974  17.328  16.819   0.031  0.2680  0.0705 -0.1512
28501W        W44975   0.078  16.551   2.681 -0.1442 -0.2231  0.1953
28502W        W44976  18.970   1.574   3.403  0.2186  0.0936  0.0576
28503W        W44977   9.444  18.888   8.980 -0.1310  0.4091  0.2696
28504W        W44978  10.928  15.496  11.900  0.0961 -0.0966  0.0034
28505W        W44979  13.358   1.406  11.833  0.0497 -0.1256 -0.0976
28506W        W44980  11.219   7.815   0.111  0.0437  0.0076  0.0958
28507W        W44981   6.695  13.329   2.882 -0.0526 -0.3090 -0.1182
28508W        W44982   2.581   7.015   3.373  0.0737  0.0183 -0.1875
28509W        W44983   8.082   0.808   1.982 -0.1434  0.1319 -0.2798
28510W        W44984   4.865   0.970   3.017  0.1141  0.1574  0.3215
28511W        W44985   1.468  13.342   0.587 -0.1370 -0.0151  0.0383
28512W        W44986   2.613   1.940  11.708  0.5138 -0.0617  0.3899
28513W        W44987   6.561   8.713  13.170 -0.1010  0.3987  0.0254
28514W        W44988   1.305   2.969   0.328 -0.4723 -0.1618 -0.0788
28515W        W44989  13.076  18.891  12.197 -0.1849 -0.0746  0.1742
28516W        W44990  12.691  14.193  13.902  0.1059 -0.0609 -0.2052
28517W        W44991  13.338  18.581  10.967 -0.0508 -0.2687 -0.1222
28518W        W44992   2.822  10.653   4.286  0.3982  0.0048 -0.1416
28519W        W44993  14.669   4.100   3.311  0.2669 -0.0378 -0.2526
28520W        W44994   3.831  16.684  11.329 -0.3834  0.2319  0.5184
28521W        W44995  19.322   4.392  14.465  0.1125  0.0851 -0.0883
28522W        W44996   5.658   5.628   2.372  0.1621  0.2920 -0.1845
28523W        W44997   8.749  17.236  13.137 -0.1636 -0.0347 -0.2429
28524W        W44998  17.539   6.685   0.569  0.0693 -0.0390  0.2251
28525W        W44999  13.750  17.609  14.467 -0.1356  0.0816  0.0768
28526W        W45000  18.770  11.240   4.617 -0.0017 -0.0609 -0.2276
28527W        W45001  11.704  10.005   4.258  0.0158  0.1580  0.0782
28528W        W45002  19.323   4.407  12.301  0.1993 -0.1533  0.1554
28529W        W45003   0.856  13.193   2.566 -0.2802  0.1426 -0.1525
28530W        W45004  14.384   1.499   1.858  0.3672  0.0739  0.2140
28531W        W45005   7.371   5.596   2.136  0.1608  0.3216  0.2929
28532W        W45006  17.572   2.018   3.276 -0.0675 -0.4655 -0.2043
28533W        W45007  16.038  17.771  11.982 -0.2178 -0.1736 -0.0684
28534W        W45008  12.393  10.508   0.389 -0.1934 -0.1031 -0.1970
28535W        W45009   0.799   8.026  12.982 -0.2851  0.1137 -0.1791
28536W        W45010  14.764   5.681   2.940 -0.0151  0.0536 -0.4029
28537W        W45011  15.634  17.022  14.361 -0.2183  0.0702  0.1637
28538W        W45012   2.424  19.308   0.318 -0.1451  0.0308 -0.1425
28539W        W45013  16.737  11.893   4.476  0.0869  0.1454  0.2956
28540W        W45014   8.458  18.733  10.463  0.1345 -0.0967  0.2830
28541W        W45015   0.629   5.471   2.420 -0.2841  0.0236  0.2398
28542W        W45016  13.975   9.808   5.201  0.2310  0.1854  0.0333
28543W        W45017   0.857   4.727  14.343  0.0741 -0.0331 -0.1807
28544W        W45018   9.689   2.429  13.496  0.2499  0.2523 -0.0141
28545W        W45019   0.172  11.296   4.560  0.0492 -0.1704 -0.0387
28546W        W45020   4.464  14.074   3.014  0.1135  0.2446  0.0647
28547W        W45021  18.663  16.442  13.314 -0.1060 -0.1032  0.4192
28548W        W45022   8.807  11.862  10.488 -0.5232 -0.1286  0.1128
28549W        W45023   5.096   6.996  13.843 -0.0096  0.0972  0.0903
28550W        W45024   4.121   3.801   3.563  0.0902 -0.5819 -0.0361
28551W        W45025  14.527   8.238  13.569  0.0823  0.0554 -0.1156
28552W        W45026   4.168   7.561   2.223  0.2452  0.1218  0.1585
28553W        W45027   3.887  17.890   0.785  0.2187 -0.0797  0.1573
28554W        W45028  18.505   2.302   2.480  0.1186 -0.2303  0.0420
28555W        W45029   1.752  10.859  11.094  0.0299 -0.2450  0.1929
28556W        W45030   9.069   2.871  13.055  0.3624  0.1374  0.0892
28557W        W45031  12.048  14.098   2.464  0.0376 -0.0525  0.0854
28558W        W45032   8.540   8.731   1.253  0.3397  0.2116  0.1967
28559W        W45033   1.018  18.895  11.679  0.0527 -0.2926  0.0391
28560W        W45034  17.868  16.294   0.913 -0.1872  0.0352  0.3195
28561W        W45035   7.327  13.196  12.205  0.0147  0.0446  0.0753
28562W        W45036  16.544  10.360   3.080  0.0515  0.0269 -0.0476
28563W        W45037  11.341   2.908  10.406  0.0012  0.0296  0.0341
28564W        W45038  11.336  15.320  11.723  0.2315  0.0910  0.0642
28565W        W45039   4.619  19.442  12.725  0.2590 -0.2718  0.0026
28566W        W45040   8.358   6.993   2.078 -0.0543 -0.0913 -0.2373
28567W        W45041   8.171  15.836   4.035 -0.2882  0.0160  0.1969
28568W        W45042  16.031   1.170  13.929  0.0875 -0.0320 -0.0138
28569W        W45043   6.043  18.820  12.572 -0.2320  0.1520  0.2721
28570W        W45044  11.891  10.739  10.735 -0.0246  0.0439 -0.1635
28571W        W45045  18.136   5.888  11.291 -0.2587  0.0714  0.3981
28572W        W45046  12.467  14.025  11.694  0.0655 -0.2699 -0.0571
28573W        W45047   8.134  17.581   2.500  0.1443 -0.0200  0.1647
28574W        W45048  15.464   9.190  14.622 -0.2071 -0.0529  0.0497
28575W        W45049  17.693  17.748   4.982  0.0593 -0.0085 -0.0968
28576W        W45050  12.919   5.818   0.420 -0.0053  0.0972 -0.0286
28577W        W45051  16.340   4.432  12.558 -0.0150  0.1727  0.1242
28578W        W45052  15.101   3.522  11.691 -0.1456 -0.0254 -0.1392
28579W        W45053   4.745  18.144  11.986 -0.1304  0.0799 -0.1718
28580W        W45054   5.229  14.228   1.220 -0.2165 -0.0571 -0.1449
28581W        W45055   1.416   2.776  12.554  0.2006  0.0181  0.0087
28582W        W45056   2.515  15.737   2.249  0.0658  0.1407 -0.0506
28583W        W45057  11.784   0.248   0.377 -0.0174 -0.0194 -0.0086
28584W        W45058   8.064   5.388   5.081  0.3057 -0.0297 -0.2487
28585W        W45059  13.308   2.071   2.946 -0.0868  0.2472  0.3515
28586W        W45060   9.623   9.816   1.663 -0.2143 -0.0630  0.1089
28587W        W45061   8.093   4.956   3.402 -0.1662  0.1522 -0.2163
28588W        W45062   3.853   3.217   4.387  0.1202  0.2035 -0.2536
28589W        W45063   8.043   1.959   1.402 -0.3309  0.2127  0.2614
28590W        W45064  13.772   4.176  13.510 -0.0989 -0.0015 -0.2156
28591W        W45065   9.651   9.970  12.123  0.1047 -0.2520 -0.0026
28592W        W45066   4.421   3.147  10.669  0.1130  0.0084 -0.0697
28593W        W45067  13.333   9.896   1.378 -0.1746 -0.1338  0.0126
28594W        W45068   1.465   9.209  13.189  0.2160 -0.0916  0.1126
28595W        W45069  12.782  16.529  12.306  0.0851  0.2553  0.1034
28596W        W45070  13.857  14.118  11.832  0.0138  0.1648  0.0860
28597W        W45071   5.165  11.877   3.132  0.0266  0.0319 -0.1358
28598W        W45072   4.762  18.783   2.430 -0.0939  0.0322  0.2688
28599W        W45073   2.500   3.314   4.537  0.0481 -0.2310  0.0144
28600W        W45074   4.307   6.716   1.796 -0.0174 -0.1065 -0.0468
28601W        W45075  12.605   5.423   0.571 -0.2253  0.1676  0.1035
28602W        W45076  10.535   1.137  14.042  0.0413  0.2565 -0.2596
28603W        W45077  16.865   7.613  12.786  0.1092 -0.1336  0.1784
28604W        W45078   5.079  18.247  14.126 -0.1871  0.1160 -0.1649
28605W        W45079   4.750   2.833  10.989  0.2235 -0.0525  0.2094
28606W        W45080  18.367   1.756  14.557 -0.1590 -0.1129 -0.1845
28607W        W45081  18.374  11.082   9.939 -0.0302 -0.2458  0.3077
28608W        W45082  15.971   3.748  13.586  0.2962 -0.1794  0.0368
28609W        W45083  15.465  16.801  10.933  0.0070 -0.0110 -0.0317
28610W        W45084   5.225   0.133  11.184  0.2896  0.2078 -0.0527
28611W        W45085   3.416  17.418  10.048 -0.0090 -0.0812 -0.2515
28612W        W45086   2.752   6.671   0.804 -0.2274 -0.0195 -0.0657
28613W        W45087   0.691   2.240   1.437  0.3791 -0.1103  0.3469
28614W        W45088   4.551   2.069  12.916  0.0407 -0.1563 -0.2744
28615W        W45089   5.613  11.258   0.902 -0.1646  0.3243  0.3912
28616W        W45090   1.411   3.568   3.504 -0.1232 -0.2107 -0.0077
28617W        W45091  15.317   0.555   2.515  0.2469 -0.1908 -0.1573
28618W        W45092  14.998   8.026  12.564 -0.0705  0.1823 -0.0294
28619W        W45093  19.479  16.233  10.675 -0.3010 -0.0154  0.2404
28620W        W45094   3.212   7.070   4.726 -0.0234 -0.1486  0.1496
28621W        W45095  12.007   6.891   2.293 -0.0059 -0.0133  0.2518
28622W        W45096  17.225  18.377   4.513 -0.3482 -0.0800  0.1579
28623W        W45097   0.656   0.665  13.718  0.2826 -0.3741  0.0906
28624W        W45098  16.157  15.452   4.973  0.1390  0.2293  0.3558
28625W        W45099  15.687  19.221  10.346 -0.0516 -0.0255 -0.2253
28626W        W45100  18.412  13.634   1.662 -0.0458  0.0883 -0.1081
28627W        W45101  17.679  12.171  13.266 -0.3141  0.0965  0.3803
28628W        W45102   1.049   4.770   2.965 -0.2978 -0.1297 -0.1793
28629W        W45103   6.891  15.500  10.254 -0.1676 -0.1780  0.2705
28630W        W45104   0.172   5.893  13.195  0.0956 -0.1641  0.2058
28631W        W45105   9.777  19.070  11.620 -0.3998  0.0943  0.1347
28632W        W45106   9.590   3.063  13.064 -0.0370  0.2248  0.2634
28633W        W45107   1.075  17.993  12.563  0.2415 -0.0146  0.1918
28634W        W45108  16.872   2.515   1.648 -0.1361 -0.0258 -0.1839
28635W        W45109  16.034  14.513  10.618  0.1386  0.3524  0.0875
28636W        W45110  18.932  13.984  13.895 -0.1294  0.0066  0.0517
28637W        W45111  10.475  12.226  13.473  0.0645 -0.1585 -0.2343
28638W        W45112   3.166   4.127   1.239  0.3177 -0.0195  0.1294
28639W        W45113  11.470  15.311  10.785 -0.1915 -0.0966  0.2250
28640W        W45114  16.416  12.429  12.931  0.0032 -0.2462 -0.2480
28641W        W45115   1.976   3.869   1.657 -0.2147 -0.1305 -0.1392
28642W        W45116  12.551   5.053   3.463  0.1414 -0.3114  0.1293
28643W        W45117   1.249   1.970   1.423  0.2802 -0.1929 -0.2330
28644W        W45118  11.943  13.733   0.459  0.1534  0.0355  0.1016
28645W        W45119   9.224  13.333  14.536  0.5145  0.1090  0.0571
28646W        W45120  18.401   0.929   0.407  0.3279  0.0920  0.1476
28647W        W45121   2.452  12.165   2.273 -0.0620  0.3381  0.1603
28648W        W45122   4.532  13.030   1.237 -0.1203  0.0737  0.0213
28649W        W45123  16.862   2.328   0.662  0.2924 -0.1487 -0.0695
28650W        W45124   9.420   0.250  11.687 -0.2076  0.0601  0.0535
28651W        W45125   6.639  17.228   4.423 -0.1215  0.1682  0.3178
28652W        W45126   0.628  13.149  12.888 -0.1302 -0.0685 -0.2247
28653W        W45127  13.403   5.289  11.246  0.2746  0.1363  0.2512
28654W        W45128   7.983   5.056  12.701 -0.0158  0.0844 -0.4163
28655W        W45129  16.245  10.490   4.105 -0.0052  0.0928  0.0094
28656W        W45130   3.301   5.929  12.528 -0.3216 -0.1756 -0.1028
28657W        W45131  12.914  12.823   4.873  0.3249 -0.0914  0.0722
28658W        W45132  17.263  12.784   4.760  0.0230 -0.2814  0.0551
28659W        W45133   7.466   2.462   0.982  0.0027 -0.4306 -0.0870
28660W        W45134   5.195   3.681   2.546  0.2200  0.0418 -0.0493
28661W        W45135  12.689   4.624  11.575 -0.1285  0.2188 -0.0274
28662W        W45136  16.209   5.928   0.282  0.3195 -0.2703 -0.1584
28663W        W45137  16.157  13.053   1.244 -0.1292 -0.2224  0.2622
28664W        W45138   5.099   3.614   0.760  0.2595 -0.1400  0.2107
28665W        W45139   8.365  17.635  13.182  0.0275 -0.0882  0.1924
28666W        W45140  18.145  14.136   0.840 -0.1814 -0.2340  0.4242
28667W        W45141   0.052   8.161  11.173  0.2084 -0.3461 -0.0947
28668W        W45142   2.856   0.585   9.447 -0.2242  0.0789 -0.1068
28669W        W45143  19.229  17.659  10.533  0.1100 -0.0130  0.0673
28670W        W45144  18.109  12.756   3.430 -0.0047  0.0317 -0.1700
28671W        W45145   2.692   9.698   9.048 -0.2955  0.0910  0.1677
28672W        W45146  19.187   8.431   4.817  0.1833  0.0301 -0.1663
28673W        W45147   0.804   8.596   3.896  0.0716  0.3256  0.2384
28674W        W45148   2.776  19.321   2.348 -0.1257 -0.2103  0.0107
28675W        W45149   5.721   1.977  13.538 -0.0373  0.1903 -0.0282
28676W        W45150  13.150   5.350  13.128 -0.0278 -0.2068  0.1009
28677W        W45151  17.008  11.599   3.734 -0.3330 -0.1856  0.5971
28678W        W45152  16.535   8.956   0.129  0.0716 -0.0488 -0.0107
28679W        W45153   9.396  17.887   1.276  0.3798 -0.0855 -0.0388
28680W        W45154   8.411   3.749  14.357 -0.3857 -0.1608 -0.2705
28681W        W45155  11.885   7.089   3.661 -0.2070  0.2271  0.0099
28682W        W45156  17.895  16.057  14.581 -0.3134 -0.0117  0.3202
28683W        W45157   5.532  17.450   2.991 -0.1507  0.0161  0.0081
28684W        W45158   8.852  19.391  13.698 -0.1740  0.0035  0.3091
28685W        W45159   1.739   4.488  11.134  0.0526  0.0432 -0.0197
28686W        W45160  11.737   3.996   0.466  0.0436 -0.0714  0.2336
28687W        W45161   3.790   5.071  10.287  0.0961 -0.0669  0.1505
28688W        W45162  12.711   0.173   2.544 -0.0865 -0.4624 -0.1299
28689W        W45163  16.051  12.251   0.253  0.0504  0.2792  0.1895
28690W        W45164  15.178   9.834  13.524  0.1552 -0.0523 -0.0775
28691W        W45165   9.987  12.705   0.933 -0.0349  0.1085  0.2177
28692W        W45166   1.310  19.261  11.184 -0.0706  0.2483  0.1596
28693W        W45167  16.271   3.320  13.363 -0.1398 -0.5818  0.2687
28694W        W45168  11.531   4.591   3.004  0.2121 -0.5178 -0.0872
28695W        W45169  10.532  12.764  13.197 -0.2435  0.3285 -0.0685
28696W        W45170  16.314  15.547   3.521  0.2281  0.0847 -0.0378
28697W        W45171   6.538  18.439   4.231  0.0227 -0.0090 -0.0692
28698W        W45172  14.216  12.970   4.659 -0.3698  0.0514  0.3220
28699W        W45173   6.518  14.284  10.348  0.0055 -0.1847 -0.1343
28700W        W45174  10.713  15.599   2.287  0.0783  0.0831  0.1765
28701W        W45175   7.245  13.159  10.423 -0.0923  0.0701  0.2490
28702W        W45176   4.372   1.774   4.747  0.0675 -0.2969  0.2731
28703W        W45177   3.865   3.096   3.111 -0.0259  0.0327 -0.1485
28704W        W45178   5.462  18.650   2.336 -0.4162 -0.1771  0.2412
28705W        W45179  14.790  17.043  10.317  0.0574 -0.1775 -0.0468
28706W        W45180  11.972   8.063   5.526 -0.1542  0.2260 -0.3650
28707W        W45181  15.230  11.627  11.030  0.0996  0.3621 -0.1370
28708W        W45182  19.003  15.968  11.514  0.0508 -0.3509 -0.0814
28709W        W45183   7.458  12.136   2.383 -0.2643 -0.4450  0.3037
28710W        W45184  18.021   4.414  10.415  0.0230  0.1467  0.1698
28711W        W45185  10.660   8.639  14.039  0.3684 -0.2520  0.0971
28712W        W45186   5.680  16.233  13.456  0.0892 -0.3417 -0.4034
28713W        W45187   2.972  16.091   0.949  0.2185 -0.1789 -0.0272
28714W        W45188  12.813  18.601   3.762 -0.2412  0.1510  0.3607
28715W        W45189  15.039  17.177   0.416  0.0642 -0.2574  0.1141
28716W        W45190  18.198   5.046   1.119  0.0888 -0.0999 -0.3407
28717W        W45191  18.279  12.917   2.619  0.2310  0.0233 -0.2702
28718W        W45192  18.264  18.078  14.168 -0.0020  0.1020  0.5254
28719W        W45193  11.014  11.022   5.836  0.1889 -0.0755  0.2700
28720W        W45194   6.887  16.426   1.628  0.2377  0.1014  0.1873
28721W        W45195  15.799   6.201   1.065  0.1835 -0.0179 -0.1205
28722W        W45196   8.877   8.070   3.331 -0.2016  0.2442  0.3162
28723W        W45197   2.263  11.601   1.667  0.4984 -0.0688 -0.1538
28724W        W45198   9.139   0.096  14.625 -0.1938  0.1024  0.1324
28725W        W45199   2.048   0.127   4.172 -0.1472 -0.2746 -0.1436
28726W        W45200  14.125   4.274   0.520  0.2861  0.2541  0.2112
28727W        W45201  16.168   1.268   3.718  0.0353 -0.3488  0.1205
28728W        W45202   3.393  12.475  14.188  0.1063  0.0854 -0.0255
28729W        W45203  11.200  18.037  10.243 -0.1257  0.4202  0.0073
28730W        W45204   1.369  10.536  10.185  0.0510  0.2568 -0.1714
28731W        W45205   4.314   1.669   3.803  0.3027 -0.3475  0.1148
28732W        W45206   4.713   8.897  11.343  0.2006  0.3014  0.3153
28733W        W45207  15.392   7.576   0.839 -0.0252  0.1418 -0.0605
28734W        W45208  11.268   9.908   4.057 -0.1103  0.0382  0.1818
28735W        W45209   0.788   6.295  13.735  0.1579 -0.1017 -0.2888
28736W        W45210  16.049   1.921  14.252  0.0617 -0.2335 -0.0073
28737W        W45211  17.558   0.401   9.887 -0.1327  0.0008  0.1142
28738W        W45212  16.947  16.050  13.763 -0.1111  0.0082 -0.2875
28739W        W45213   4.188  12.818   2.151  0.3462 -0.0040  0.0254
28740W        W45214  16.470  19.391   0.650  0.0674 -0.1321  0.0626
28741W        W45215   2.213   1.833   2.407  0.2933  0.1000 -0.1821
28742W        W45216   2.867   7.191   2.098  0.1262 -0.2346  0.0047
28743W        W45217  14.133  15.136   1.387 -0.2388 -0.0305  0.3349
28744W        W45218  15.947   1.740   2.263  0.4294  0.0197  0.0413
28745W        W45219  18.107   1.247   1.927  0.1718  0.1690  0.2297
28746W        W45220   5.724   2.130  14.341  0.2720  0.0015 -0.0230
28747W        W45221  19.071   8.658  14.469 -0.0338  0.0296  0.6361
28748W        W45222  16.644   5.029   4.432 -0.2363  0.0272  0.1360
28749W        W45223   7.731  16.599  10.693 -0.1515  0.2820  0.0947
28750W        W45224  16.204  14.397   2.543  0.2057  0.2496  0.4044
28751W        W45225  16.280  12.706  13.377  0.3786  0.1987  0.1729
28752W        W45226   9.599   9.308   0.788  0.2059  0.1614 -0.0491
28753W        W45227   3.152   9.078   1.916  0.1257  0.3168  0.0579
28754W        W45228  19.108   3.901  13.225 -0.2042 -0.0535 -0.0511
28755W        W45229   9.204  18.108  11.800  0.1584 -0.0367  0.4026
28756W        W45230   9.493  16.786   2.052 -0.2250  0.2126 -0.1720
28757W        W45231   7.721   5.326   4.621  0.2031 -0.1070  0.4856
28758W        W45232   0.358   7.521   3.608  0.0734 -0.0765 -0.2582
28759W        W45233   2.910  18.574  11.468  0.0288  0.1084  0.1868
28760W        W45234   3.804  17.707  12.811 -0.0623 -0.1172  0.2121
28761W        W45235   8.209  10.203  12.688  0.1386 -0.2655  0.1243
28762W        W45236   9.984  17.986  13.968 -0.2539  0.3418 -0.2883
28763W        W45237   9.364   3.097   1.768  0.0222  0.0716  0.0470
28764W        W45238  13.383   7.130  12.339 -0.1925 -0.2722 -0.4427
28765W        W45239   2.083  18.222  12.622  0.1068  0.0145  0.0915
28766W        W45240   6.570  13.149  12.147  0.0282  0.1756  0.0442
28767W        W45241   4.764  17.228  12.237  0.1140 -0.0995  0.0782
28768W        W45242   7.735   2.780   5.133 -0.0661  0.2987 -0.2331
28769W        W45243  13.723  18.485   4.256 -0.0848  0.0814  0.0238
28770W        W45244   1.886  14.108   3.401 -0.3464  0.0915 -0.2669
28771W        W45245  18.543   1.656   5.419 -0.2499 -0.0396  0.2475
28772W        W45246  10.146   8.350  11.666 -0.0414  0.2660  0.0105
28773W        W45247   4.801   3.138   3.034 -0.1397  0.2945  0.0440
28774W        W45248  17.683  11.253   3.821 -0.1907  0.2248 -0.3614
28775W        W45249   5.919  16.797  13.538  0.1407 -0.0744  0.2678
28776W        W45250  12.295  13.017  14.607 -0.2614  0.0309 -0.1155
28777W        W45251  19.010  10.473  12.089 -0.1234 -0.0366  0.3835
28778W        W45252  18.789  12.469   3.154 -0.0318 -0.0790  0.1334
28779W        W45253   0.799   8.457   4.457 -0.3800 -0.2209  0.2703
28780W        W45254   2.716   6.602  11.218 -0.0680 -0.0116 -0.0851
28781W        W45255  10.775  18.382  11.068  0.0319  0.0225 -0.1740
28782W        W45256  11.157   3.570   3.550  0.3279  0.1480 -0.2831
28783W        W45257   0.208  18.265  13.571 -0.2599 -0.3911  0.4902
28784W        W45258   2.347  19.557  10.297 -0.0156  0.0430  0.1109
28785W        W45259  16.428   8.496   2.154  0.1073  0.0750 -0.0161
28786W        W45260  14.340   4.786   3.157  0.2253  0.1534 -0.1630
28787W        W45261   5.532  12.629  10.241  0.1657 -0.3354  0.1520
28788W        W45262   2.942  16.889  14.235  0.1360 -0.0367 -0.1398
28789W        W45263   9.130  15.318  11.121  0.0787 -0.3425 -0.1219
28790W        W45264  15.352   8.041   1.104 -0.1609  0.1883 -0.0816
28791W        W45265  17.431  14.738   4.302  0.1317 -0.0195  0.0743
28792W        W45266  12.200  14.054   3.325 -0.2581  0.1194  0.0890
28793W        W45267  15.302   8.615   2.382  0.0984  0.2679  0.1307
28794W        W45268  13.688   0.426  10.356  0.5748  0.0132  0.2387
28795W        W45269   0.589  18.199  12.374  0.2132  0.0010  0.3530
28796W        W45270  14.308  16.533  11.702 -0.0543 -0.0863  0.1162
28797W        W45271   0.508   0.924  14.096  0.1882 -0.2753 -0.3927
28798W        W45272   6.985   1.918  12.928  0.0817  0.1047  0.0052
28799W        W45273   4.258   5.616   2.801  0.2222  0.0682 -0.2154
28800W        W45274  10.198  11.756   0.561  0.3963 -0.0072  0.1278
28801W        W45275   7.407   5.175   0.028  0.0693  0.3908 -0.1983
28802W        W45276   1.468   0.453  11.034  0.1684  0.2426 -0.2523
28803W        W45277  14.117   2.843  13.784  0.1609 -0.3048  0.0491
28804W        W45278  15.084  14.626  10.180 -0.1343 -0.0378 -0.5907
28805W        W45279  18.752   6.224   3.803  0.2084 -0.3366 -0.0616
28806W        W45280  18.736  16.561  13.906 -0.0145  0.0452  0.0856
28807W        W45281   7.802   0.713   3.437  0.0245 -0.0359 -0.1489
28808W        W45282  15.332   6.274   4.324  0.1946  0.1637  0.1587
28809W        W45283  15.898  14.328   1.426  0.1049 -0.2736  0.0262
28810W        W45284  16.720   1.191  14.033  0.3842  0.0081 -0.1473
28811W        W45285   0.560   1.820   3.135 -0.3497  0.1861 -0.2370
28812W        W45286   0.815  16.254   9.342  0.0334  0.0117  0.0444
28813W        W45287   5.261   1.566  10.814  0.0316  0.1167 -0.0604
28814W        W45288   5.157  11.222  11.240  0.0930 -0.2604  0.0457
28815W        W45289   5.476  17.088  13.988  0.0991 -0.0497 -0.0817
28816W        W45290   4.273   5.514   4.079  0.0608  0.0990 -0.2358
28817W        W45291   1.805   8.532  13.980  0.1317  0.1256  0.1765
28818W        W45292   5.553   1.763   1.544  0.0211  0.2217 -0.0789
28819W        W45293   8.907   0.364   9.037  0.0121 -0.2943 -0.2781
28820W        W45294  11.420  10.831  11.934  0.0313 -0.0403  0.1375
28821W        W45295  10.096   4.983  13.754 -0.1370  0.3317  0.0430
28822W        W45296   7.336   4.587   2.428 -0.3537  0.2426 -0.0665
28823W        W45297  17.559   5.794  12.065 -0.0484 -0.0914 -0.0898
28824W        W45298  14.834  17.637   0.110 -0.0424 -0.1426  0.0742
28825W        W45299   0.763   2.743  11.644 -0.1891  0.1277  0.2413
28826W        W45300   3.387  11.005  10.427 -0.0359  0.0836 -0.0839
28827W        W45301   6.775   0.329   4.249  0.0562  0.2672 -0.0950
28828W        W45302   6.801  16.691   0.858 -0.2007 -0.1140  0.0633
28829W        W45303   4.102   0.144  11.688  0.0505  0.2268  0.4543
28830W        W45304   7.478  16.137  14.555 -0.3685 -0.2603  0.0252
28831W        W45305   4.028  17.997   9.478 -0.2002 -0.1065  0.1967
28832W        W45306   4.327  17.625   0.725  0.4216  0.0948 -0.2003
28833W        W45307  18.541   2.266  10.587 -0.0018  0.0513 -0.0722
28834W        W45308   2.376   0.891  11.283 -0.3795 -0.1990  0.2456
28835W        W45309   4.580   5.391  11.042  0.1323 -0.0460  0.0134
28836W        W45310  16.998  19.434  14.563 -0.0574 -0.1147  0.1001
28837W        W45311  12.735  18.744   2.559 -0.2152 -0.1156  0.0551
28838W        W45312   5.732  15.390  13.272  0.0966 -0.0640  0.2170
28839W        W45313   4.690   9.601   4.637  0.1460 -0.1322  0.2992
28840W        W45314   6.410   1.901   3.659 -0.0887 -0.1475 -0.1202
28841W        W45315  11.965  19.309   3.076 -0.1255 -0.1768 -0.0753
28842W        W45316   9.470  17.524   2.166 -0.1505 -0.0377  0.2897
28843W        W45317  12.749   8.990   3.585 -0.0523 -0.0698 -0.4342
28844W        W45318  19.087   6.171  12.710 -0.1463 -0.0037  0.2511
28845W        W45319   7.755   3.487  11.141 -0.1433  0.2385  0.0716
28846W        W45320   6.751   9.163  12.906  0.3481  0.0599  0.0941
28847W        W45321  10.868  17.291   5.292 -0.1960 -0.1689  0.3585
28848W        W45322   6.664   8.753   3.756 -0.4025 -0.0417 -0.3460
28849W        W45323  10.587   9.092  13.063  0.0857 -0.1239 -0.4604
28850W        W45324  17.035   2.962  10.553  0.2419 -0.0773  0.0632
28851W        W45325   3.293  19.068   0.627  0.1554 -0.0163 -0.0553
28852W        W45326  14.262  17.928   3.768 -0.4408  0.1799 -0.0219
28853W        W45327   3.662   5.111   0.998 -0.0078  0.1172  0.1943
28854W        W45328  14.172   1.698   5.158 -0.1763  0.0574 -0.0195
28855W        W45329  12.069  17.595   1.372 -0.3407 -0.0689 -0.1977
28856W        W45330   6.814   3.358  10.875  0.0163  0.1152  0.3155
28857W        W45331   0.506   8.286  10.967 -0.1948  0.0433 -0.1815
28858W        W45332  14.158  15.852  14.629  0.2046  0.1348  0.1582
28859W        W45333  11.359  17.676   3.607  0.0216 -0.0212  0.1314
28860W        W45334  11.131  16.672   2.331  0.1646  0.2947  0.1433
28861W        W45335   1.864  16.529   1.754  0.0783 -0.0874 -0.1569
28862W        W45336  17.319   8.991   3.279 -0.0819 -0.1492 -0.1231
28863W        W45337  14.367  13.716  11.216  0.0260  0.1613 -0.0237
28864W        W45338   1.623  12.165   1.854  0.2613 -0.0025 -0.1594
28865W        W45339   6.909  12.023   0.605 -0.2279  0.1407 -0.2333
28866W        W45340   8.008   1.227  10.563  0.0857 -0.0743 -0.1094
28867W        W45341  11.358  19.334  10.588  0.1594 -0.0848 -0.1239
28868W        W45342  11.538   8.408   3.513 -0.0782 -0.3297  0.1242
28869W        W45343   1.919  16.568   0.209 -0.0333 -0.1356 -0.0158
28870W        W45344  13.048   5.797   5.663 -0.1456 -0.0908  0.1819
28871W        W45345  13.087  17.256  10.496 -0.0997 -0.0989  0.0938
28872W        W45346   1.698  10.540   1.422 -0.0901 -0.1541 -0.1341
28873W        W45347   4.713   7.349   2.267 -0.1293  0.0080  0.0651
28874W        W45348   4.749   6.303   5.496  0.4323  0.1580  0.0145
28875W        W45349   5.477   1.255  12.240 -0.0230  0.1894 -0.3057
28876W        W45350   3.474   5.951  10.642  0.4458 -0.1025 -0.2023
28877W        W45351  14.516   0.676   0.109  0.3064  0.1651 -0.0148
28878W        W45352  15.760   3.278  11.037  0.1879 -0.2795 -0.1741
28879W        W45353   3.738   6.452   3.305  0.0618 -0.2524 -0.1635
28880W        W45354  16.910  16.828  14.017  0.3031 -0.0729  0.1604
28881W        W45355   0.157   0.746  11.337 -0.2199 -0.1530 -0.1749
28882W        W45356   1.188  19.432  12.717 -0.2144  0.2002  0.0415
28883W        W45357   0.748  15.202   9.774  0.4001 -0.0739 -0.2513
28884W        W45358   8.095   9.148  13.826 -0.1240 -0.4776 -0.0894
28885W        W45359  17.844  16.046   1.644  0.1969  0.1901 -0.0021
28886W        W45360  13.298   6.341  12.489 -0.0293  0.1544 -0.0747
28887W        W45361   1.754  15.187   4.446 -0.4350  0.0345 -0.1499
28888W        W45362   3.458   8.162  12.373 -0.1879 -0.0558  0.0063
28889W        W45363   5.054   9.804   5.036  0.5311  0.1894 -0.1826
28890W        W45364  15.042  17.751   1.729  0.5295  0.0972 -0.0221
28891W        W45365   6.182  11.447   0.255 -0.0126  0.1092  0.1302
28892W        W45366   7.638  14.706  11.786  0.3952 -0.0617  0.2959
28893W        W45367   5.547   9.346   0.252 -0.1627 -0.3220  0.0207
28894W        W45368   3.430  11.758   1.220  0.3299 -0.2366 -0.2188
28895W        W45369  15.821  16.580   2.771  0.0475  0.1314 -0.2242
28896W        W45370  14.604   3.969  13.091 -0.0280 -0.0303  0.1704
28897W        W45371  15.775  15.338  13.977  0.1911  0.0508  0.2398
28898W        W45372   0.174   5.530  11.847  0.3381 -0.3252 -0.0439
28899W        W45373   4.767   0.661   0.820  0.2802 -0.0718 -0.0413
28900W        W45374   7.662   0.591   2.301 -0.0074  0.2334  0.0232
28901W        W45375  12.078   4.556   1.117  0.0330  0.1192  0.2370
28902W        W45376  16.077  14.572  11.161  0.3318  0.3259 -0.0889
28903W        W45377  19.299   7.358   4.616 -0.2274  0.0542 -0.1073
28904W        W45378  14.766   0.569   2.311 -0.1190 -0.1312 -0.3005
28905W        W45379   6.285   9.334   1.600  0.2638 -0.2367 -0.0503
28906W        W45380   6.981   0.188  11.300  0.3294  0.0207  0.1364
28907W        W45381  14.312   3.910   3.871 -0.1537  0.2144 -0.2541
28908W        W45382   4.163  14.057   1.195 -0.0579 -0.0799 -0.1578
28909W        W45383   4.846   7.190  13.319 -0.1219  0.0864  0.1303
28910W        W45384  16.095  19.443  13.386  0.4837  0.1286 -0.2625
28911W        W45385  18.483  15.310  13.423  0.2425 -0.0305  0.1212
28912W        W45386  14.882   8.615   0.489 -0.2053 -0.2610  0.2528
28913W        W45387  18.917  16.792   3.711 -0.2598  0.0909  0.2446
28914W        W45388  17.153   8.720   4.267  0.1740  0.4126  0.1592
28915W        W45389   8.491  15.304  10.991  0.0536 -0.0797  0.2079
28916W        W45390   3.213  18.341   9.896  0.1099  0.1340 -0.0566
28917W        W45391   9.208  11.103   4.108 -0.2809 -0.2351 -0.0190
28918W        W45392   5.144   6.959   2.450  0.0644  0.1967  0.2188
28919W        W45393  16.483  11.039   4.447  0.1617 -0.0727  0.2722
28920W        W45394   7.746   2.018   1.806 -0.1972  0.1970 -0.0328
28921W        W45395   4.694   5.192   4.577  0.0784 -0.1869  0.3351
28922W        W45396  17.619   6.047  13.828  0.1844 -0.2545  0.3397
28923W        W45397   5.350   3.258  13.372 -0.0817  0.1454 -0.0982
28924W        W45398  15.858   1.664   2.769  0.2529 -0.2174  0.1210
28925W        W45399   3.361   1.080   3.422 -0.0238  0.3125 -0.1153
28926W        W45400   2.373   1.461  10.420 -0.0076 -0.0534 -0.0584
28927W        W45401   2.789  11.163   2.720 -0.1500 -0.0907 -0.0099
28928W        W45402  18.238   9.751  11.339 -0.1474 -0.0402 -0.0875
28929W        W45403   5.601   6.178  13.316  0.1964  0.1120 -0.0819
28930W        W45404  17.550   7.962   2.534 -0.1510 -0.1517  0.1766
28931W        W45405  18.107  12.529  11.412  0.2457 -0.2128  0.0963
28932W        W45406   7.120  19.202   1.182 -0.0151 -0.0081 -0.2520
28933W        W45407  10.127   9.873   9.566 -0.1204  0.0392 -0.0889
28934W        W45408  14.097  14.302  11.066  0.1165 -0.0854  0.0187
28935W        W45409   5.771  16.241   0.803  0.1779  0.0872 -0.1176
28936W        W45410  19.136  11.996  10.754 -0.5501  0.0585 -0.2999
28937W        W45411  14.777  14.864   2.600 -0.5141 -0.2508  0.0129
28938W        W45412   2.257  14.423  13.712 -0.1683  0.0742  0.0707
28939W        W45413   8.891  12.626  11.114  0.1326 -0.0798  0.1374
28940W        W45414  13.892  13.318   0.781  0.0573 -0.0592  0.4177
28941W        W45415   4.248   7.427  11.832  0.1326  0.0614  0.2262
28942W        W45416  16.192  16.355  11.419 -0.0425 -0.1400 -0.2517
28943W        W45417  19.365  19.212  11.663 -0.1048  0.0335 -0.0534
28944W        W45418   0.429  13.930  11.236  0.0281  0.0693 -0.0454
28945W        W45419  14.456   8.632  11.230 -0.2118  0.0649 -0.3020
28946W        W45420   6.358  11.478  13.886  0.2356 -0.1412  0.4555
28947W        W45421  12.995   7.248   2.443 -0.1520  0.0342 -0.0302
28948W        W45422  14.364  14.096   1.985  0.1285  0.0269  0.1018
28949W        W45423  18.343  19.550  13.836 -0.1257  0.3192 -0.0158
28950W        W45424   8.061  15.347  13.280 -0.1130 -0.2977  0.4600
28951W        W45425   6.642   3.010  13.974  0.0517 -0.5187 -0.1450
28952W        W45426   4.168   1.909  12.569 -0.2127 -0.0349  0.0434
28953W        W45427   0.514   1.606  13.024 -0.0829 -0.1413 -0.0762
28954W        W45428  11.922   4.060   3.694  0.2158 -0.1527 -0.1721
28955W        W45429  11.295  18.588   1.832 -0.2515  0.2163  0.1064
28956W        W45430  10.596  10.306   3.259 -0.1117  0.1577  0.0303
28957W        W45431   4.746   4.872   0.466 -0.2873 -0.4872 -0.4669
28958W        W45432   6.617   4.814  14.423 -0.1341 -0.3118 -0.3093
28959W        W45433  10.274  18.380   4.745  0.0238  0.1413  0.2774
28960W        W45434  15.584   9.677   1.854  0.1761  0.1134 -0.0869
28961W        W45435  14.304   4.507   0.961  0.0219  0.0463  0.1530
28962W        W45436   7.472   6.052  10.637 -0.1341 -0.0255  0.3019
28963W        W45437  13.397  10.030   5.713  0.1186  0.0635 -0.1747
28964W        W45438  15.593   7.287  12.511 -0.2384  0.0820 -0.0104
28965W        W45439  12.019   0.472   4.631  0.1136  0.0190 -0.1951
28966W        W45440   3.855   6.134  13.991 -0.0674  0.3172  0.0380
28967W        W45441   2.946   4.169   0.806 -0.1613 -0.0371 -0.2119
28968W        W45442   1.676   2.835  11.430 -0.0104 -0.0281  0.1602
28969W        W45443   6.507  10.186   5.104 -0.0181 -0.1401  0.2675
28970W        W45444  19.203  17.023   4.067 -0.0803  0.0699  0.1181
28971W        W45445   1.880   0.504   4.462 -0.1625  0.0559  0.0962
28972W        W45446   8.663   2.317  12.052 -0.2460  0.0033 -0.0019
28973W        W45447   4.663  13.347   8.762 -0.1588  0.0536  0.1932
28974W        W45448  13.364   7.975  12.176  0.0600 -0.0785  0.1011
28975W        W45449   2.472   1.709   1.931  0.0031  0.2391 -0.0855
28976W        W45450   4.366  13.223   2.375 -0.0499  0.1421 -0.1417
28977W        W45451  17.643   4.381  13.179  0.1900 -0.2587 -0.0595
28978W        W45452  12.849  16.344   3.278  0.0496  0.1384 -0.0811
28979W        W45453  16.194   4.589   9.743 -0.1143 -0.0898 -0.0716
28980W        W45454  11.497   4.937   2.493  0.2169  0.1915  0.2380
28981W        W45455  10.153  19.032   3.139  0.0882  0.0777  0.0269
28982W        W45456   7.538   6.491   0.512  0.1117 -0.0234 -0.1533
28983W        W45457  15.771  12.877  12.704 -0.0130  0.0250  0.0167
28984W        W45458  19.199  19.582   1.024  0.2439 -0.0094 -0.2758
28985W        W45459  10.498   8.621   4.986 -0.2896 -0.0759 -0.2291
28986W        W45460  12.592   2.099   4.195 -0.0630 -0.0669  0.2888
28987W        W45461  17.231   9.747  13.949 -0.1672 -0.2918  0.1470
28988W        W45462  19.209  12.523  12.601  0.4435 -0.3281 -0.1505
28989W        W45463   5.298  14.294   9.932  0.1798 -0.0325  0.1280
28990W        W45464  18.291   9.131  14.145  0.2478 -0.2367 -0.2545
28991W        W45465   5.513   1.786   3.842 -0.0320  0.2739  0.0174
28992W        W45466   4.075   6.120   1.150  0.2949  0.0054 -0.2151
28993W        W45467   2.871   0.838  12.126 -0.0260 -0.2390  0.1918
28994W        W45468   7.356   9.118   1.588  0.0910 -0.1969 -0.0465
28995W        W45469   5.463   2.606  11.585  0.0654 -0.2312 -0.2595
28996W        W45470  10.486   2.612  12.283 -0.2393 -0.0639  0.0143
28997W        W45471  19.021  18.081  10.262 -0.1292 -0.0899  0.5976
28998W        W45472  18.628  12.127  11.686  0.2918 -0.3003  0.0413
28999W        W45473  10.039  18.335  14.323 -0.1944 -0.0063  0.1986
29000W        W45474  14.444  13.534  10.621  0.0386  0.1969 -0.2828
29001W        W45475  17.048   6.204  10.476  0.1939 -0.0854  0.1404
29002W        W45476   7.939  13.312   3.784  0.2194  0.1318 -0.0410
29003W        W45477   2.760   9.502   3.425 -0.3595 -0.0394  0.1803
29004W        W45478  15.112   4.470  11.370  0.1253 -0.0846  0.0234
29005W        W45479  18.136   5.421  12.137  0.0755 -0.2898 -0.2651
29006W        W45480  13.577   4.566   4.229  0.1203  0.2327 -0.1551
29007W        W45481  12.485  11.192  13.991 -0.2515  0.0592  0.4568
29008W        W45482  19.088   0.448   0.758 -0.0388 -0.0788 -0.0440
29009W        W45483   7.708  18.526   1.116 -0.1037  0.0809 -0.0720
29010W        W45484  13.211   8.011   3.104 -0.0610 -0.0184 -0.0925
29011W        W45485  11.700  13.954  11.956 -0.2938  0.0726 -0.2287
29012W        W45486  12.499   4.168  14.486  0.3885  0.2062 -0.2027
29013W        W45487  13.048  11.381   4.863  0.3866  0.0442 -0.0259
29014W        W45488   0.154   3.283   4.607  0.0365  0.1719 -0.0991
29015W        W45489  12.521  13.002   3.960  0.2853 -0.1190 -0.1268
29016W        W45490   8.724  17.384  10.544 -0.0637  0.2220  0.1140
29017W        W45491  10.832  19.371   1.834 -0.0380 -0.0954 -0.1509
29018W        W45492   4.945   6.269   1.469 -0.0760  0.0554  0.1595
29019W        W45493  11.856  19.457  10.548 -0.0563 -0.0052 -0.1420
29020W        W45494  16.675  13.200  14.400 -0.1724 -0.0158 -0.1819
29021W        W45495  17.537  15.710   3.431  0.0682 -0.0959 -0.2429
29022W        W45496   8.647   2.646  14.439 -0.0200 -0.1532 -0.2233
29023W        W45497  17.492  14.033  14.101 -0.2403  0.1140 -0.0842
29024W        W45498   8.206  14.100   3.980  0.3539  0.2186  0.1003
29025W        W45499   4.860   2.982  13.302 -0.0275  0.0884 -0.0582
29026W        W45500  18.733  18.021  14.108  0.1677 -0.1801 -0.1371
29027W        W45501  16.135   0.594  10.428 -0.0247  0.0330 -0.1235
29028W        W45502   8.995  12.928   2.297  0.3395  0.1676  0.2341
29029W        W45503   3.290   7.728   2.743  0.0848 -0.2390 -0.0066
29030W        W45504  14.264  14.485   3.335  0.2663  0.1161  0.1414
29031W        W45505  14.424  16.443   1.410 -0.1129  0.0142 -0.0716
29032W        W45506  12.818  16.090   0.528 -0.1322  0.2925  0.4053
29033W        W45507   2.864  13.087  13.487  0.4404  0.0661 -0.0175
29034W        W45508  11.448   9.173   0.326  0.3266  0.2995 -0.0402
29035W        W45509  18.029  15.029   2.650 -0.1981  0.1956 -0.2413
29036W        W45510   2.717  11.648   3.308  0.1533 -0.1073 -0.0865
29037W        W45511   2.005   6.814   0.413  0.0360 -0.2393  0.1928
29038W        W45512   3.035  10.987   1.822 -0.1110 -0.0595 -0.0248
29039W        W45513  11.613  16.287  10.712  0.3547  0.1843 -0.0722
29040W        W45514  18.845   3.093   0.066 -0.1706 -0.0285  0.2463
29041W        W45515   7.128  10.752  14.441  0.1178 -0.0577  0.0245
29042W        W45516  18.203   6.435  13.934 -0.0206 -0.2126  0.0959
29043W        W45517  11.997   6.557   0.019  0.0501  0.0767 -0.0096
29044W        W45518  14.837   5.407   2.218 -0.0033  0.0835 -0.0970
29045W        W45519  18.585  10.538   2.368 -0.0278 -0.0345  0.3566
29046W        W45520  16.599  16.535   0.978  0.1202 -0.0742 -0.0201
29047W        W45521  18.802   8.444  12.747  0.1047 -0.2625 -0.2280
29048W        W45522   4.377  14.591  12.477 -0.0501  0.1624 -0.3572
29049W        W45523  11.866   6.466   0.704 -0.2385 -0.1739  0.0206
29050W        W45524   8.701  12.052   5.402  0.0757 -0.0769 -0.0985
29051W        W45525  14.762   9.084  12.955 -0.3105  0.2429 -0.0941
29052W        W45526  19.164   6.104   1.505 -0.1624 -0.1928 -0.0174
29053W        W45527   6.813  14.318   0.700 -0.2921  0.0535 -0.1174
29054W        W45528  17.886   4.453   1.636 -0.1412  0.3121  0.0787
29055W        W45529  17.398  14.907   5.355 -0.0010  0.2192  0.0872
29056W        W45530   4.959   9.182   4.288  0.2160  0.0113 -0.4521
29057W        W45531   0.792  14.252   0.533  0.1763  0.0207  0.1723
29058W        W45532   3.264  14.236   9.718 -0.0167  0.2782 -0.3146
29059W        W45533   8.851  15.915  14.270  0.0922  0.2406  0.2234
29060W        W45534  14.255  12.407  12.337 -0.2331  0.1992  0.2245
29061W        W45535   0.212  14.693   1.702 -0.0600 -0.2652 -0.1381
29062W        W45536   2.996  17.730  10.243 -0.1090 -0.0746 -0.0583
29063W        W45537   5.745   3.264  11.590 -0.0858  0.1093  0.1767
29064W        W45538  18.286   7.194  13.976 -0.0214 -0.0697  0.3046
29065W        W45539   5.273  13.835  13.408 -0.1581 -0.2136  0.0698
29066W        W45540  16.313   3.693   1.492  0.3236  0.3196  0.0022
29067W        W45541   7.775   2.450   0.562 -0.2504 -0.0256 -0.1562
29068W        W45542  17.199  19.181  10.661  0.2015 -0.1073 -0.1650
29069W        W45543   3.946   3.857  11.893  0.0982 -0.2671 -0.2091
29070W        W45544   0.349   3.453   3.326 -0.1256  0.0653 -0.0734
29071W        W45545  12.630   1.110   4.305  0.0613  0.0763 -0.0431
29072W        W45546   7.893  12.400  14.121  0.3507  0.2280 -0.1421
29073W        W45547   1.756  15.648   0.559 -0.1359  0.0268 -0.0158
29074W        W45548   3.473  13.080   4.053  0.1277  0.0370 -0.0920
29075W        W45549   1.274   6.011   3.833  0.0007 -0.1373 -0.3053
29076W        W45550  19.525   5.547   3.808  0.2795 -0.0562  0.1194
29077W        W45551   7.947   6.562  14.616 -0.2325  0.2517  0.0489
29078W        W45552  11.371  15.815   3.605 -0.0751  0.1315 -0.3339
29079W        W45553  18.304   7.680   4.055 -0.0312 -0.0020 -0.0630
29080W        W45554  17.155  15.376   0.847 -0.0471 -0.0227 -0.0313
29081W        W45555  10.573   0.625  14.465 -0.0288 -0.0852  0.0773
29082W        W45556   7.356   5.432  12.032 -0.1575 -0.3642 -0.1778
29083W        W45557  10.083  13.256   3.214 -0.0168 -0.2787 -0.2645
29084W        W45558  15.863   4.671  12.996 -0.1729 -0.1165  0.1530
29085W        W45559   0.162  17.947   0.403 -0.0308  0.6742 -0.0754
29086W        W45560   7.560   1.880   0.966  0.0087  0.0429  0.3672
29087W        W45561  17.192   5.339   0.875 -0.0689 -0.1990 -0.2176
29088W        W45562   4.513  18.401   0.254  0.1870 -0.0746  0.4816
29089W        W45563  11.175  13.979  13.833 -0.1750 -0.1076  0.0100
29090W        W45564  16.655  12.116   0.306 -0.3015  0.1003 -0.0770
29091W        W45565  17.048   6.472   0.028  0.0636 -0.1866  0.0754
29092W        W45566  16.984   5.662   4.939  0.2975  0.0704  0.0352
29093W        W45567   8.677   3.108  14.031  0.0034  0.1413 -0.1819
29094W        W45568  14.546   2.800  10.494 -0.1077 -0.2101  0.1032
29095W        W45569  17.302   8.612  12.627  0.1431 -0.2827  0.1521
29096W        W45570  19.470   9.919  10.460 -0.0804  0.0017  0.1448
29097W        W45571   1.747  13.642   3.269 -0.1328  0.0178  0.0315
29098W        W45572   6.338  17.461   2.447  0.0714  0.2131 -0.0510
29099W        W45573   6.537  18.434  11.945  0.3306 -0.1414  0.0213
29100W        W45574  12.029  15.634   4.768  0.0842  0.1257  0.3633
29101W        W45575  13.346  17.405   1.000 -0.1346  0.0968 -0.0127
29102W        W45576  18.153   9.378  13.163  0.2174 -0.0126 -0.0697
29103W        W45577  11.388   1.463  13.583  0.0164 -0.0634 -0.0879
29104W        W45578   4.641   7.990   4.150 -0.0135 -0.0871 -0.0169
29105W        W45579   5.189  19.417   4.576  0.1531 -0.0029  0.3581
29106W        W45580   7.385   4.084   2.403  0.0206  0.2115 -0.1563
29107W        W45581  17.095   4.397  13.974 -0.2558  0.0405 -0.2246
29108W        W45582   4.775   4.810  14.365  0.0760  0.2286 -0.1178
29109W        W45583  14.998  10.450  11.170 -0.1086 -0.1629 -0.0015
29110W        W45584  19.415   2.455  14.693 -0.0987  0.0086  0.0715
29111W        W45585   9.184   0.626  11.268  0.0137 -0.0181 -0.1650
29112W        W45586   8.997   4.570  10.156  0.0375 -0.2864  0.3029
29113W        W45587  17.479   6.079  14.709 -0.0904 -0.0488  0.0980
29114W        W45588   4.613  11.569   2.224 -0.0049  0.0637 -0.2592
29115W        W45589  18.075  14.117  14.116 -0.0754 -0.1243  0.0686
29116W        W45590   7.624   0.632   1.386  0.2004  0.0831 -0.1405
29117W        W45591  10.872   8.973   3.799  0.1675 -0.1564  0.0030
29118W        W45592   1.986   4.623   9.501  0.2845 -0.0418 -0.0214
29119W        W45593   6.973   8.982   0.198  0.1631  0.0199 -0.3179
29120W        W45594   8.257   3.633   0.157 -0.1444 -0.4274  0.0562
29121W        W45595  19.258   4.252   4.470  0.1755  0.1579  0.1742
29122W        W45596  16.813   4.337  11.001 -0.0716 -0.1875 -0.1325
29123W        W45597   6.842   3.230  13.554 -0.3015 -0.2983  0.0745
29124W        W45598   3.989   6.647  10.415 -0.0197 -0.1226 -0.0652
29125W        W45599  13.119  14.732   3.741  0.0046 -0.0641 -0.0392
29126W        W45600   1.290  17.344   0.026  0.1353  0.4235  0.2621
29127W        W45601   1.606  17.580   0.382 -0.0093  0.1361 -0.2452
29128W        W45602  16.297   4.544  13.196  0.2651  0.2173  0.1547
29129W        W45603   4.005  15.050  12.540 -0.1842 -0.2930 -0.1000
29130W        W45604  12.396  11.277  12.878  0.2329 -0.1532  0.2593
29131W        W45605  15.786   8.724   5.541  0.1306  0.0911  0.0807
29132W        W45606  10.509   2.990   1.709 -0.0144 -0.0979 -0.2677
29133W        W45607  19.094  17.769   2.240 -0.0331 -0.3779  0.0269
29134W        W45608   9.314   6.638  12.666 -0.2804 -0.1114  0.1463
29135W        W45609  10.816   5.569  10.856  0.1851 -0.1155 -0.0983
29136W        W45610   0.618   6.749  13.022  0.0767 -0.2454 -0.1059
29137W        W45611   0.030  10.981  14.513 -0.2238 -0.2494  0.1882
29138W        W45612   9.952   7.009   2.182  0.2540  0.1766 -0.0312
29139W        W45613  17.783   2.472  13.556 -0.3514 -0.0759  0.0956
29140W        W45614   3.321   4.427   3.555 -0.2018  0.0142 -0.4832
29141W        W45615   8.391   1.691  12.166 -0.1485  0.1131  0.4143
29142W        W45616   6.304  18.365  10.117 -0.2326 -0.1621  0.1143
29143W        W45617   2.417   2.166  10.894  0.0195  0.1199 -0.2822
29144W        W45618   0.725   9.544   0.014 -0.0500  0.2360  0.4226
29145W        W45619  19.567  18.826   0.191  0.0279 -0.1134 -0.1228
29146W        W45620   4.115  11.650  11.813 -0.1078  0.0237  0.0542
29147W        W45621  17.884   2.745   2.859 -0.1060  0.1513 -0.0653
29148W        W45622   9.818   6.318  10.668  0.0590  0.1662  0.1932
29149W        W45623   0.460  18.470   3.598  0.0357 -0.0820  0.0182
29150W        W45624  16.847  16.936  12.107 -0.0447 -0.1914  0.2476
29151W        W45625   9.127  12.047   4.952  0.2331 -0.4656 -0.0291
29152W        W45626  17.869  15.594   4.429 -0.2737  0.1570 -0.1332
29153W        W45627  15.313  12.831   2.832 -0.1036  0.2317 -0.0464
29154W        W45628  12.067  17.124   3.291  0.1489  0.1058 -0.1902
29155W        W45629   2.112  16.146   0.053 -0.0213 -0.2053 -0.0216
29156W        W45630  15.782  14.027  13.405  0.0047  0.1240 -0.3367
29157W        W45631  13.532  15.319  10.331  0.1078 -0.0423 -0.0590
29158W        W45632   3.301   1.434   5.316  0.2136  0.0039 -0.1187
29159W        W45633   4.864  14.409   2.641  0.4203  0.0463  0.1775
29160W        W45634  10.531  18.356   1.430  0.2360  0.3086  0.0122
29161W        W45635   3.441  14.122   2.121  0.0354 -0.2323  0.2346
29162W        W45636   6.101   4.624   0.295  0.1104  0.1974  0.1100
29163W        W45637  10.285  11.731   4.079  0.2193  0.2947 -0.3120
29164W        W45638  16.022   3.920   3.081  0.0033 -0.0177 -0.0489
29165W        W45639   7.229  16.036   1.450  0.2409 -0.0852  0.0007
29166W        W45640  11.724   4.312  10.307  0.0322 -0.0862 -0.1657
29167W        W45641   8.400  13.162   3.797  0.1339  0.0834  0.1063
29168W        W45642  15.684  10.137   0.307 -0.2782  0.1543 -0.1026
29169W        W45643  13.628   1.377   4.257  0.3608  0.0392 -0.2788
29170W        W45644  16.274  18.553  13.502  0.1577 -0.2053  0.0302
29171W        W45645   9.591   6.994   4.075 -0.1653 -0.0040 -0.0120
29172W        W45646   9.292   0.261   2.322 -0.1543 -0.0348 -0.0316
29173W        W45647  16.554  16.643   2.096 -0.2469  0.0423  0.0516
29174W        W45648   8.694   2.274  14.102 -0.0870  0.1072 -0.0259
29175W        W45649   4.105   3.653   5.256  0.1640 -0.2383 -0.2131
29176W        W45650   5.770   8.159   5.550 -0.0294 -0.1991  0.1542
29177W        W45651   6.860  18.949   3.365  0.0255 -0.2220 -0.2403
29178W        W45652  17.252  18.984   2.142  0.3118  0.5144  0.1494
29179W        W45653  18.552  15.819  13.438 -0.0347  0.2765  0.2685
29180W        W45654   5.531  19.215   8.858 -0.0772 -0.2173  0.2575
29181W        W45655  16.295   4.499  11.238 -0.0888  0.0253 -0.0595
29182W        W45656  17.069   0.612   4.481  0.0256  0.1851 -0.0954
29183W        W45657   5.685  16.205  14.007 -0.1867  0.2060 -0.1142
29184W        W45658   2.351  17.638  13.292  0.3141  0.4559  0.1743
29185W        W45659   5.891  14.799   1.003  0.6695  0.0857 -0.1599
29186W        W45660  18.565  19.379   2.632  0.0427 -0.1086  0.0787
29187W        W45661  16.323   4.067  13.427 -0.1645 -0.3023 -0.4662
29188W        W45662   2.162  11.025  12.135  0.2385  0.4153  0.0430
29189W        W45663  12.553   2.636  13.314 -0.1609 -0.1650  0.0439
29190W        W45664   0.949   0.429   0.766  0.0540  0.3534 -0.0381
29191W        W45665   5.364   5.344  12.827 -0.1027  0.0406 -0.2519
29192W        W45666  19.020  19.123   0.758  0.0900  0.1615  0.0139
29193W        W45667  12.138  14.581   2.621  0.1280 -0.1299  0.1762
29194W        W45668   7.400   9.490  13.173  0.2449 -0.0151 -0.0844
29195W        W45669  11.036   6.443   1.445  0.5378 -0.0559 -0.0914
29196W        W45670   1.379   1.427   0.144 -0.0260 -0.0854  0.1027
29197W        W45671   0.923   1.694  11.575 -0.0112  0.1651 -0.2305
29198W        W45672   4.464  11.223   3.842 -0.2068  0.0429  0.1170
29199W        W45673   6.365  14.563  12.964 -0.2734 -0.1215  0.0503
29200W        W45674  17.842  15.334   2.195 -0.0761 -0.0369 -0.2781
29201W        W45675   6.546  10.963  11.072  0.1273  0.2510 -0.1082
29202W        W45676   6.771   6.851   3.309  0.0558  0.0279  0.2115
29203W        W45677   6.458   7.692   1.963 -0.0873 -0.1487  0.3474
29204W        W45678   7.122   0.569   1.522  0.3147  0.1274 -0.0691
29205W        W45679   8.398   3.185  14.484 -0.2031 -0.2769  0.3887
29206W        W45680  13.097  14.938   1.063 -0.0645 -0.4291 -0.3163
29207W        W45681  13.343  17.840   1.173  0.0192 -0.0930 -0.1453
29208W        W45682  16.974  12.049  11.580  0.1545 -0.0097  0.0862
29209W        W45683   1.179  10.538   9.201  0.1661 -0.3472  0.1223
29210W        W45684   4.989   9.086  11.844 -0.0609 -0.1144  0.2007
29211W        W45685  13.184  13.753  13.513  0.0830  0.1585  0.0742
29212W        W45686   6.959   9.414   1.925 -0.1249  0.3632  0.2918
29213W        W45687   0.719  17.707  12.802 -0.0287  0.0616 -0.1795
29214W        W45688   5.139  16.315  14.228  0.0070 -0.1171  0.2129
29215W        W45689  12.436   2.562   4.092  0.2858 -0.2044 -0.2944
29216W        W45690   9.813  14.138   4.849  0.2052 -0.2061 -0.2692
29217W        W45691  18.181   1.000   3.165 -0.2492  0.4381  0.1194
29218W        W45692   4.436   0.041   0.002  0.4199 -0.2807  0.4919
29219W        W45693  12.111  18.488   1.504 -0.0432 -0.1731  0.3792
29220W        W45694   8.312  19.364  11.828 -0.3760 -0.2931  0.1250
29221W        W45695  13.042   4.138  10.789  0.2441 -0.0130 -0.0302
29222W        W45696   5.866  11.455   9.030 -0.3108  0.3245  0.1520
29223W        W45697  13.357  15.352  13.633  0.0731  0.5042 -0.0526
29224W        W45698  15.510  10.576   5.322 -0.2472 -0.1155  0.0818
29225W        W45699  16.772   6.415  14.241  0.1861 -0.1633  0.0468
29226W        W45700   7.360   0.242  10.086  0.1012  0.2061 -0.0514
29227W        W45701  11.391   9.094  12.120  0.2601 -0.0900  0.1143
29228W        W45702   9.765   0.194  10.346 -0.0306 -0.0133  0.2789
29229W        W45703  17.144  14.428   2.320 -0.0437  0.2187  0.3228
29230W        W45704  15.311   6.282   1.152  0.1000 -0.0086 -0.2944
29231W        W45705  12.990   1.972   1.836  0.4294 -0.0530  0.0068
29232W        W45706   8.386   7.441   0.774  0.2825 -0.1247  0.1582
29233W        W45707  10.141  15.153   1.929 -0.2043  0.2270 -0.1084
29234W        W45708   1.352  18.638   9.899  0.1745  0.2147 -0.3642
29235W        W45709  12.888  11.433   0.144 -0.2111  0.0837 -0.2655
29236W        W45710   6.164  11.817  10.336 -0.1032 -0.4670  0.0253
29237W        W45711   6.879  17.652   0.329 -0.1535 -0.2700  0.3440
29238W        W45712  14.392   1.191   2.365 -0.1696 -0.2860 -0.0723
29239W        W45713  17.515   2.439  13.138 -0.0870 -0.0868  0.2127
29240W        W45714   3.195   5.126  11.352 -0.1603  0.0808  0.1169
29241W        W45715   0.843   7.699   5.125  0.1260 -0.1266 -0.0026
29242W        W45716   7.123  15.366  12.804  0.2742  0.1285 -0.0325
29243W        W45717  11.469  11.742  10.080 -0.1031  0.2363 -0.3065
29244W        W45718   5.788  15.946  10.983 -0.0401 -0.0073  0.2868
29245W        W45719   0.174  12.306   4.235  0.0113 -0.2786  0.2345
29246W        W45720   0.902   7.460   2.228  0.1278  0.2982  0.2700
29247W        W45721  12.705   0.779  14.571 -0.1933 -0.2180 -0.0767
29248W        W45722  12.320  15.760  10.014 -0.2824  0.1361 -0.0642
29249W        W45723   9.545   7.135  11.970  0.1692  0.1785 -0.2088
29250W        W45724   0.185  14.386  12.162  0.0027 -0.0445  0.2878
29251W        W45725  12.217   9.977  13.841  0.3139 -0.3087 -0.2911
29252W        W45726   6.507  16.638  10.027  0.0342  0.1103  0.1298
29253W        W45727   6.479   9.886  11.636  0.1737 -0.0432  0.3931
29254W        W45728   1.883  12.450   9.947  0.0211  0.0603  0.0175
29255W        W45729  16.370  19.238  11.144 -0.0071  0.0685  0.0327
29256W        W45730  13.490   6.131   5.620  0.3501 -0.0153 -0.1783
29257W        W45731   3.076  10.670   2.844  0.2021  0.0509 -0.2913
29258W        W45732  14.281  14.057  10.621 -0.2617 -0.0732 -0.1356
29259W        W45733  18.975  11.188   1.879 -0.0110 -0.1245 -0.3476
29260W        W45734   0.286   7.249   3.211  0.0064  0.3328  0.1824
29261W        W45735  19.191  16.298   1.219  0.4677  0.1728  0.2397
29262W        W45736  14.176  15.005  10.916 -0.1344 -0.1400 -0.4495
29263W        W45737   1.345  15.356  14.096  0.2101 -0.0073 -0.0875
29264W        W45738   1.519   8.096   0.208  0.1272  0.1999  0.2428
29265W        W45739   5.052   4.082   0.966  0.1024 -0.2783  0.1693
29266W        W45740   5.588   7.341   5.998 -0.1355 -0.3464  0.0502
29267W        W45741   1.265  17.309   3.257  0.5893 -0.0626 -0.1809
29268W        W45742   2.983   9.345   1.470  0.0180  0.1009 -0.1099
29269W        W45743  13.756   7.137  13.531 -0.1195  0.0785 -0.0457
29270W        W45744  14.202   3.249   0.014  0.3620  0.0093  0.1124
29271W        W45745   2.325   3.955   3.615 -0.1927 -0.0169 -0.1470
29272W        W45746   1.950   5.408  12.258  0.0493 -0.0591  0.4480
29273W        W45747  19.206  17.828   0.352 -0.0762  0.2080  0.1837
29274W        W45748   5.894  13.083   1.700  0.1085  0.0090  0.2239
29275W        W45749  16.126  10.961   2.438 -0.1316 -0.1932 -0.2203
29276W        W45750   3.618   8.924   0.479 -0.2241  0.0419 -0.0553
29277W        W45751   4.213   6.084  12.812  0.1646  0.2107  0.3625
29278W        W45752   5.121   7.807   1.485  0.0936  0.2238  0.3027
29279W        W45753  17.471   0.548  12.789  0.0463 -0.2487  0.0573
29280W        W45754  16.949   0.698   0.144 -0.0437  0.0039  0.4564
29281W        W45755  15.603   7.177   3.039  0.2018 -0.2961  0.0539
29282W        W45756   4.885   2.094  13.457 -0.0846  0.0949 -0.0030
29283W        W45757   7.359   2.749  12.465 -0.1850 -0.1490 -0.1294
29284W        W45758  18.861  11.642   2.772 -0.1469 -0.0800 -0.1395
29285W        W45759   4.484  18.010  14.615  0.0569 -0.0829  0.1603
29286W        W45760   2.681  16.494  13.561  0.0848 -0.0327 -0.2858
29287W        W45761   8.636   4.605   0.528  0.0642 -0.1158  0.1146
29288W        W45762  16.666  13.768  10.653 -0.0608 -0.3359  0.0642
29289W        W45763   2.999  16.425  11.177  0.6009 -0.2440  0.0034
29290W        W45764   6.241   0.942   3.500  0.0388 -0.2522  0.0027
29291W        W45765   9.180  18.944  10.604  0.0725  0.1513  0.0146
29292W        W45766  13.150  13.945   1.102  0.0485  0.0757  0.1394
29293W        W45767  16.890  16.209   4.669 -0.2334  0.0279 -0.0041
29294W        W45768   8.059   9.309   2.963 -0.0350  0.1240 -0.2673
29295W        W45769  14.327   0.533  12.874  0.0025 -0.2060 -0.0126
29296W        W45770  19.139  11.127  14.607 -0.0440  0.2777 -0.1650
29297W        W45771   3.034  12.726   9.528  0.0019 -0.2024 -0.2507
29298W        W45772   4.192   9.253  11.958 -0.0758  0.5017 -0.0880
29299W        W45773  18.383   6.676  13.399 -0.3509  0.1357  0.1498
29300W        W45774   8.481   3.535   1.233 -0.0903  0.0755  0.0335
29301W        W45775  11.706   0.039  11.368  0.1400  0.1868  0.0958
29302W        W45776   3.501  15.560   4.381 -0.0002 -0.0724 -0.0917
29303W        W45777   3.174  12.653   2.818 -0.3855  0.1403 -0.0348
29304W        W45778   9.162  19.270  13.386  0.0406 -0.1804 -0.0007
29305W        W45779  11.791  12.005  13.114  0.1322 -0.0140 -0.0797
29306W        W45780  11.226   9.634   3.386 -0.0178 -0.1100 -0.0258
29307W        W45781   3.352  15.494   8.791  0.1740  0.2066  0.1652
29308W        W45782  15.028   6.308  11.060  0.3064 -0.1076  0.3274
29309W        W45783  10.432  17.850   1.651 -0.2468 -0.0509 -0.0227
29310W        W45784   5.062   1.316   5.074  0.0018  0.3936 -0.2681
29311W        W45785   0.398   8.875   3.422 -0.1463 -0.0240 -0.1208
29312W        W45786  18.633   3.777  13.244 -0.2034  0.1240 -0.2155
29313W        W45787   8.009   2.956   5.589  0.0569 -0.1024  0.0900
29314W        W45788   9.144   9.927   1.788  0.0871  0.0968  0.0803
29315W        W45789   6.474  16.801  12.459 -0.0971 -0.4152  0.1986
29316W        W45790  17.664   1.183   1.678  0.0374 -0.1840  0.0539
29317W        W45791   6.687  17.287  11.372  0.0940  0.3880 -0.0121
29318W        W45792  17.185   7.661   0.236  0.0842  0.1754 -0.1583
29319W        W45793   9.019  16.704   0.192  0.1285 -0.1771  0.0472
29320W        W45794   5.892  11.314   2.659  0.0804  0.1876 -0.1392
29321W        W45795   6.777   2.082   1.924  0.0424  0.1648 -0.0933
29322W        W45796   2.348  16.881   1.749  0.1438 -0.1701 -0.0327
29323W        W45797  10.006   6.930   5.590 -0.2601 -0.2106  0.0469
29324W        W45798   8.698   5.794  12.142  0.1966  0.0787 -0.0553
29325W        W45799  17.816  16.102  12.107  0.1331  0.1175  0.1668
29326W        W45800   0.991   0.369   2.362  0.1542 -0.4187 -0.0218
29327W        W45801  17.773  11.688   1.745 -0.2802 -0.1886 -0.0577
29328W        W45802  14.070  17.811  11.754  0.0596 -0.0497  0.4737
29329W        W45803  18.151   8.781   2.773  0.1609  0.1420 -0.1964
29330W        W45804  11.657  14.836   3.522  0.3269 -0.2707  0.2529
29331W        W45805   8.789  15.561  12.592 -0.0200 -0.2099 -0.0560
29332W        W45806  11.007  15.927   0.440 -0.0026  0.0537  0.0988
29333W        W45807   4.179  16.115   4.490  0.0308  0.0592  0.1405
29334W        W45808  15.604  14.721  10.968 -0.0908  0.4307  0.3212
29335W        W45809   3.093  12.205  12.396  0.3554  0.2092 -0.1239
29336W        W45810   1.220   7.840   2.147  0.2680  0.1575 -0.2584
29337W        W45811  15.852   2.995   4.254  0.1151 -0.1340 -0.1768
29338W        W45812   1.904   1.409   0.954  0.2689 -0.0194  0.0970
29339W        W45813  11.532   0.928  11.251 -0.0682  0.1545 -0.1310
29340W        W45814  17.468  14.134   2.613  0.3088  0.0631  0.0645
29341W        W45815   8.650   0.582   1.294  0.5018  0.0926  0.3434
29342W        W45816  18.515  11.974  12.695 -0.2000  0.2480  0.0884
29343W        W45817  11.985   8.868  11.527  0.4013  0.2442 -0.1841
29344W        W45818  10.877   1.979   1.907  0.1619  0.0790  0.0596
29345W        W45819   1.889  11.375   2.536 -0.4405  0.1449  0.0729
29346W        W45820   6.484   4.009  11.552  0.0217 -0.0701  0.1617
29347W        W45821  18.588  10.119   2.689 -0.2780  0.1580 -0.0427
29348W        W45822   3.559   9.559   3.784 -0.3912  0.3251 -0.0067
29349W        W45823  16.160   6.536   4.122 -0.0414 -0.0569 -0.0983
29350W        W45824  16.793  12.386   0.794  0.1751  0.3618 -0.0812
29351W        W45825  11.537   4.963   1.810 -0.0034  0.0587 -0.3071
29352W        W45826   8.547   5.393   4.110  0.2317  0.0314  0.3435
29353W        W45827   1.013  14.159  10.666  0.1002 -0.3317  0.1988
29354W        W45828  10.588  10.034  12.106  0.1349  0.0008 -0.1720
29355W        W45829  10.316  13.419   1.993 -0.3056 -0.3519  0.0757
29356W        W45830  17.865   0.785   1.888  0.0209 -0.1478  0.1403
29357W        W45831  17.487   8.625   4.681 -0.0276  0.1275  0.1437
29358W        W45832   8.432   7.313   1.251 -0.0792  0.1938  0.0226
29359W        W45833   4.870   2.243  13.985  0.1353 -0.0463  0.0769
29360W        W45834  12.765  11.021   2.215 -0.1212  0.0879  0.3014
29361W        W45835   3.275  13.138   9.193  0.3763 -0.1462 -0.2247
29362W        W45836  16.504   9.899   1.540  0.1617  0.0197 -0.0020
29363W        W45837   8.994   0.783  10.392  0.0825  0.0762  0.0726
29364W        W45838   1.935  18.416   4.490  0.0679 -0.2402  0.1893
29365W        W45839  18.622   5.213  14.667 -0.0984  0.0016 -0.1347
29366W        W45840   3.305  11.066   3.597 -0.0175 -0.1039  0.1481
29367W        W45841  11.271  12.615  10.294 -0.0759 -0.0404 -0.0087
29368W        W45842   3.229  16.793   0.434  0.0811 -0.1908 -0.2623
29369W        W45843  10.606  19.158   4.579  0.1555  0.0234  0.0106
29370W        W45844   4.425   1.538   2.524 -0.0458  0.3574 -0.0757
29371W        W45845  14.353  12.809   2.108  0.1047  0.2489 -0.1333
29372W        W45846   7.343  16.947  12.309  0.2205 -0.1665 -0.0307
29373W        W45847  18.599   3.194  10.954  0.3442  0.0762 -0.4438
29374W        W45848   9.230   3.791  10.557 -0.3003  0.1925 -0.1931
29375W        W45849   6.436   2.788  12.578  0.1745 -0.0574 -0.3478
29376W        W45850   0.670   3.669  10.823  0.2327  0.2070  0.2387
29377W        W45851  10.197  10.549  13.410 -0.1224 -0.2850 -0.1619
29378W        W45852   6.285   6.116   1.284 -0.1242  0.2727  0.0298
29379W        W45853   8.685   4.928   3.344 -0.0751  0.0804  0.0599
29380W        W45854   7.413   6.493   3.929  0.0120  0.1077 -0.0894
29381W        W45855   0.401   9.128  12.947  0.0449  0.1546 -0.0378
29382W        W45856  18.650  11.849  13.356  0.0104  0.0013 -0.4627
29383W        W45857  19.264  10.941  10.381 -0.1321  0.0114  0.0749
29384W        W45858   9.469  15.980   2.696  0.0932 -0.2662  0.0560
29385W        W45859   7.098  16.648  13.213 -0.3867 -0.4615 -0.0688
29386W        W45860  12.979  12.307  13.060  0.2968 -0.1244 -0.1751
29387W        W45861  12.149  16.093   4.554 -0.0490 -0.0268 -0.0286
29388W        W45862   8.765  15.277  12.078 -0.1248  0.0227 -0.1220
29389W        W45863  18.065   3.622   4.818 -0.0432  0.0431  0.0163
29390W        W45864   5.811  15.591  11.927  0.1551 -0.1369 -0.3434
29391W        W45865   6.113   4.892  10.707 -0.1026  0.2147 -0.0889
29392W        W45866   1.144   7.850   4.775 -0.2300  0.3847  0.1297
29393W        W45867  17.578   2.556  10.647  0.2136 -0.1308 -0.2174
29394W        W45868  17.783  16.359   2.086 -0.0595  0.0733  0.3023
29395W        W45869   6.672  15.914   2.847 -0.0050 -0.1654  0.0701
29396W        W45870   7.571  11.132  13.559 -0.1107 -0.1113  0.0020
29397W        W45871  17.413  18.762  10.374 -0.2256 -0.1799  0.0299
29398W        W45872  17.006   0.073  10.672  0.0391 -0.0507  0.0582
29399W        W45873  14.259  19.396  10.423  0.0283  0.2589  0.2947
29400W        W45874   4.281  19.087   4.673  0.0508  0.0182 -0.0123
29401W        W45875  12.569   7.637  10.774 -0.1432 -0.1245 -0.1585
29402W        W45876   3.760  10.728   0.998  0.1401 -0.0458 -0.2102
29403W        W45877  15.773  10.592  11.745  0.1293  0.0742  0.0225
29404W        W45878  18.837  14.850   0.395  0.2966 -0.0691  0.1721
29405W        W45879   5.455  10.041   2.722 -0.1551 -0.3223  0.1285
29406W        W45880  17.374  18.434   9.103  0.5393 -0.1724 -0.0858
29407W        W45881  13.825  14.478  11.512  0.4009  0.0964  0.2456
29408W        W45882  17.275   5.418  11.747  0.0981  0.2415  0.1650
29409W        W45883   2.062   0.418  10.219 -0.4031 -0.4115  0.0779
29410W        W45884  16.023  16.261   0.469  0.2937  0.0734  0.1950
29411W        W45885  18.506   9.564  13.501 -0.0596 -0.5035 -0.3869
29412W        W45886  19.125  11.011  11.203 -0.0348 -0.0999 -0.0274
29413W        W45887  15.362   4.621  12.925  0.5769  0.1557  0.1195
29414W        W45888  13.955  16.825   9.725  0.1568 -0.0082  0.3009
29415W        W45889   8.156   3.773   4.882 -0.1955 -0.2558 -0.1630
29416W        W45890  16.159  18.440   2.626  0.0068 -0.3709 -0.0178
29417W        W45891   7.377  12.772   1.154 -0.3288 -0.0502 -0.0876
29418W        W45892  12.198  18.819  10.139  0.0790  0.4720 -0.2173
29419W        W45893   7.675  10.928  14.377  0.3724  0.3258  0.5257
29420W        W45894  12.523  18.951   4.102 -0.3288 -0.2124  0.6538
29421W        W45895   3.409  16.417  10.317  0.1771  0.0664  0.2494
29422W        W45896   3.130  14.600   3.410  0.2318  0.2545  0.1091
29423W        W45897   7.773  14.877   4.660 -0.0119  0.1282 -0.2092
29424W        W45898   1.076  16.501  12.127  0.1896 -0.1245 -0.1763
29425W        W45899  11.362  17.295  12.245 -0.0183 -0.0162  0.0589
29426W        W45900  11.308  14.942  13.378  0.1092 -0.0310  0.3635
29427W        W45901  18.376  12.119  11.193 -0.0427  0.3925  0.0381
29428W        W45902   7.891   9.135   0.764 -0.0409  0.0433  0.1076
29429W        W45903  13.466  13.961  12.228 -0.0173  0.2634 -0.0743
29430W        W45904  19.136   9.964   1.502  0.2068  0.0964 -0.0992
29431W        W45905  14.486   0.306   4.646 -0.1568  0.4143  0.1216
29432W        W45906   4.266  10.538   1.741  0.1594  0.2645 -0.1938
29433W        W45907  16.739  18.617   0.114 -0.2476 -0.0692 -0.2443
29434W        W45908   2.447   3.965  11.737 -0.2924 -0.1467  0.2163
29435W        W45909   8.429  19.308   1.802  0.2188  0.0363 -0.2263
29436W        W45910   1.306  10.757   0.684 -0.5233 -0.1104  0.2633
29437W        W45911   8.714   9.798   5.720  0.0781  0.2004 -0.2818
29438W        W45912   0.633  18.125   2.881 -0.1194  0.0027  0.2011
29439W        W45913   0.772   9.085   1.188 -0.3233  0.5585 -0.0479
29440W        W45914  17.778  18.995   9.480  0.2055 -0.2175 -0.0974
29441W        W45915  10.521  10.591  11.970  0.0983 -0.3586 -0.1779
29442W        W45916   4.413   8.246   1.490 -0.2207 -0.1828  0.0495
29443W        W45917  18.504   3.360   3.985 -0.1969  0.3280  0.1649
29444W        W45918  18.404  18.451   2.304  0.1603 -0.0315  0.0309
29445W        W45919  14.850   8.596  10.340  0.0716  0.1429 -0.0600
29446W        W45920  14.279  11.027   1.882 -0.0666  0.0084  0.0835
29447W        W45921   8.368  11.487   2.303  0.1286  0.2091 -0.1828
29448W        W45922   9.940   2.752   5.784  0.1339  0.1402 -0.2359
29449W        W45923  13.233  14.366   1.333  0.0494 -0.0116 -0.0629
29450W        W45924  19.103   9.358  11.278 -0.0661  0.1427  0.2430
29451W        W45925  10.065   4.021  12.401 -0.0379  0.0264 -0.0280
29452W        W45926   9.184   1.501  13.385  0.1319  0.2560  0.2746
29453W        W45927   7.154  13.812  14.272  0.2381  0.0944  0.0914
29454W        W45928  10.778  16.141  14.347  0.2800  0.1606 -0.4626
29455W        W45929  14.676   1.065  13.148 -0.2329 -0.1142  0.0117
29456W        W45930   9.021   3.686   3.623 -0.2166  0.0789  0.2851
29457W        W45931  14.324   7.787   2.701  0.0269 -0.2045  0.0518
29458W        W45932  13.162  16.258   4.682 -0.0694 -0.0540 -0.1114
29459W        W45933   2.176   8.491   1.160 -0.1553 -0.2421 -0.0734
29460W        W45934  16.269  19.352   9.858  0.0302  0.2168 -0.0106
29461W        W45935   5.640  10.714  12.422 -0.1154 -0.0957  0.1680
29462W        W45936   7.760   8.809  10.758 -0.2214  0.0323 -0.0840
29463W        W45937   8.196   4.567   5.125  0.3507  0.0480 -0.0196
29464W        W45938   9.098   5.399   4.996  0.1520  0.2292 -0.1941
29465W        W45939   0.124  16.177  12.123 -0.2176  0.2030  0.0452
29466W        W45940   5.674  18.138   4.219 -0.0784 -0.0822  0.0826
29467W        W45941  18.998  13.012  12.336  0.2619  0.0971 -0.2047
29468W        W45942  19.029  13.139   0.780  0.0690  0.4985  0.0969
29469W        W45943  10.952  10.258  12.396  0.1538  0.1037  0.1391
29470W        W45944  15.621   5.646  11.289 -0.2807 -0.5944 -0.2009
29471W        W45945  18.432   6.093   2.520  0.2455 -0.0823 -0.3452
29472W        W45946   5.291  10.446   2.199  0.0058 -0.0585  0.3096
29473W        W45947  17.191  10.456   3.548  0.1093  0.0902 -0.0119
29474W        W45948  18.576   4.082  12.839  0.1362  0.0112 -0.0892
29475W        W45949  14.877   3.664   3.092 -0.0365  0.0989 -0.1342
29476W        W45950   9.146  16.350  12.315  0.0127  0.2122  0.1731
29477W        W45951  10.130   8.624  12.626 -0.0439 -0.1027 -0.2396
29478W        W45952   2.049   8.023  11.278  0.2655 -0.2283  0.3175
29479W        W45953  15.035  18.205  14.268  0.0557  0.0983 -0.4379
29480W        W45954   4.980   9.300   1.400  0.0485 -0.0223  0.1707
29481W        W45955  16.936   1.811  13.283  0.1436  0.4682 -0.0553
29482W        W45956  13.994   0.332   2.944  0.0601 -0.0316  0.1394
29483W        W45957   2.398  13.358   0.323 -0.1422 -0.2220  0.0408
29484W        W45958  12.418   5.964   3.512 -0.1838 -0.0890  0.2975
29485W        W45959   3.795   8.996   3.541 -0.2196 -0.0312 -0.0730
29486W        W45960   2.242  14.536   3.952 -0.1729  0.1492 -0.3645
29487W        W45961   3.274  17.308  14.269  0.2659  0.2004 -0.3524
29488W        W45962   0.596  15.319  13.609  0.0480 -0.0818  0.1152
29489W        W45963  18.451  14.364  11.227  0.2313  0.3093 -0.0393
29490W        W45964   3.236  12.889  11.239  0.0325 -0.2204  0.2896
29491W        W45965  16.107  15.552  10.759  0.0808 -0.1596 -0.0003
29492W        W45966  18.547  19.103  13.905 -0.1500  0.1758  0.0187
29493W        W45967  17.315   9.949   3.438 -0.2723 -0.0425 -0.1649
29494W        W45968   2.583  17.400  10.120  0.1717 -0.2975  0.0566
29495W        W45969  15.626   4.784   4.551  0.0684  0.0326 -0.1668
29496W        W45970  15.130   6.088  10.620 -0.2263 -0.4329 -0.0930
29497W        W45971  12.578  19.312   1.945  0.0094 -0.1226  0.0587
29498W        W45972  18.241  11.275   1.156  0.0715 -0.2349  0.2859
29499W        W45973   2.613  12.473  11.187 -0.0492  0.3210 -0.0863
29500W        W45974   1.162  11.570   1.925 -0.0742  0.2512 -0.2975
29501W        W45975   8.688  18.935  12.491  0.3424 -0.0179  0.3311
29502W        W45976  14.016  18.041   5.864  0.2167 -0.1631  0.0953
29503W        W45977  12.918   4.568   0.835 -0.0780  0.2893 -0.0453
29504W        W45978   8.619   8.272   5.811 -0.2496 -0.1693 -0.1840
29505W        W45979  19.472  15.404   0.628  0.0028  0.1089  0.0300
29506W        W45980   7.119  13.135  13.540 -0.2035 -0.2805 -0.2731
29507W        W45981  18.751  18.824   1.589  0.2210 -0.1273  0.2718
29508W        W45982  15.999   7.580  12.958 -0.0872  0.1264  0.0720
29509W        W45983  17.936   0.163   0.200  0.0537 -0.1211  0.3011
29510W        W45984  17.345   5.231   3.500 -0.1026  0.0544 -0.1405
29511W        W45985  17.617   4.964  14.627 -0.0528  0.1734  0.1579
29512W        W45986   3.792   2.566   0.422 -0.0298 -0.1789 -0.0645
29513W        W45987  15.328  17.442  11.580  0.2229 -0.1544  0.1710
29514W        W45988   1.361   0.724   3.251  0.2550  0.3584  0.0882
29515W        W45989   5.310   1.149   0.706  0.1301  0.1289  0.0975
29516W        W45990   3.465  13.471  10.000 -0.1898  0.4050  0.0674
29517W        W45991   0.023  11.167  11.307 -0.2088  0.0846 -0.1517
29518W        W45992  14.582  10.767  14.637  0.1897  0.1369  0.3529
29519W        W45993  16.803  17.439  10.550  0.0809  0.1701  0.1778
29520W        W45994   9.754   9.596  11.706  0.0293 -0.0806 -0.0427
29521W        W45995   4.942  15.175   1.228  0.1253  0.0916  0.2901
29522W        W45996  17.139  18.946   0.766  0.1591 -0.0393  0.2638
29523W        W45997   3.004   7.296   4.041 -0.1913 -0.0168 -0.0456
29524W        W45998   9.220  15.213  10.079 -0.1222  0.0580 -0.0309
29525W        W45999   5.977  15.912  11.566 -0.1460 -0.0668 -0.1929
29526W        W46000  12.871  14.666  10.494  0.0382 -0.1691 -0.1833
29527W        W46001   9.603   4.613   1.015  0.0169 -0.1690 -0.2138
29528W        W46002  11.033   4.910  12.950 -0.2587 -0.2390 -0.1989
29529W        W46003  11.926  11.992   3.246 -0.0293 -0.2136  0.3605
29530W        W46004   1.032  19.260   2.977  0.0125 -0.1675 -0.0332
29531W        W46005   9.293   8.022  14.693  0.0270 -0.0807 -0.1524
29532W        W46006  11.947   2.436  11.233 -0.2971 -0.0422  0.2538
29533W        W46007  10.613  15.307   2.743  0.1353  0.0618 -0.2360
29534W        W46008   7.108   1.921   3.810  0.3310  0.3320 -0.3152
29535W        W46009   2.372   4.445   0.133  0.3313  0.0972 -0.1834
29536W        W46010  16.564   8.942  11.177 -0.3906 -0.0213 -0.2949
29537W        W46011  18.498  10.058  14.635  0.1171 -0.2482  0.3604
29538W        W46012   5.943  18.941   9.900  0.3048  0.4475 -0.2311
29539W        W46013   7.078   0.342  14.595 -0.1369 -0.0231  0.5093
29540W        W46014  18.642  16.464   2.171  0.0820 -0.1476 -0.1015
29541W        W46015   1.119   5.655  10.234  0.0549 -0.0515  0.0971
29542W        W46016  16.359   2.136  10.253  0.1772  0.0246 -0.1719
29543W        W46017   7.164   9.135  12.516  0.3279 -0.0698 -0.3385
29544W        W46018  10.786  19.495   3.642  0.0380  0.2606 -0.1307
29545W        W46019   2.785   9.241   4.405 -0.4370 -0.0725 -0.0569
29546W        W46020  12.830  10.712  10.558 -0.2735  0.0665  0.3400
29547W        W46021  15.699   9.379  12.529 -0.0877  0.4407  0.3270
29548W        W46022   0.100   0.241   1.616 -0.0624 -0.2403  0.1105
29549W        W46023   2.431  14.126   2.054  0.1331  0.0765 -0.1008
29550W        W46024  10.056  11.891  10.534  0.0587  0.1942  0.0878
29551W        W46025   3.403  11.834   4.673  0.3899  0.2233  0.0535
29552W        W46026   8.001   7.859  13.496 -0.0742 -0.1571 -0.0351
29553W        W46027   2.985   2.734   4.265  0.1872 -0.3011  0.0749
29554W        W46028   8.759   4.187   0.885  0.0517 -0.1151 -0.0272
29555W        W46029  14.456  12.469  10.697  0.1667  0.1284 -0.1517
29556W        W46030  14.685   6.908   1.730  0.0647 -0.0258 -0.1933
29557W        W46031  18.144   4.650   3.169 -0.2034 -0.3131 -0.0903
29558W        W46032   7.580  10.315   4.021  0.2241  0.0234 -0.1457
29559W        W46033   0.904  14.881   1.135  0.1860 -0.2861 -0.3311
29560W        W46034   6.701  12.861   4.358 -0.0190 -0.2102  0.0607
29561W        W46035   1.448  13.766   2.025 -0.2847  0.0026  0.0311
29562W        W46036   7.958   4.508  12.940 -0.2647  0.2783  0.0218
29563W        W46037   6.177   5.659   0.488  0.1058  0.2855  0.1663
29564W        W46038   1.059   7.299   0.495 -0.2129 -0.0016 -0.2332
29565W        W46039   9.001   2.784  11.220  0.0592 -0.5344 -0.0049
29566W        W46040  14.639  14.079  13.318 -0.1997  0.0695  0.1682
29567W        W46041  16.072  13.833   3.224 -0.1406  0.0647 -0.2426
29568W        W46042  16.273   2.469  12.943  0.3485 -0.0837  0.0764
29569W        W46043  12.639   4.875   3.959 -0.0745 -0.0509  0.1600
29570W        W46044  11.695   3.668   4.985  0.0449 -0.1012 -0.1851
29571W        W46045   4.735   1.951  10.401 -0.0682 -0.0239 -0.3155
29572W        W46046   5.887   0.240  14.475 -0.0010 -0.1337 -0.4598
29573W        W46047   9.675  10.854   1.170  0.0167 -0.1712  0.1493
29574W        W46048  15.828   5.720   3.865 -0.0550 -0.0999  0.2545
29575W        W46049  17.251  18.317   9.603 -0.2656  0.0953  0.2707
29576W        W46050  13.980  18.566  12.150  0.2254 -0.3087  0.4522
29577W        W46051  17.824   0.265  12.543  0.2133  0.1651  0.0692
29578W        W46052  10.308  15.084   5.392  0.1058 -0.0315 -0.1864
29579W        W46053   3.374   9.922   0.991 -0.2009 -0.1396  0.0400
29580W        W46054  17.618  16.325  11.694  0.1465  0.5322  0.2711
29581W        W46055  17.038  15.751   4.988  0.4063  0.1651 -0.0888
29582W        W46056  17.077   2.344  13.234  0.2702 -0.0308 -0.0975
29583W        W46057  13.289  12.221   5.355  0.0073 -0.1157  0.1481
29584W        W46058  10.804  16.783  12.104 -0.0970  0.0060  0.2950
29585W        W46059   0.580  13.540  13.299 -0.1335  0.3578 -0.3081
29586W        W46060   8.588   2.730  10.274  0.0754 -0.2611 -0.2584
29587W        W46061   6.443   8.594  14.306 -0.0400 -0.0413  0.2344
29588W        W46062  16.670   0.299   0.376  0.2549  0.2670 -0.1880
29589W        W46063  10.949   4.617  11.055 -0.0028 -0.0282  0.0895
29590W        W46064   4.130   6.004  13.640 -0.1303 -0.1826  0.0767
29591W        W46065   9.725  12.661  10.857  0.2289  0.0828  0.1849
29592W        W46066  11.747  13.005  11.474 -0.1022  0.0801  0.0087
29593W        W46067   0.696   2.316   0.579  0.3269 -0.0556 -0.0903
29594W        W46068  11.634  17.997   0.679 -0.0433  0.4828  0.0814
29595W        W46069  10.190   9.753   4.199  0.4251 -0.1602 -0.0676
29596W        W46070   8.261  13.933  13.341  0.1965 -0.1078 -0.0325
29597W        W46071   8.971   9.306   0.328 -0.1148 -0.0610 -0.4615
29598W        W46072   1.722  17.962   3.625 -0.0533  0.1378 -0.0926
29599W        W46073   0.038   7.254  14.174  0.0521 -0.0023  0.1753
29600W        W46074  19.307   0.062  10.891  0.2283 -0.2732  0.3155
29601W        W46075   9.221   6.831   1.066  0.1505  0.2502  0.1449
29602W        W46076   6.405  18.098   1.614 -0.2042 -0.0234 -0.0133
29603W        W46077   8.469  14.415   4.322  0.0802  0.0814  0.0557
29604W        W46078   7.198  10.112  13.564  0.3531  0.0279  0.2777
29605W        W46079   3.185  14.174   8.909  0.1015  0.1020 -0.1076
29606W        W46080   8.379  15.371  12.867 -0.1207 -0.2099  0.2761
29607W        W46081   2.604  13.551  13.474  0.2421 -0.1604 -0.0504
29608W        W46082  19.541   2.662  12.149  0.2792  0.1447 -0.1827
29609W        W46083   1.380   6.455   3.509 -0.0953 -0.1092 -0.2351
29610W        W46084  15.747   0.940   2.814 -0.2355 -0.1556 -0.1260
29611W        W46085  13.433  15.897  10.932  0.1424  0.2101 -0.2398
29612W        W46086   7.099  12.310  11.975 -0.3439  0.1803  0.2386
29613W        W46087   5.092   6.905  11.098  0.0711 -0.0526  0.2236
29614W        W46088  13.028  10.700  13.054 -0.0288 -0.0202  0.2782
29615W        W46089   1.932   8.651  12.652 -0.2505 -0.2170 -0.2228
29616W        W46090   0.212  16.406   1.226  0.1502  0.1140 -0.0339
29617W        W46091   0.836  13.993  14.704 -0.1495 -0.0681  0.1832
29618W        W46092   3.751   6.298   4.172 -0.1406 -0.0953 -0.2194
29619W        W46093   7.981   1.347   2.691  0.1784  0.1830 -0.0955
29620W        W46094  17.064  16.670   2.705  0.2814 -0.0455 -0.0177
29621W        W46095   1.917   4.088   5.424 -0.2210  0.1594 -0.0455
29622W        W46096  11.670   9.832  13.867  0.0774 -0.2683 -0.2011
29623W        W46097   1.036   8.877   4.920 -0.0437  0.0571 -0.0279
29624W        W46098  15.237   4.956   0.602  0.0996  0.1171 -0.2206
29625W        W46099  11.323   5.298   3.273 -0.0792  0.0058  0.3734
29626W        W46100  10.620   4.097   2.663  0.3025 -0.1761 -0.0309
29627W        W46101   0.285  12.443  11.487 -0.1851 -0.2989  0.0349
29628W        W46102  10.463   6.272   2.619 -0.3712  0.0822 -0.1489
29629W        W46103  17.501   2.404   5.168 -0.0560  0.1835  0.1228
29630W        W46104   3.298  10.545   1.988 -0.0749  0.1103 -0.0221
29631W        W46105  17.611   1.789   1.155 -0.0915  0.0012 -0.1001
29632W        W46106  17.069   6.913  11.303 -0.2098 -0.0082 -0.2104
29633W        W46107   6.495   2.551   0.709 -0.2909 -0.2787 -0.3306
29634W        W46108   5.368   2.542  10.994  0.1200  0.0879  0.2386
29635W        W46109  10.294   3.050  12.561 -0.2300 -0.0455 -0.1765
29636W        W46110  18.590  17.266  10.812  0.3045 -0.2464 -0.3844
29637W        W46111   9.468   3.547  11.544  0.3033 -0.1870 -0.0999
29638W        W46112  17.891  14.994  14.319 -0.0076  0.1331 -0.2276
29639W        W46113   7.088   0.394  10.846  0.2908 -0.0106 -0.1882
29640W        W46114   1.328  17.460  11.323  0.3090  0.1053 -0.1705
29641W        W46115   8.570  18.367   1.657  0.0174 -0.0598  0.1234
29642W        W46116  18.908  15.465   4.136  0.0956 -0.1691  0.1216
29643W        W46117   2.730  12.571  12.459  0.0481  0.0799  0.0934
29644W        W46118  11.821   1.706   1.660  0.1962  0.2680  0.0131
29645W        W46119  14.160  17.265   2.279 -0.1321  0.0200 -0.0847
29646W        W46120  17.070  15.927  10.904 -0.2916  0.0329 -0.1373
29647W        W46121   7.959  13.933   0.865  0.0605  0.1162  0.0810
29648W        W46122  10.247   4.325  14.584  0.2591 -0.2906 -0.0337
29649W        W46123   3.758   2.300   2.691 -0.1479  0.0087  0.4214
29650W        W46124  10.938  10.042   0.062 -0.1331 -0.1020  0.0227
29651W        W46125   1.018   4.652  12.869  0.0114 -0.2530 -0.0451
29652W        W46126   1.642  10.142  13.546  0.2832  0.1727  0.1588
29653W        W46127  12.280   0.559   1.136 -0.4151 -0.0803  0.1805
29654W        W46128  16.626   5.014   1.630 -0.1433 -0.0851 -0.1894
29655W        W46129   4.930   4.643  11.441 -0.2361 -0.1764  0.0481
29656W        W46130   5.896  10.269  12.575 -0.0305  0.0130 -0.1502
29657W        W46131  10.921   8.697  13.502  0.1736  0.1066 -0.2125
29658W        W46132  18.623  13.302   3.417 -0.0930 -0.0741  0.3569
29659W        W46133  10.542  17.955   4.872  0.0945  0.2468  0.3971
29660W        W46134  19.510  13.007  10.418 -0.0508 -0.3147  0.1858
29661W        W46135   1.711  18.569  10.629 -0.1716 -0.1701 -0.1939
29662W        W46136  12.597   3.915  10.592  0.1628  0.0430  0.2417
29663W        W46137  17.168   7.131   1.277 -0.2133 -0.0366  0.5210
29664W        W46138  18.829  18.308  13.693 -0.0361 -0.0555 -0.3339
29665W        W46139   6.571   2.835   3.651 -0.3893  0.3880  0.1486
29666W        W46140  13.506   7.474   4.894  0.2204  0.0522  0.0145
29667W        W46141  10.247   0.217  12.076 -0.1031 -0.3059 -0.0048
29668W        W46142   4.100   0.811  13.553 -0.0002 -0.0967 -0.0571
29669W        W46143  11.622  17.609  10.106  0.2327 -0.0333  0.0731
29670W        W46144   6.203  10.756   0.064  0.3639  0.1937 -0.1489
29671W        W46145   9.469   2.845   2.721 -0.1051 -0.1079  0.3492
29672W        W46146   2.637   1.638  10.826  0.1796  0.1562  0.1592
29673W        W46147   2.660   3.997  13.648  0.0179  0.3172 -0.1316
29674W        W46148   0.063  10.313   9.658  0.0848  0.2214 -0.0816
29675W        W46149   7.419  15.401   0.739  0.1885 -0.1612  0.1692
29676W        W46150  18.716   1.898   2.328 -0.0612  0.0500  0.1399
29677W        W46151  11.520  19.183  11.644 -0.1780  0.3401 -0.1039
29678W        W46152  14.428   9.022  14.467  0.1394 -0.0799  0.3012
29679W        W46153   3.293   3.020  12.221  0.2045  0.0012 -0.0375
29680W        W46154  13.691  15.066  13.364 -0.3937 -0.0564 -0.4471
29681W        W46155  18.894   3.081   2.470  0.2320  0.0505  0.0753
29682W        W46156  14.369  16.342   0.878  0.0351  0.2102  0.0621
29683W        W46157   9.862  18.160   3.007 -0.0030  0.1286 -0.0974
29684W        W46158  10.239   4.196  11.440 -0.2294  0.0160 -0.0169
29685W        W46159  14.703   4.283   5.046  0.2307 -0.0065  0.3137
29686W        W46160  13.628  10.105   0.875  0.0442  0.0441  0.0882
29687W        W46161  13.994  14.774  12.301  0.1081 -0.0883 -0.2268
29688W        W46162  17.155   6.868  10.656 -0.1261 -0.1137  0.1276
29689W        W46163   1.471   5.978  14.464 -0.2365  0.1170  0.2281
29690W        W46164   8.866   6.565   2.430  0.1493  0.2480  0.0685
29691W        W46165   6.058  18.056   2.930 -0.0757  0.3330  0.1937
29692W        W46166  14.900   9.459  11.770 -0.1740  0.0710  0.1516
29693W        W46167  11.298   3.917   0.120 -0.6344 -0.1414 -0.2037
29694W        W46168   9.177   4.899   1.584  0.2710  0.2622 -0.0239
29695W        W46169  19.201   2.450  10.798 -0.3222  0.3890  0.0508
29696W        W46170   2.070   7.253   0.074 -0.0391 -0.0428  0.0797
29697W        W46171   1.827   3.858  13.731 -0.0740 -0.2422  0.3001
29698W        W46172   8.049   9.506  12.390 -0.3767 -0.1634  0.1917
29699W        W46173   3.038   6.872   0.320  0.1087  0.1707  0.0682
29700W        W46174  15.801  18.530  11.592 -0.2337  0.0858  0.2145
29701W        W46175   2.257   0.484   2.576 -0.0521 -0.1188  0.0042
29702W        W46176  12.995  17.686  12.798 -0.0472 -0.1163 -0.0254
29703W        W46177  12.397  17.134  14.536  0.0775 -0.1641  0.0224
29704W        W46178  13.882  12.625   4.328 -0.2164 -0.2211 -0.1336
29705W        W46179  17.106   1.811   1.265  0.4132  0.2810  0.3522
29706W        W46180   0.358  11.339  10.861 -0.1541  0.1187 -0.1059
29707W        W46181  15.091  17.581   2.716 -0.2478 -0.0677 -0.1628
29708W        W46182  18.745  17.948   1.291 -0.2002 -0.0788  0.1628
29709W        W46183   1.689   0.765   1.763 -0.0060 -0.2400 -0.1510
29710W        W46184   6.790   6.510  13.550 -0.0862 -0.1468  0.0905
29711W        W46185  13.183  12.151  14.369 -0.0728  0.0610  0.1850
29712W        W46186   1.105   9.826   9.810 -0.1242 -0.2143  0.1193
29713W        W46187   3.394   1.359   1.577 -0.0734  0.1661  0.0437
29714W        W46188   9.733  10.558  13.608 -0.2052  0.1871  0.2745
29715W        W46189  12.377   4.939   1.887  0.1449 -0.2930  0.2957
29716W        W46190  13.841  10.473  12.551  0.1797  0.1685 -0.2099
29717W        W46191   4.100   1.248   3.548  0.3120 -0.0748  0.2715
29718W        W46192   6.571  13.759   2.162  0.2941  0.1875 -0.1831
29719W        W46193   3.956   4.566  12.936 -0.2526 -0.0613  0.1122
29720W        W46194   3.571  17.819  11.384  0.0165  0.0879 -0.0844
29721W        W46195   1.176  16.073  10.644  0.3807 -0.2864 -0.3869
29722W        W46196  17.763  17.913   0.248 -0.1196 -0.0113  0.0584
29723W        W46197  10.119  18.957  10.887  0.0973 -0.0933  0.0512
29724W        W46198   1.968  13.854  11.045 -0.1077 -0.0234  0.4527
29725W        W46199  15.687  19.266  14.274  0.1046 -0.1188 -0.3188
29726W        W46200   9.040  18.323  14.432 -0.0689  0.1094 -0.0055
29727W        W46201   4.385   2.302  13.367  0.0720  0.1977  0.2715
29728W        W46202  19.158   0.983   8.963 -0.0278  0.3189  0.1193
29729W        W46203   6.578  14.309   0.129 -0.0299 -0.0821 -0.1494
29730W        W46204  14.342  16.749  12.545 -0.0348 -0.4755 -0.2811
29731W        W46205  12.769   5.270   1.053 -0.1013 -0.1360 -0.2221
29732W        W46206   4.532   4.270  11.171 -0.0628  0.0282 -0.3131
29733W        W46207   7.110   4.629   3.411  0.0762 -0.0320  0.0908
29734W        W46208   6.832  14.932   1.701 -0.1401  0.1747  0.0849
29735W        W46209  14.864   4.093  11.017  0.0245 -0.0410 -0.0413
29736W        W46210   3.902  11.305  14.014 -0.0535 -0.2667  0.0445
29737W        W46211  17.281   5.961  12.409  0.1777 -0.3362  0.0154
29738W        W46212  17.671   9.873  12.984 -0.0114  0.0927  0.1457
29739W        W46213   2.187   1.117   9.441  0.1611 -0.1081 -0.0029
29740W        W46214  19.152   1.010   3.444 -0.3185  0.0898 -0.0605
29741W        W46215   1.441   3.094  14.503 -0.3466 -0.0276  0.0401
29742W        W46216  13.146   9.297  11.249 -0.0315 -0.0835  0.0804
29743W        W46217  14.354   9.028   2.907  0.1579  0.1222 -0.1796
29744W        W46218   6.376   5.174   3.720  0.2552 -0.1699 -0.2299
29745W        W46219  12.389   5.324   2.950 -0.1753 -0.0126 -0.0484
29746W        W46220  17.569   4.375   0.786 -0.1263  0.1119  0.2792
29747W        W46221   0.316  13.981   2.267 -0.2072  0.1633  0.1301
29748W        W46222   7.679   5.180  11.720  0.2658  0.3802 -0.0995
29749W        W46223   4.690   8.717   2.265 -0.0987  0.0551  0.3489
29750W        W46224  16.676   0.832   0.544  0.1338 -0.3337  0.2541
29751W        W46225   7.685   1.098  12.588  0.0495 -0.0937 -0.2577
29752W        W46226   0.638   4.361  12.393 -0.0721  0.0246  0.0265
29753W        W46227   3.614  11.617   3.880  0.1706 -0.4320  0.2567
29754W        W46228   7.447   1.752   3.204 -0.0343  0.3213 -0.0693
29755W        W46229   1.857  15.840  11.661  0.1740  0.1413  0.1155
29756W        W46230  16.809   5.243   2.539 -0.0321  0.2617  0.4288
29757W        W46231   7.796   5.369  13.567  0.1179  0.0736 -0.1371
29758W        W46232  10.929   7.049   3.757 -0.2072 -0.0662  0.0417
29759W        W46233  10.983   9.762   4.606 -0.1487 -0.0772  0.3563
29760W        W46234  13.314  14.473   4.574 -0.1674 -0.0124 -0.0822
29761W        W46235   2.669   1.706   2.395  0.1254 -0.3419  0.2016
29762W        W46236  18.194  15.113  13.076 -0.0311 -0.1215 -0.2134
29763W        W46237   2.763   1.071   2.654  0.0111 -0.0185  0.2590
29764W        W46238  10.920  10.834  14.402 -0.3522  0.1484  0.0427
29765W        W46239  13.934   2.747   5.464  0.3255 -0.3793 -0.1580
29766W        W46240   8.767  12.094  13.694  0.3476 -0.0827 -0.2726
29767W        W46241  16.902  13.496  12.214 -0.0650 -0.1096  0.5981
29768W        W46242  14.656   9.487   0.493 -0.1192 -0.0281 -0.0799
29769W        W46243  10.364  18.565   1.981 -0.2640  0.2350  0.2239
29770W        W46244   7.761  15.850  13.261  0.1661  0.1493  0.0977
29771W        W46245  12.626  16.381  13.003  0.2530  0.2136 -0.3594
29772W        W46246   5.682   9.432   4.797 -0.1242 -0.0942 -0.2419
29773W        W46247  15.531   5.255  11.667  0.3007  0.0103  0.3504
29774W        W46248  10.757   9.630  14.180  0.4167  0.0865  0.0061
29775W        W46249   4.934   5.758  13.760 -0.1414  0.1305 -0.3025
29776W        W46250  16.087   6.652   1.150  0.3752  0.2328 -0.2644
29777W        W46251  12.956   0.543  12.807 -0.3088 -0.0560  0.0751
29778W        W46252  14.099   9.751  12.891 -0.0727 -0.1662  0.1122
29779W        W46253   6.488   5.163   1.030  0.2801 -0.1626 -0.0837
29780W        W46254   8.682  18.672   1.279 -0.1855 -0.0575 -0.0277
29781W        W46255  18.552   5.119  11.330 -0.0050  0.2083  0.0011
29782W        W46256  18.256  16.428   5.034 -0.1396 -0.1960  0.4511
29783W        W46257   1.661  16.709  11.417 -0.1195  0.2496 -0.0190
29784W        W46258  12.761  12.604   1.452 -0.1301 -0.0107  0.1844
29785W        W46259  13.053  12.768  11.611  0.1123  0.0943  0.1053
29786W        W46260   5.006  10.948   0.108 -0.0232 -0.0140  0.1426
29787W        W46261  18.249  14.643   2.450 -0.0409 -0.1441 -0.0602
29788W        W46262  13.946  10.831  11.654 -0.3625  0.2424 -0.3427
29789W        W46263   2.758   0.638   3.018 -0.2406 -0.1863 -0.0526
29790W        W46264  13.427  14.070  11.649 -0.1259 -0.4229  0.0459
29791W        W46265   8.053   0.814  12.895  0.0644 -0.1275 -0.0921
29792W        W46266  17.261   2.016  10.571 -0.1353  0.0149 -0.1112
29793W        W46267   3.836  14.492  11.167  0.1029 -0.3135 -0.3026
29794W        W46268  10.921   5.612   2.605 -0.0954 -0.0615 -0.4907
29795W        W46269  18.727  13.386  11.547 -0.2291  0.1623 -0.0697
29796W        W46270  16.017  12.861  11.835 -0.1402  0.1693  0.3010
29797W        W46271   2.016  17.925   3.230 -0.0626 -0.2523 -0.3827
29798W        W46272   8.851   1.158  12.051  0.2310 -0.2844  0.0920
29799W        W46273   2.094  18.387   0.625  0.2155  0.0578  0.3121
29800W        W46274  12.823   3.209   1.763 -0.1661 -0.1279 -0.0942
29801W        W46275  12.230   2.520   9.719 -0.2514 -0.0798  0.3447
29802W        W46276   4.193   1.250  10.894 -0.0042 -0.0125 -0.1982
29803W        W46277   8.679  15.927  13.038  0.2303  0.0232 -0.0682
29804W        W46278   6.243   4.110  12.344  0.0296  0.1818  0.2648
29805W        W46279  18.950   6.460   0.636  0.1686 -0.3006 -0.1263
29806W        W46280  12.919  11.163  12.792 -0.1346 -0.0049 -0.1957
29807W        W46281  11.722   6.164   2.668 -0.1123  0.1807 -0.1510
29808W        W46282   8.121  14.770   2.968 -0.1485 -0.1076  0.1084
29809W        W46283  15.547   0.287   4.601 -0.0907  0.2413  0.2351
29810W        W46284  10.581  18.835  11.220  0.1860  0.3172  0.1267
29811W        W46285  10.347   0.164   3.731 -0.3052 -0.1622  0.2417
29812W        W46286   2.788   9.895   3.807 -0.3192 -0.0026  0.1908
29813W        W46287   7.287   8.319   4.847 -0.2061  0.1234 -0.2345
29814W        W46288  11.748  17.942   1.547 -0.1485 -0.0435 -0.0292
29815W        W46289   9.686  14.848   1.865 -0.1695 -0.2096 -0.2205
29816W        W46290   8.533  18.722   2.970 -0.2164  0.2312  0.3346
29817W        W46291   0.061  17.759  13.520 -0.0116 -0.1827 -0.1210
29818W        W46292   9.781  11.489  11.463  0.4331 -0.1037 -0.2951
29819W        W46293   1.520  13.768   0.274  0.0091 -0.0861 -0.0455
29820W        W46294   5.862   0.263   3.469  0.0057  0.0356  0.2313
29821W        W46295   4.894  12.573  14.674  0.0269 -0.0031 -0.1140
29822W        W46296  14.080   6.686   2.526 -0.1370 -0.1106  0.1874
29823W        W46297   0.226  10.113  14.635 -0.2895  0.2860 -0.1802
29824W        W46298   7.653  13.376  14.469 -0.2473  0.1057 -0.0789
29825W        W46299   8.863  18.828  10.162 -0.1776 -0.0215  0.0208
29826W        W46300  12.496  15.433   3.673  0.2465  0.5244  0.0517
29827W        W46301  16.779  15.144  13.640 -0.0664 -0.1269 -0.0063
29828W        W46302   7.771   2.854  13.906  0.0732  0.0074 -0.1045
29829W        W46303   5.346   6.021   1.424 -0.5610  0.0209  0.3559
29830W        W46304  12.932   4.912   4.428 -0.0100  0.2395  0.0372
29831W        W46305   4.254  11.904   2.269 -0.0446  0.0061  0.1338
29832W        W46306   1.151   9.562  13.790  0.0536 -0.1435  0.0322
29833W        W46307   5.839   4.361  12.841 -0.0631  0.1700 -0.0900
29834W        W46308  10.844  10.041   5.050  0.2367 -0.0728  0.1319
29835W        W46309  17.679  14.534  14.062  0.0654  0.0571 -0.1739
29836W        W46310   0.989   0.393   3.431  0.1310  0.0952 -0.2866
29837W        W46311  12.279   9.241   0.932 -0.1760  0.1990 -0.1695
29838W        W46312  16.071  18.649   4.089  0.2156  0.0841  0.1025
29839W        W46313  13.124   0.116  12.602 -0.2423 -0.1763  0.0340
29840W        W46314  19.243  10.311  13.353  0.0273 -0.3499  0.0784
29841W        W46315  13.427   9.326  13.127  0.0200  0.0513 -0.0689
29842W        W46316   3.389  13.961  13.883 -0.3196 -0.1064 -0.0843
29843W        W46317  18.104   9.326  13.735  0.0987 -0.2490 -0.0368
29844W        W46318   7.269  19.054  14.145 -0.5387  0.0655 -0.0748
29845W        W46319   8.400  18.190   3.809  0.0657  0.2537  0.0483
29846W        W46320  13.221   6.752   1.731 -0.2213  0.1012 -0.2376
29847W        W46321  18.373  10.873   2.637  0.3204 -0.0054 -0.3269
29848W        W46322  19.015   3.430  10.384 -0.0097 -0.2387 -0.0829
29849W        W46323   8.181   9.297   4.917  0.0539  0.1095  0.3425
29850W        W46324   1.442   5.536   1.977 -0.0047  0.2414 -0.0575
29851W        W46325   8.985  11.603  12.639 -0.0747 -0.0928 -0.0962
29852W        W46326  16.502   3.302   4.999 -0.1391  0.1097 -0.0561
29853W        W46327   3.901  13.498  10.810  0.0346  0.0715  0.0561
29854W        W46328  17.073   5.529  12.888 -0.0824 -0.1337 -0.2087
29855W        W46329  12.807  13.830   2.789  0.0722 -0.1268  0.0599
29856W        W46330  17.699  19.141  13.433 -0.1007 -0.0937  0.2471
29857W        W46331  14.165   2.129  11.283 -0.0020 -0.0408  0.0307
29858W        W46332  14.657   3.607   1.288  0.0911 -0.0937  0.1285
29859W        W46333   7.612  10.456   1.252 -0.1286  0.1304 -0.0626
29860W        W46334  11.746  16.332  11.609 -0.0687 -0.1214 -0.4272
29861W        W46335   0.270  16.060  13.093  0.0356  0.3558 -0.4497
29862W        W46336   2.970  11.579   2.920  0.0443 -0.0980  0.1989
29863W        W46337  17.065  16.854   4.931  0.1070 -0.1491  0.2831
29864W        W46338   3.557  11.957   3.454 -0.1198 -0.0206 -0.0728
29865W        W46339  14.310   6.054  11.828  0.3446  0.0309 -0.1776
29866W        W46340   6.270  13.661   1.749  0.1936  0.1740  0.0021
29867W        W46341   7.616  13.373   4.365  0.0829  0.0511  0.1490
29868W        W46342   3.329   9.538  14.428 -0.3677 -0.2098  0.0834
29869W        W46343  14.015  16.874  11.958 -0.0498  0.0894  0.2449
29870W        W46344  12.826   2.755  12.833 -0.0495 -0.1359  0.1480
29871W        W46345  11.534   0.553   1.923 -0.0612 -0.0773  0.2404
29872W        W46346   6.755   1.788  10.948 -0.1181 -0.1342  0.0557
29873W        W46347   8.999  10.070   1.249  0.0698  0.0218  0.2008
29874W        W46348  12.491   9.218   3.938 -0.0581 -0.2081 -0.2484
29875W        W46349   6.029  10.263   1.826  0.2388  0.0427 -0.1208
29876W        W46350  12.807  11.641  12.942 -0.0978 -0.0613 -0.2481
29877W        W46351  11.327  11.658  14.359  0.1016  0.0340  0.2739
29878W        W46352  10.002   9.981   4.694 -0.1712 -0.0056  0.0342
29879W        W46353  10.157   1.260   0.905 -0.1581 -0.3336  0.2018
29880W        W46354   4.281  15.805   3.479 -0.0833  0.3748 -0.1409
29881W        W46355   5.203   1.883   2.328 -0.1578 -0.0294 -0.2026
29882W        W46356   2.265   0.615   3.086  0.4170 -0.1300  0.1861
29883W        W46357   5.721  12.790  13.764 -0.0212  0.0885 -0.1078
29884W        W46358  12.252   8.364   4.759 -0.2754 -0.0772  0.1262
29885W        W46359  12.156   3.977  14.082  0.2463 -0.2102 -0.5255
29886W        W46360   3.881   9.612   2.285 -0.2878 -0.1564 -0.4937
29887W        W46361  14.833  15.670  10.748  0.2431  0.0156 -0.0034
29888W        W46362   2.008  14.778   0.488 -0.1905  0.0853  0.1910
29889W        W46363   0.408   1.157   9.823 -0.3667 -0.0087  0.1470
29890W        W46364  16.904   6.444   5.331 -0.3813  0.3110 -0.4900
29891W        W46365   0.733   2.665  12.523  0.4185  0.0071 -0.2568
29892W        W46366   7.180  14.703   0.940  0.4006 -0.1106 -0.0598
29893W        W46367   3.988   5.403   2.019  0.0374 -0.1783 -0.2501
29894W        W46368  18.459   2.591  14.282  0.1223  0.0068 -0.1501
29895W        W46369   7.444  11.532   3.461  0.1671  0.1881 -0.3707
29896W        W46370  15.159  10.141   1.004  0.2877  0.1076 -0.2102
29897W        W46371   4.618   4.591   3.891 -0.2132  0.2615  0.0199
29898W        W46372  17.527   1.420  14.054  0.1019 -0.1818  0.2249
29899W        W46373   3.973   8.370   0.064 -0.0580  0.1565  0.0840
29900W        W46374   4.687  16.873  10.942 -0.3095 -0.0698 -0.0737
29901W        W46375  16.900   1.585  13.752 -0.6094 -0.2456 -0.0103
29902W        W46376  12.631   2.278   1.395  0.3610 -0.4054  0.0715
29903W        W46377  11.327   8.509   1.245 -0.2893 -0.2188 -0.2983
29904W        W46378  14.390   5.461  11.903 -0.0527 -0.0697  0.1125
29905W        W46379  10.857   0.011  11.991  0.0549  0.1491 -0.1800
29906W        W46380  18.254  13.943   0.254  0.0448 -0.1120  0.2712
29907W        W46381  12.775  17.771   3.884 -0.1408  0.2047 -0.0934
29908W        W46382   8.338  12.318  13.782 -0.0195  0.0104 -0.2503
29909W        W46383  19.300   0.347  13.523  0.2622 -0.2258 -0.0996
29910W        W46384  15.460   4.955   0.192 -0.0841  0.1213  0.0207
29911W        W46385   8.046   1.810  13.276  0.2680 -0.0716  0.3556
29912W        W46386  13.736   1.176   2.861 -0.3073 -0.1884  0.0221
29913W        W46387  17.484  18.437   0.890  0.1820  0.1367 -0.1066
29914W        W46388  12.717  14.107   3.234  0.3228  0.2145  0.3500
29915W        W46389  15.092   6.552  13.507  0.0802  0.2603 -0.0807
29916W        W46390   5.922  14.581   4.781  0.0192 -0.0550 -0.0268
29917W        W46391   0.085  14.937  10.932 -0.3672  0.0661  0.0725
29918W        W46392  12.860  11.376   3.451 -0.3156  0.0150 -0.3217
29919W        W46393   1.909   5.514   0.087 -0.1192 -0.1773  0.2403
29920W        W46394   8.946  15.856   1.325  0.0471 -0.1456  0.0323
29921W        W46395   7.383  14.958  13.745  0.0075  0.2235  0.2784
29922W        W46396  10.953   7.748   4.635  0.1031 -0.1914  0.2801
29923W        W46397  18.832  18.341   5.495  0.1451 -0.1889  0.2601
29924W        W46398   2.486  15.894  11.634 -0.2254 -0.0681 -0.0313
29925W        W46399  17.100  19.506   1.391 -0.0587 -0.1162 -0.1195
29926W        W46400  19.384   3.812   4.247 -0.2420 -0.2354 -0.0369
29927W        W46401   0.652  12.659   2.421  0.1860  0.1808  0.1319
29928W        W46402   7.711   4.931   0.870 -0.2768  0.0651 -0.0819
29929W        W46403  16.393   9.791   3.321  0.1911 -0.0076 -0.3331
29930W        W46404  15.324   5.289   1.119 -0.1522  0.0412 -0.0559
29931W        W46405   2.418  16.963  11.943 -0.0975 -0.0699 -0.1982
29932W        W46406   5.840  18.227  10.772 -0.0631 -0.1251  0.0699
29933W        W46407  10.382   5.161  11.324 -0.2152  0.1268 -0.0245
29934W        W46408   9.098  13.870  10.789  0.1524  0.1348  0.0712
29935W        W46409   1.800  13.580  14.532 -0.2977 -0.1509 -0.3930
29936W        W46410  13.331  16.452   3.284 -0.0664 -0.0344 -0.0303
29937W        W46411   9.703   3.810  14.184  0.0195 -0.2516 -0.1688
29938W        W46412   9.748   5.871  14.456 -0.0856 -0.1544 -0.1279
29939W        W46413   7.797  10.745   5.499  0.0965  0.1851 -0.0111
29940W        W46414  14.556   6.899  12.127  0.2168 -0.2921  0.1855
29941W        W46415   0.305  11.997   9.211  0.1693  0.2198 -0.0074
29942W        W46416  12.334  11.133   0.275 -0.0244 -0.1309 -0.1015
29943W        W46417   3.645  12.327  10.172 -0.0746 -0.2354 -0.1529
29944W        W46418   2.907  15.209   8.798  0.2175  0.2313 -0.0609
29945W        W46419  17.336  17.232  11.591 -0.1392 -0.3249 -0.1754
29946W        W46420  11.332  16.038   4.785  0.0651 -0.2414  0.0309
29947W        W46421   1.422  19.162   0.407 -0.2424 -0.1618  0.0904
29948W        W46422  12.992   5.557  11.424  0.2211  0.0786 -0.0542
29949W        W46423  19.274  19.074   9.142  0.0467  0.1369 -0.3158
29950W        W46424   4.433  13.376   4.112  0.1274  0.0203  0.0839
29951W        W46425   2.759  19.399  13.733 -0.0947 -0.0901  0.0514
29952W        W46426  14.699  11.897  14.492 -0.4067 -0.1114 -0.1257
29953W        W46427   8.511  16.161  11.682 -0.0180 -0.1726  0.1815
29954W        W46428   1.117  15.012   1.560 -0.0266  0.1608 -0.2009
29955W        W46429  18.598  15.975   1.125  0.3688  0.2171 -0.2027
29956W        W46430  19.068   3.825   3.084  0.1659 -0.0240 -0.0256
29957W        W46431   2.366   7.422   1.220  0.2173 -0.0502  0.0365
29958W        W46432   6.473   0.171  12.872  0.1040  0.1124 -0.1893
29959W        W46433  13.307  16.744  13.070  0.3987 -0.0887  0.1905
29960W        W46434  17.482   2.146   2.002  0.4617 -0.0884  0.1214
29961W        W46435  14.639  12.408  11.655 -0.1642 -0.1693  0.3585
29962W        W46436  17.756   6.447   4.235 -0.1747  0.2751  0.3030
29963W        W46437   0.870  10.544  12.495  0.1620  0.1156  0.0964
29964W        W46438   5.801  15.828   2.184  0.0583 -0.0286  0.0531
29965W        W46439   1.923   7.989  14.657 -0.1492  0.3715 -0.0518
29966W        W46440   7.012  10.011  13.114 -0.0008 -0.3458  0.2682
29967W        W46441  18.163  14.452  11.831  0.1762 -0.4176 -0.1217
29968W        W46442   8.552   0.590   2.675 -0.1001 -0.2059 -0.0680
29969W        W46443  15.989  10.856   5.166  0.2346 -0.1433  0.2254
29970W        W46444   7.423   5.674  12.545  0.0302  0.3953 -0.1329
29971W        W46445  11.068  17.681  12.366  0.2396 -0.3946  0.1122
29972W        W46446   9.062  17.871  10.162 -0.1402 -0.2112  0.0397
29973W        W46447   6.310  13.258   0.883 -0.0116  0.0788  0.0958
29974W        W46448   9.167   3.002  14.151 -0.0792 -0.0292 -0.1551
29975W        W46449  10.755   2.248  12.529  0.0524  0.0502 -0.2682
29976W        W46450   0.946  10.701   4.582 -0.1862 -0.3312  0.0848
29977W        W46451   9.208  18.172  12.272  0.2518 -0.0735 -0.1289
29978W        W46452  11.013  13.010  13.041 -0.1468  0.1985  0.0113
29979W        W46453   8.055   8.733   3.729  0.1807 -0.0773 -0.3901
29980W        W46454   0.665  12.256   4.276 -0.0934  0.0599  0.0063
29981W        W46455  18.253   6.172  13.072  0.1808  0.0716 -0.2338
29982W        W46456   6.848  17.579  12.975 -0.1459  0.1246 -0.0375
29983W        W46457  18.956  15.613   3.025 -0.2490 -0.1296  0.6124
29984W        W46458   6.490   0.954  14.115 -0.0724  0.1582  0.2255
29985W        W46459   2.022   0.320   0.173 -0.1752 -0.1126  0.3577
29986W        W46460  17.303  12.469  13.873  0.0330 -0.1029  0.3220
29987W        W46461  10.198   0.725   2.496 -0.1700  0.2192 -0.1531
29988W        W46462  12.199  13.204   2.692  0.0329  0.1752  0.0715
29989W        W46463   0.422   4.720   1.924  0.2082 -0.2083  0.0559
29990W        W46464  18.652  14.573   3.908  0.3642 -0.2237  0.0895
29991W        W46465   7.353   0.463   2.733 -0.0631  0.6446  0.1747
29992W        W46466   7.222   8.666  11.531 -0.2681 -0.0223  0.3113
29993W        W46467   2.662   5.984   0.782 -0.0723 -0.1194  0.0717
29994W        W46468  14.887   3.961   0.960  0.3462 -0.5121 -0.2381
29995W        W46469  14.859   5.462   0.131 -0.2838 -0.0117 -0.1501
29996W        W46470  16.052  12.321  12.642 -0.2810 -0.0862 -0.1605
29997W        W46471   5.417   7.298  14.557 -0.1181 -0.0307 -0.0110
29998W        W46472   6.803  12.288  13.749  0.2471  0.3537  0.3603
29999W        W46473  12.164  18.962  12.154 -0.1852  0.0648 -0.1624
30000W        W46474   3.632   7.811   2.246  0.4282 -0.1411  0.0466
30001W        W46475   6.152   3.814  13.699 -0.2771 -0.1730 -0.2470
30002W        W46476   0.775  15.811   5.158  0.0615 -0.0298  0.0375
30003W        W46477  16.016   9.481   3.279 -0.1564  0.1975  0.3256
30004W        W46478  11.678  11.455   6.137 -0.1520  0.3108  0.0160
30005W        W46479   3.461   5.164  11.815  0.4095  0.0883  0.0498
30006W        W46480   1.410   9.556   2.495 -0.3453  0.1301  0.2203
30007W        W46481   8.804  10.699   0.566  0.0087  0.0949  0.2124
30008W        W46482  11.394   4.057  10.606  0.2261 -0.0163 -0.0296
30009W        W46483  17.009  11.730   2.854  0.1112  0.1010  0.2085
30010W        W46484  18.656  13.900   4.574  0.1318  0.0444 -0.3027
30011W        W46485  18.697   3.087  12.693  0.3260 -0.3299 -0.1329
30012W        W46486   6.281   6.137   0.384 -0.0417 -0.0851  0.0308
30013W        W46487   0.815   3.543   3.947  0.0901 -0.0560 -0.0587
30014W        W46488   5.641   4.920   1.012  0.4225  0.1673  0.0743
30015W        W46489   8.399  18.387  12.105 -0.2659  0.2331  0.2396
30016W        W46490  19.321   1.546  12.623 -0.0284 -0.1599  0.0963
30017W        W46491   9.906   1.054   4.125 -0.0417 -0.2595 -0.0526
30018W        W46492  16.311  17.845   3.368 -0.1586  0.0930 -0.3438
30019W        W46493  18.304  18.179  12.770  0.1532  0.3252 -0.2072
30020W        W46494  14.318  17.089   3.124 -0.5144 -0.2559 -0.0239
30021W        W46495  11.622   5.324   3.663 -0.1330  0.0782  0.0179
30022W        W46496   5.800  14.478   2.886 -0.1231 -0.2198  0.1374
30023W        W46497  19.428   9.523  13.973 -0.2059 -0.1594  0.0218
30024W        W46498   7.131   9.851   4.395 -0.1821  0.1155  0.2176
30025W        W46499   9.628   0.836  11.085  0.3299 -0.1697 -0.1606
30026W        W46500  19.414   1.543   1.672 -0.0217 -0.2299 -0.4074
30027W        W46501  17.821  10.757  14.538  0.2031 -0.1908  0.3493
30028W        W46502   7.684  17.980   3.124  0.1771  0.1414  0.2298
30029W        W46503  16.012   5.345  12.853 -0.2154 -0.1191 -0.2393
30030W        W46504   5.122   1.093  10.040 -0.1732 -0.4755 -0.0587
30031W        W46505  14.827   7.479   2.884  0.1586  0.2114  0.0571
30032W        W46506   6.510  12.776   0.496 -0.2964  0.0173  0.0417
30033W        W46507   0.523   2.110  11.371 -0.1743 -0.0366  0.0326
30034W        W46508   8.345   5.456  13.844  0.1904 -0.3217 -0.2314
30035W        W46509   6.071   0.207   9.411 -0.1018 -0.1310  0.2800
30036W        W46510   9.749   4.705   1.495 -0.0122  0.4101  0.3638
30037W        W46511   2.911   1.246  10.124 -0.2014  0.1770 -0.0532
30038W        W46512  14.623  15.362  12.414  0.0142  0.3010 -0.0424
30039W        W46513  14.781   4.530   0.779 -0.3768  0.2880  0.0783
30040W        W46514  16.410  14.439  14.119  0.1711 -0.0990  0.0784
30041W        W46515   3.157  10.696   9.998  0.0461  0.0556 -0.0367
30042W        W46516  10.834   7.080   4.772 -0.1022 -0.0544  0.1727
30043W        W46517   7.924  17.616   1.592 -0.1312 -0.1292  0.0052
30044W        W46518   6.866  10.649   5.816 -0.1663  0.3200 -0.1428
30045W        W46519   9.123  15.164  13.303 -0.0342 -0.1184  0.0106
30046W        W46520   8.572   7.007  12.668 -0.2951  0.0449 -0.1947
30047W        W46521   4.018  19.385   5.008 -0.4707  0.0699 -0.3137
30048W        W46522   5.560   5.518   1.385 -0.2673 -0.1895  0.1312
30049W        W46523   9.661  11.483  14.509 -0.4616 -0.4255  0.2070
30050W        W46524  18.281   4.955   1.735 -0.0482 -0.1586 -0.1787
30051W        W46525   5.705  18.284   1.301 -0.0727  0.0277  0.0051
30052W        W46526  14.984   6.180  11.902  0.2954  0.0583 -0.1358
30053W        W46527  16.718  16.410  12.147 -0.0042  0.2737  0.1687
30054W        W46528  17.237   6.590   3.166 -0.2970 -0.3325  0.0823
30055W        W46529  10.368   1.288   4.772 -0.2252 -0.1648 -0.3898
30056W        W46530   9.913  18.299  12.948 -0.0702  0.3884 -0.0428
30057W        W46531  14.930  10.434   1.819  0.2056  0.0821 -0.0120
30058W        W46532  12.003  19.238  11.437  0.2474  0.0279  0.0279
30059W        W46533   7.286   5.695  13.612  0.1714 -0.1572 -0.0398
30060W        W46534   5.029   4.246   3.768 -0.0927 -0.1448  0.1320
30061W        W46535  19.481  14.561  10.665 -0.3759  0.3126  0.1061
30062W        W46536   2.416  16.551   4.211  0.2429  0.0297 -0.1194
30063W        W46537   0.623   0.461   2.935 -0.2458  0.2058 -0.2016
30064W        W46538   8.588   0.925   1.852 -0.0734  0.0128 -0.2707
30065W        W46539   9.509   6.161  10.135 -0.1152 -0.0252  0.0517
30066W        W46540   2.387   8.107  14.705 -0.0784 -0.0717  0.0037
30067W        W46541  13.786   5.052   4.303  0.1094  0.3133 -0.0910
30068W        W46542   2.321   9.910   3.911 -0.1083 -0.2261  0.0982
30069W        W46543   1.027   5.849  10.733 -0.0271  0.1390  0.0542
30070W        W46544  18.235   4.067   3.635 -0.0270 -0.0332 -0.1652
30071W        W46545   9.890   3.903   4.075 -0.2000  0.0699  0.0919
30072W        W46546   6.627  14.093   1.086  0.2455  0.2924  0.0391
30073W        W46547  11.461   0.687   3.062  0.0167  0.1697 -0.0981
30074W        W46548   1.580  15.765   2.665 -0.0679 -0.1783  0.0089
30075W        W46549  15.901  16.119   2.616 -0.3176 -0.0217 -0.0228
30076W        W46550  14.429  17.249   4.509 -0.2096 -0.0161 -0.3093
30077W        W46551  15.812   0.247  12.178  0.3091 -0.0611  0.0769
30078W        W46552   5.541   1.378   2.491  0.0467 -0.0352 -0.2206
30079W        W46553   0.469  13.336   0.663  0.0930 -0.4020  0.2424
30080W        W46554  14.295   2.321   2.857  0.0384  0.0067  0.4748
30081W        W46555  14.981   5.703   4.015  0.0158 -0.1853 -0.0344
30082W        W46556   4.817  15.838  13.028 -0.1783 -0.0450 -0.1353
30083W        W46557   2.733   0.173   9.970  0.8426 -0.0460 -0.2994
30084W        W46558   3.031   0.911  13.528  0.0159  0.2130 -0.2446
30085W        W46559  14.714  17.256  13.224  0.1501  0.0221  0.3111
30086W        W46560   4.778   7.371  11.962 -0.1481 -0.2445  0.0144
30087W        W46561  16.976  10.058  10.789  0.0159 -0.3616  0.1674
30088W        W46562   2.560  17.274   9.690  0.3202  0.1644 -0.0217
30089W        W46563   3.149   8.433   1.186 -0.0240 -0.0835  0.0990
30090W        W46564   1.510   0.896  13.237 -0.1602  0.1439  0.2203
30091W        W46565   4.669  16.026   4.693  0.1211 -0.1334  0.0906
30092W        W46566   2.506   4.170  12.334 -0.2041  0.0293  0.4329
30093W        W46567   9.918  13.088  10.209 -0.0246 -0.0191 -0.1190
30094W        W46568   5.670   4.258  11.935  0.5602  0.1636  0.2936
30095W        W46569   2.155  13.623  11.470 -0.1319  0.1664 -0.0797
30096W        W46570  15.662  13.134   0.694  0.1703 -0.0299 -0.3149
30097W        W46571   3.195   8.754  12.796 -0.0337 -0.1880  0.2059
30098W        W46572  18.007  13.985   3.281  0.1505 -0.0196  0.2477
30099W        W46573  13.193  18.577   1.066 -0.0781  0.1046  0.0799
30100W        W46574  10.157   8.077  12.557 -0.4446 -0.0935  0.0920
30101W        W46575  11.798   7.121   3.180 -0.0954 -0.1331 -0.5112
30102W        W46576  12.484  15.441   2.607  0.1061  0.2605  0.0464
30103W        W46577  12.920  13.043  13.852  0.2631  0.3039 -0.0481
30104W        W46578   2.163   9.606   2.066 -0.0187 -0.0256 -0.0954
30105W        W46579  18.233  15.706  12.366  0.1823 -0.0348 -0.1952
30106W        W46580   1.273  11.518  13.749 -0.1034  0.2240 -0.0251
30107W        W46581  17.431   0.959   2.651  0.0748  0.2068 -0.0214
30108W        W46582  13.290   9.582   5.367 -0.0443  0.1750  0.2399
30109W        W46583  12.619   1.269   2.003  0.2727  0.1474  0.1497
30110W        W46584   0.575  15.679   4.262 -0.0686  0.0430  0.0206
30111W        W46585  18.178   7.092   4.722 -0.0733  0.2626 -0.2861
30112W        W46586   7.112  19.042  12.066 -0.2874  0.1904 -0.2531
30113W        W46587  12.553   8.285  11.956  0.2066  0.2713 -0.2987
30114W        W46588  13.951  10.875   1.429  0.0502  0.1498 -0.2216
30115W        W46589   3.536   9.519   0.696  0.1079 -0.1134 -0.3390
30116W        W46590  15.056   6.119   4.676 -0.1939 -0.2059  0.0678
30117W        W46591   2.274   0.243  12.488 -0.0644 -0.1880 -0.2069
30118W        W46592   3.289  14.634  12.159  0.3436  0.0057 -0.0208
30119W        W46593  12.440  15.364   4.541 -0.2002 -0.1056 -0.3232
30120W        W46594  13.191   3.592  12.309 -0.2439  0.5290  0.1910
30121W        W46595  16.887  10.355   4.851  0.1389  0.1292  0.0744
30122W        W46596   2.780  14.128  10.908 -0.0333 -0.0746 -0.2757
30123W        W46597  19.499  19.518  13.909  0.0171 -0.0053  0.2812
30124W        W46598   7.138  11.475  13.435 -0.0291 -0.0045  0.0892
30125W        W46599   7.677   8.080  13.854  0.2977  0.1058  0.1618
30126W        W46600   2.206  10.996   1.814  0.0041 -0.0497 -0.4225
30127W        W46601   1.108   4.381  13.332  0.2815 -0.3337  0.2697
30128W        W46602   1.299  13.026  13.239  0.1725 -0.2580  0.5301
30129W        W46603  19.379   2.395   0.498 -0.1171 -0.0659 -0.3140
30130W        W46604   8.196   2.247   0.396  0.1811  0.2033  0.0510
30131W        W46605  13.870   6.445   5.474 -0.0841  0.0186  0.1442
30132W        W46606   2.923   6.565  13.084 -0.1111 -0.1924  0.2019
30133W        W46607   4.235  10.877  12.745  0.1319  0.0409  0.0336
30134W        W46608  16.649  16.098  11.058 -0.0202 -0.5547  0.0778
30135W        W46609   3.382  10.624  13.421 -0.0328 -0.0007 -0.0476
30136W        W46610   7.037  14.169   0.259 -0.1203  0.3392 -0.0729
30137W        W46611  13.446  11.546   2.248 -0.2502 -0.0494  0.1790
30138W        W46612  13.647   3.310   0.648  0.1889  0.0920 -0.1144
30139W        W46613   0.135   1.568  10.721  0.1029  0.2554 -0.0712
30140W        W46614  13.124   9.188   0.465  0.1153  0.1024  0.0449
30141W        W46615   2.268   1.985  10.438  0.0038  0.2668 -0.0234
30142W        W46616  11.166  17.758  10.649 -0.0717 -0.3353  0.1373
30143W        W46617   0.985   7.578  12.956 -0.0785 -0.2072  0.6281
30144W        W46618  17.828   2.379   2.359 -0.2201  0.2238 -0.2858
30145W        W46619   5.303  18.199  12.440 -0.4389  0.0496 -0.2298
30146W        W46620  12.976  17.299   1.784 -0.0964  0.1331 -0.1212
30147W        W46621  10.843  14.808   3.031  0.1201  0.0137 -0.0081
30148W        W46622   4.717   9.880  11.573  0.2424  0.1308  0.3756
30149W        W46623   4.242   2.019  11.827 -0.2492  0.0359 -0.0272
30150W        W46624   6.135   4.481  11.867 -0.1565 -0.1707  0.1140
30151W        W46625  14.597   4.021  12.054 -0.0734  0.1986 -0.2942
30152W        W46626   4.734   8.458   5.578 -0.3571  0.0211 -0.1211
30153W        W46627  10.750   6.809  11.604  0.0289  0.2494  0.2122
30154W        W46628  12.764   2.272   0.842  0.0781 -0.0008 -0.2542
30155W        W46629  13.275   7.686  12.610 -0.4879  0.1164  0.2371
30156W        W46630  12.973  12.284  10.226  0.1881 -0.1118  0.3210
30157W        W46631  14.187  15.194   4.653 -0.0573  0.1875  0.4490
30158W        W46632  12.610   2.996   3.116 -0.0976  0.0357 -0.1315
30159W        W46633  12.641   3.685  10.171 -0.1192 -0.2648 -0.1857
30160W        W46634   0.618   8.219  11.486  0.2723 -0.0723  0.2177
30161W        W46635   1.885  17.160   3.984 -0.5157  0.1021  0.2148
30162W        W46636  19.436   7.010   3.131  0.0232  0.2826 -0.3018
30163W        W46637  13.426   7.270  11.185 -0.1207  0.0244 -0.3541
30164W        W46638  13.188  12.723  12.670  0.0248 -0.2817 -0.3669
30165W        W46639  18.509  18.394  11.235  0.0246  0.3117 -0.4937
30166W        W46640  12.892  18.976   1.520 -0.1217 -0.2900 -0.1292
30167W        W46641   4.862  16.084  11.274 -0.4029  0.0400  0.0532
30168W        W46642   8.922   5.436   3.264  0.0289 -0.2132 -0.2336
30169W        W46643  12.825  17.896  13.230 -0.0471  0.1627  0.0096
30170W        W46644   1.780  12.222   2.812 -0.0351  0.0335  0.0749
30171W        W46645   6.702  17.454  10.437 -0.0600 -0.1771 -0.2388
30172W        W46646  14.987  19.554  12.001  0.0288  0.1513 -0.1383
30173W        W46647  18.983   1.219   1.641  0.0510  0.2062 -0.1408
30174W        W46648  16.980   7.108  12.993 -0.2148 -0.4553  0.0208
30175W        W46649   0.402  16.075   2.542 -0.0578 -0.2162 -0.0212
30176W        W46650   3.453   2.315   5.432  0.1543  0.1191 -0.0856
30177W        W46651  18.254   9.691   1.834  0.3112 -0.1241  0.1020
30178W        W46652   4.347   0.904  12.498  0.0858  0.1133 -0.1552
30179W        W46653   6.643  18.341  14.500 -0.2574  0.3501 -0.0932
30180W        W46654  16.857  15.458   2.981 -0.0577 -0.0568  0.1186
30181W        W46655  10.427   1.955  14.360 -0.0185 -0.0149 -0.1637
30182W        W46656  15.139   3.316  11.238 -0.0101  0.0793  0.0965
30183W        W46657   5.426   4.955   4.358 -0.3912 -0.3441  0.1610
30184W        W46658  14.056  11.317   3.921 -0.1113 -0.1326 -0.1466
30185W        W46659  12.477   6.209   4.857 -0.2981 -0.1280  0.3751
30186W        W46660  10.907  14.573   2.516  0.1606 -0.0241  0.1097
30187W        W46661   5.875   9.472   3.269  0.3710  0.0091  0.2148
30188W        W46662   7.723  11.673  10.694 -0.0943 -0.1654  0.1925
30189W        W46663   0.269   4.011   0.051  0.3008 -0.0893  0.2473
30190W        W46664   9.209  10.380   1.557 -0.0141 -0.1662 -0.0909
30191W        W46665   1.864   1.858  11.845 -0.3039  0.0837 -0.1603
30192W        W46666   1.146  11.050   5.016 -0.0145  0.1757 -0.1987
30193W        W46667   6.572  16.341   4.454  0.3674 -0.0465  0.2000
30194W        W46668  12.906  10.081   4.549 -0.2984  0.0875 -0.0402
30195W        W46669   2.432   5.750  14.324 -0.0243  0.1549  0.0233
30196W        W46670  15.812   3.725  14.371 -0.1348  0.0364  0.1390
30197W        W46671   2.136   5.719  12.710 -0.1764 -0.1259  0.1624
30198W        W46672   6.012   8.883   3.031 -0.1988  0.0596  0.2241
30199W        W46673  10.932  17.963  11.989 -0.1476  0.0037 -0.0028
30200W        W46674   5.279  17.634   0.677 -0.0234  0.2804  0.1403
30201W        W46675  11.259  10.967   3.521  0.1768  0.1970  0.1256
30202W        W46676   9.217   0.982  13.747  0.0475 -0.4138  0.0438
30203W        W46677   3.218  14.105   3.455 -0.2998 -0.4434 -0.1898
30204W        W46678  19.414  16.610   1.612  0.0690  0.0233 -0.0359
30205W        W46679   6.238   8.907   4.138 -0.2601  0.2435  0.0339
30206W        W46680  14.050  11.197  11.277  0.1554  0.0096 -0.3615
30207W        W46681   6.998  12.367   2.671  0.1218  0.2176  0.2530
30208W        W46682  10.327   4.198   4.807 -0.0472  0.0927 -0.0893
30209W        W46683  10.585  11.951   0.955 -0.1875 -0.2008 -0.1480
30210W        W46684   8.560   9.792   1.064 -0.2400 -0.1132  0.3097
30211W        W46685   4.776  11.082  10.875  0.2683 -0.0687  0.0433
30212W        W46686  10.874  17.784   5.417 -0.0196 -0.0489 -0.0997
30213W        W46687   4.477  11.118   2.215  0.2157  0.1292 -0.0298
30214W        W46688   4.696   5.219  12.432 -0.4734  0.0723  0.3537
30215W        W46689   4.494  14.839   0.391  0.0010  0.2989 -0.4276
30216W        W46690  14.913  14.468  12.525 -0.3541  0.2871 -0.0600
30217W        W46691  15.758   0.680   1.228  0.2064  0.1273 -0.3954
30218W        W46692  17.078   3.240   4.339 -0.0562  0.0666 -0.2895
30219W        W46693  13.059  15.203  14.160 -0.1821 -0.2463  0.0823
30220W        W46694  18.234   8.601  11.618 -0.3604 -0.0337  0.1338
30221W        W46695  17.833   8.613  12.612  0.0483 -0.1858 -0.2669
30222W        W46696   8.815  15.373   1.309  0.0634  0.1654  0.4291
30223W        W46697  12.690  17.767   3.078  0.2113 -0.1552  0.1017
30224W        W46698  16.368   2.446  10.692  0.1739 -0.0897 -0.2938
30225W        W46699  19.100  10.915   4.686 -0.1442 -0.0584 -0.0206
30226W        W46700  10.383  17.661  13.807 -0.3464 -0.0027 -0.1226
30227W        W46701   6.764  12.408   0.247 -0.0498 -0.3332  0.2061
30228W        W46702   3.581   9.076  11.549 -0.1792 -0.1595 -0.0972
30229W        W46703  15.214   9.825   0.572 -0.0615  0.1260  0.0934
30230W        W46704  12.020   5.233   4.625 -0.1109  0.0216  0.0466
30231W        W46705   3.142   6.054  14.645 -0.1585 -0.0703 -0.0011
30232W        W46706   0.714  19.239   9.990 -0.3593  0.0665  0.0894
30233W        W46707   2.323   8.570   1.860  0.1439  0.0012  0.0784
30234W        W46708   3.383  13.047   2.435 -0.1651 -0.0310 -0.3248
30235W        W46709   0.392   4.260   3.707  0.3243  0.1999  0.0523
30236W        W46710   1.734  12.967   1.542  0.1302  0.2161 -0.1673
30237W        W46711  19.239   5.071   4.916  0.0674  0.1566  0.0362
30238W        W46712   3.539  13.150  12.999 -0.0317  0.2280  0.1199
30239W        W46713  10.780   0.571  10.682 -0.0537  0.0390 -0.0333
30240W        W46714  14.999  13.738   1.466  0.2289  0.0238 -0.2036
30241W        W46715   0.963   9.869   3.022 -0.2572 -0.1324  0.0237
30242W        W46716  14.246   1.421  10.016 -0.2537  0.0373  0.2208
30243W        W46717  18.997   8.723   9.629  0.0408  0.3177 -0.3287
30244W        W46718   4.985  11.817   1.983  0.0247 -0.2540 -0.4473
30245W        W46719   4.276  15.656  11.617  0.1462  0.1270  0.0179
30246W        W46720  12.876   8.637  11.706 -0.1998  0.1608  0.1739
30247W        W46721  10.204  10.159   0.563  0.0339  0.1268 -0.1614
30248W        W46722  18.758   0.332  10.107 -0.0532 -0.1634 -0.0568
30249W        W46723   0.319   8.406   3.917 -0.1140 -0.1295  0.3916
30250W        W46724  17.846   0.452  13.053 -0.1219 -0.0208  0.0692
30251W        W46725  16.881   7.746   2.673  0.1233  0.0702 -0.1569
30252W        W46726   3.679  18.556   2.499  0.2548  0.1098  0.0706
30253W        W46727  13.504  13.594   4.221  0.0124  0.0568  0.0286
30254W        W46728   0.593  13.984   3.112  0.0034 -0.0151  0.2185
30255W        W46729  12.194  19.444   9.699  0.0254 -0.0798 -0.3159
30256W        W46730  13.661   9.234   0.670 -0.3179  0.0010 -0.0621
30257W        W46731  18.399   2.999  14.573 -0.1098  0.0237  0.0766
30258W        W46732   0.321   7.733   0.005  0.0256  0.2874  0.0286
30259W        W46733  11.289  12.420   4.172 -0.1577 -0.2762  0.1711
30260W        W46734   5.769  14.138   1.790 -0.4857  0.0042 -0.1438
30261W        W46735  15.700  10.695  13.600 -0.1343  0.0172 -0.0324
30262W        W46736   7.152   2.946  13.266  0.1248  0.4022  0.3929
30263W        W46737   4.713  19.541  11.227 -0.1835 -0.0247  0.1685
30264W        W46738   2.291   8.635  12.097  0.1876 -0.2214  0.6574
30265W        W46739  18.589   5.710   4.024 -0.0455 -0.1325  0.0405
30266W        W46740  11.643  13.816   9.759  0.1079 -0.1588 -0.0398
30267W        W46741  14.319  10.589  12.245 -0.1569  0.2666 -0.1446
30268W        W46742  15.089  16.738   3.375  0.4825  0.2187 -0.0848
30269W        W46743  12.234  16.570  12.457  0.0287 -0.3360 -0.1517
30270W        W46744   3.895   4.318   4.424 -0.5323  0.2993  0.0366
30271W        W46745  19.171   8.097  11.609 -0.2197  0.1027  0.2365
30272W        W46746   7.697   5.767   4.877  0.0035  0.1903  0.1993
30273W        W46747  13.540  11.668   3.884  0.2279  0.0508 -0.1897
30274W        W46748   1.339   1.764   1.988 -0.0724 -0.1995  0.1885
30275W        W46749   0.970  10.802  10.484 -0.1364 -0.1099  0.0822
30276W        W46750   9.537   3.701  12.027  0.1422  0.1336 -0.1218
30277W        W46751   3.793   5.557   2.769  0.3188  0.3321  0.3794
30278W        W46752   4.736   2.130   0.809 -0.1536  0.1789  0.3116
30279W        W46753  10.847  12.644   1.348 -0.0161  0.0502 -0.0071
30280W        W46754   4.188  14.509  11.613 -0.2638 -0.1509 -0.1438
30281W        W46755  17.759   6.235  11.983 -0.2298  0.0273 -0.1834
30282W        W46756   4.515   6.198   4.534 -0.3675  0.2627  0.2644
30283W        W46757   2.513  18.505  14.505  0.2293 -0.1094  0.0080
30284W        W46758   4.499  14.019   5.167 -0.0758  0.0885 -0.0403
30285W        W46759  14.664  17.697   3.468 -0.3029  0.1005 -0.1416
30286W        W46760  17.557   0.182   3.761 -0.0256 -0.0173 -0.0035
30287W        W46761   6.790  15.561   0.403  0.0161 -0.0038  0.2386
30288W        W46762   7.680  17.078  10.897  0.0988  0.2378  0.1210
30289W        W46763   7.989   1.005  11.570  0.1399  0.0780 -0.3738
30290W        W46764  18.701   2.209   4.086  0.0822 -0.1903  0.2336
30291W        W46765   6.946   7.264   1.311 -0.1482  0.0221 -0.0148
30292W        W46766   9.236   1.589   3.850 -0.0303 -0.0967  0.0757
30293W        W46767  14.014   2.348  13.343  0.0892  0.0032 -0.1371
30294W        W46768  14.462  11.118   4.178  0.1132  0.1456 -0.2842
30295W        W46769   3.016   7.213  11.997  0.0884 -0.0727  0.4024
30296W        W46770  17.633   8.734   1.439  0.0294 -0.1201  0.1989
30297W        W46771   0.739   0.845  10.580 -0.2543 -0.0613 -0.2438
30298W        W46772  17.897  16.021   5.010  0.0187  0.0440 -0.0591
30299W        W46773  16.363   3.146   1.391  0.0505 -0.1655 -0.0946
30300W        W46774  17.085  12.450   9.986  0.0547 -0.2609  0.0788
30301W        W46775  16.206  18.852  11.616 -0.0475 -0.5039  0.0999
30302W        W46776   1.330   8.160   2.606 -0.1886 -0.0012  0.0712
30303W        W46777   5.298   9.016   1.130 -0.1374 -0.0600  0.1240
30304W        W46778   4.447   6.305  10.938 -0.0588 -0.0363 -0.0192
30305W        W46779   3.333  15.701  14.118  0.1678 -0.2549 -0.1187
30306W        W46780  11.388   5.610  10.890  0.4774 -0.0845 -0.1515
30307W        W46781  16.242   5.764   3.519 -0.3239  0.3351  0.2662
30308W        W46782   6.290   0.328   1.031 -0.1577  0.1136 -0.3279
30309W        W46783  14.328  17.312   0.926  0.1895  0.2772  0.3004
30310W        W46784  16.855   9.827  11.689  0.3359  0.0591  0.0288
30311W        W46785  10.040  15.588   1.649  0.0394 -0.1126  0.0851
30312W        W46786  12.768   3.185  10.318 -0.5457  0.3686 -0.1064
30313W        W46787  16.338  17.417   3.570 -0.3052  0.2975  0.0742
30314W        W46788  13.166  13.920  10.768  0.1238 -0.0789 -0.0261
30315W        W46789   5.517  19.445  14.553 -0.0126  0.0208 -0.1299
30316W        W46790   3.334  18.332   5.034 -0.1039  0.0621 -0.0703
30317W        W46791   4.067   8.835   4.260  0.2844  0.1292  0.0934
30318W        W46792  15.190   0.536   4.253 -0.0155 -0.1839 -0.3210
30319W        W46793  14.675  15.987  10.126 -0.0749 -0.1123  0.2691
30320W        W46794   3.002  15.999   3.646  0.4584  0.2372  0.3404
30321W        W46795  10.651   3.644   1.772 -0.2559  0.0402 -0.0524
30322W        W46796   2.421  18.185   1.934 -0.0662  0.0991  0.1352
30323W        W46797   1.284   5.145   5.868 -0.0968  0.2852 -0.1056
30324W        W46798  19.237   8.974   4.878  0.0530 -0.4099 -0.2327
30325W        W46799  12.648  19.583  12.896  0.0460  0.0734 -0.2318
30326W        W46800  12.415   4.796   0.802  0.0497 -0.0484 -0.0851
30327W        W46801   9.034   4.628   3.537  0.1213 -0.1793  0.2422
30328W        W46802   1.159   8.581  13.740  0.1785  0.0589 -0.0285
30329W        W46803   9.932  16.334  14.227  0.2096  0.1213 -0.0962
30330W        W46804  16.099  18.058   5.136 -0.0303 -0.4115  0.0400
30331W        W46805  17.090   3.637  12.771 -0.2105  0.0367  0.3656
30332W        W46806  13.042  19.496  11.695  0.1672  0.0228 -0.0040
30333W        W46807   1.014   2.572   1.390 -0.1403 -0.3595 -0.4179
30334W        W46808   4.495  17.102  11.817  0.1608 -0.1530 -0.2174
30335W        W46809   4.757  11.553   2.736  0.0616 -0.0399 -0.2618
30336W        W46810   0.236   9.531   0.314 -0.2431  0.0838  0.3588
30337W        W46811   5.302   6.716  10.429 -0.1306  0.1104 -0.0911
30338W        W46812  14.209   9.476  12.252 -0.0595  0.1439 -0.3749
30339W        W46813  13.537   2.871   2.867 -0.2452  0.1631  0.0122
30340W        W46814  16.885  19.380   1.843  0.0952 -0.0602  0.0428
30341W        W46815   7.128   5.701  11.544  0.2493  0.1922 -0.2801
30342W        W46816  18.970  15.390   0.510 -0.1115  0.1146 -0.2363
30343W        W46817  10.614  16.499   5.282  0.1080  0.2397 -0.2406
30344W        W46818  10.730   4.377   0.775 -0.1305  0.1923 -0.0844
30345W        W46819   7.234   5.820  11.040 -0.1114 -0.0188 -0.1296
30346W        W46820  14.918   9.584   4.937 -0.2964  0.7678 -0.0257
30347W        W46821   4.365   1.410   0.730  0.1535  0.0014  0.1786
30348W        W46822  17.783   5.370   0.747  0.0892  0.2288  0.0026
30349W        W46823   1.896  16.643   3.999 -0.0431  0.1458  0.1307
30350W        W46824   9.736   0.906  12.859  0.1333 -0.0379 -0.0884
30351W        W46825  13.788  12.846   1.049 -0.1460  0.1795 -0.0851
30352W        W46826   4.757  17.938  10.608 -0.1562  0.0209 -0.0943
30353W        W46827   1.553   0.208  13.457  0.1506 -0.1577  0.1459
30354W        W46828   7.722  13.360  11.328 -0.0966 -0.0802 -0.1937
30355W        W46829   6.440  11.931   2.010 -0.1305  0.0157  0.1359
30356W        W46830   6.718   8.181  14.375 -0.0485  0.3159  0.0692
30357W        W46831   8.129  16.997   1.243  0.1152  0.3256  0.0988
30358W        W46832  14.863   5.633  13.785  0.0744  0.1387  0.2722
30359W        W46833  17.287  11.116  13.650 -0.0444  0.3180 -0.1478
30360W        W46834  14.231   3.254   1.970 -0.1918  0.0584  0.0943
30361W        W46835  12.200  10.259   5.067  0.1082 -0.0602 -0.0370
30362W        W46836  14.677   7.542   4.129 -0.1133 -0.1837  0.1230
30363W        W46837   8.699  17.453  13.604  0.1131  0.0600  0.2500
30364W        W46838   0.602  12.615  12.710  0.0547  0.2245 -0.0698
30365W        W46839   9.871   4.273   1.863 -0.3285  0.0665  0.0960
30366W        W46840  12.310  14.384   0.051  0.1880 -0.2220  0.0351
30367W        W46841   3.577   9.944  14.103  0.0737 -0.0767  0.0560
30368W        W46842  15.168  12.219  11.042 -0.4107  0.0354 -0.1094
30369W        W46843  14.365  13.302  14.521 -0.1318  0.1835 -0.1203
30370W        W46844   7.419  15.052   1.137  0.2462  0.2424 -0.0143
30371W        W46845   3.521  18.414  13.688  0.1101 -0.2160 -0.1588
30372W        W46846  18.659   3.261  13.252 -0.2155  0.1762  0.0154
30373W        W46847  11.104  12.931   4.417 -0.1066 -0.0090 -0.1841
30374W        W46848  19.517   4.293  13.435  0.2161 -0.1520 -0.1499
30375W        W46849   1.606   2.064  13.688 -0.0820  0.0606  0.2149
30376W        W46850   0.240  19.270   2.377 -0.1260 -0.1329 -0.3310
30377W        W46851   0.178   7.276  10.529  0.2629  0.0385 -0.2569
30378W        W46852   0.407   6.605  14.572 -0.0843  0.3295 -0.1899
30379W        W46853   8.241  19.252   0.254 -0.1762 -0.0462  0.0950
30380W        W46854  11.834   9.273  12.491  0.1707 -0.0861  0.2539
30381W        W46855  19.302   0.063   3.149 -0.1906 -0.1120 -0.0681
30382W        W46856  14.204  17.571  13.764 -0.1530  0.1532 -0.0281
30383W        W46857  10.336   3.001  10.448  0.2448 -0.0137 -0.1454
30384W        W46858   7.952   1.561  14.023 -0.0329  0.0503 -0.0674
30385W        W46859  17.309  16.186   1.526  0.0371 -0.1925  0.2369
30386W        W46860  12.129  16.424  12.909  0.1143 -0.3093 -0.0658
30387W        W46861  10.512  11.270   3.158 -0.2379  0.0058 -0.0069
30388W        W46862   3.270   3.216  11.535 -0.0074 -0.0181 -0.2771
30389W        W46863  18.094  11.430   2.244 -0.0764  0.1131 -0.1319
30390W        W46864   2.656   2.469  10.598  0.1507 -0.3183 -0.3031
30391W        W46865   2.205   5.139  13.571 -0.0441 -0.3663 -0.4377
30392W        W46866  10.786   1.941  10.968 -0.0066  0.1892  0.0573
30393W        W46867   7.109   3.998  12.876  0.0266  0.4330  0.1604
30394W        W46868   5.186   8.247  10.528  0.1632 -0.0704 -0.1541
30395W        W46869   9.356  11.224  12.991  0.0738  0.4710 -0.1190
30396W        W46870  19.076  12.141  13.402 -0.0693  0.0892 -0.2166
30397W        W46871  16.334   6.193  12.358  0.3023  0.1939  0.0744
30398W        W46872  18.343  14.793  13.549  0.2167 -0.0809  0.0168
30399W        W46873   7.769  10.716   1.878  0.0933  0.1397  0.0907
30400W        W46874  19.141  17.269   2.237  0.1606 -0.1008 -0.0481
30401W        W46875   6.926   7.362  11.435  0.1133  0.1426 -0.1187
30402W        W46876  13.802  12.806  13.852 -0.0453 -0.0584  0.0789
30403W        W46877   8.340   6.422  14.003  0.1187 -0.0189  0.1148
30404W        W46878   9.876  12.568  11.398 -0.0861 -0.0941  0.0005
30405W        W46879   6.565   0.167   0.489 -0.2981  0.1453 -0.1479
30406W        W46880  18.817   2.644   2.737  0.3381 -0.0260 -0.0369
30407W        W46881  14.259   3.653  10.212  0.0792  0.0680 -0.2567
30408W        W46882  15.047  13.569  12.045 -0.2690  0.0772  0.0228
30409W        W46883   9.366  16.910   2.619 -0.0540  0.0693 -0.1516
30410W        W46884   0.003   5.031   0.029 -0.1439 -0.1259 -0.2023
30411W        W46885  14.933   4.412   1.253 -0.0672  0.2447  0.2348
30412W        W46886  10.226   7.792   1.637 -0.0713 -0.0608 -0.0241
30413W        W46887  18.621   4.681  11.217 -0.0509 -0.1416  0.1322
30414W        W46888   1.058  19.191  10.580  0.3225 -0.1506 -0.2507
30415W        W46889  15.125  16.529   5.484  0.3330 -0.1748  0.3158
30416W        W46890  13.936  18.272   1.989  0.1388 -0.7537 -0.0611
30417W        W46891   3.969  12.027  14.619 -0.2912 -0.2461 -0.2269
30418W        W46892  12.941  10.057  11.266 -0.1681  0.1356  0.5821
30419W        W46893   8.464   8.173  10.322 -0.1841 -0.2193 -0.0475
30420W        W46894   4.231  17.702   2.460 -0.4637  0.1029 -0.2886
30421W        W46895  14.250   1.159  11.024 -0.2401 -0.2563 -0.2657
30422W        W46896  15.679  16.553  11.502 -0.0282  0.4620 -0.3764
30423W        W46897   0.307  12.555  14.018  0.1988 -0.2782  0.2348
30424W        W46898   2.934  14.880  13.018 -0.0801 -0.2638  0.3723
30425W        W46899   6.285   0.209   8.965 -0.0120  0.1320 -0.2999
30426W        W46900   5.240   5.058  14.457 -0.1257 -0.3055 -0.0601
30427W        W46901   9.115   1.030   5.113  0.0600  0.3691 -0.0792
30428W        W46902  16.870   5.258   3.563  0.2615  0.1902 -0.0905
30429W        W46903  12.999   3.585  10.499 -0.0097  0.0410 -0.0771
30430W        W46904  14.669  12.528  11.142 -0.3613 -0.0921  0.0543
30431W        W46905  18.445   8.973   3.138 -0.0993 -0.0062  0.0737
30432W        W46906  14.306   7.537   2.203 -0.2259 -0.2468 -0.2965
30433W        W46907   7.109   1.652  10.193 -0.1295  0.2206 -0.0270
30434W        W46908   3.492   2.257   0.216  0.1203  0.0998 -0.1916
30435W        W46909  11.418   4.909  11.226  0.5882  0.3872 -0.3100
30436W        W46910   8.927  13.441  12.472 -0.1110 -0.0989 -0.1415
30437W        W46911   1.807  10.301  10.935 -0.1622 -0.0484 -0.2415
30438W        W46912   3.661  19.223   3.231  0.2023  0.0784 -0.3063
30439W        W46913  14.621  14.515   2.061  0.1463 -0.3670  0.2231
30440W        W46914  11.522   6.428  14.087 -0.2920 -0.0976  0.2369
30441W        W46915  16.704   8.892  13.376  0.1952 -0.1328 -0.3229
30442W        W46916   0.543   7.460  12.218  0.0269 -0.3702  0.1527
30443W        W46917   9.409  17.271   3.265 -0.0279 -0.0445 -0.0324
30444W        W46918  11.460  10.584  13.578 -0.0030  0.1032 -0.0189
30445W        W46919   3.707   7.571   0.322 -0.1785 -0.4472  0.2655
30446W        W46920   4.742   2.981  12.725  0.0370  0.2106 -0.0832
30447W        W46921  17.255   8.486   1.939 -0.2090 -0.2209  0.0008
30448W        W46922   3.517  12.995  14.646  0.2559  0.2458  0.2056
30449W        W46923  12.075   7.763   1.492  0.3756 -0.1477  0.0446
30450W        W46924  10.709  11.110   4.508  0.2264 -0.0932  0.2823
30451W        W46925   9.864  15.511   4.258 -0.1323 -0.0789  0.1060
30452W        W46926  10.292  17.547  12.788  0.2003 -0.0577 -0.2056
30453W        W46927   6.588  16.707   1.334  0.0417 -0.0345  0.0540
30454W        W46928   7.479   4.144  12.508 -0.0194 -0.1241  0.0478
30455W        W46929   1.717   8.182  13.237 -0.4860 -0.1064  0.1426
30456W        W46930   3.018   3.334   9.476  0.2510 -0.0215 -0.2801
30457W        W46931   6.550   8.493   5.353 -0.0416  0.2807  0.1414
30458W        W46932  15.668   1.121   3.638  0.0508 -0.1352 -0.1112
30459W        W46933  13.871  13.806   0.619 -0.0422  0.3368 -0.1707
30460W        W46934  17.623   6.397   0.954 -0.0162  0.0971  0.1766
30461W        W46935   3.090   0.507   1.871  0.0095  0.0039 -0.0456
30462W        W46936   2.452  15.746  10.754  0.1574  0.0315 -0.0154
30463W        W46937   0.282   3.860  11.042  0.0707 -0.0262 -0.2771
30464W        W46938  12.661  10.158   4.117 -0.1913  0.1292  0.3659
30465W        W46939  12.349  12.934   0.687 -0.1014 -0.1419 -0.1132
30466W        W46940  15.824   8.309   0.211  0.2352  0.0237  0.1824
30467W        W46941  10.984   2.592  10.094  0.0798 -0.2280  0.1559
30468W        W46942   9.067  10.633  11.849  0.0912 -0.0285 -0.3012
30469W        W46943   1.028  14.588  13.202  0.1421 -0.1040 -0.0710
30470W        W46944   7.048   3.044   0.590 -0.0489 -0.2764 -0.2132
30471W        W46945   5.996   7.593   1.423  0.0889  0.0902  0.2553
30472W        W46946   7.781  17.509   2.827 -0.3720  0.3342 -0.1739
30473W        W46947  13.507   8.518   2.879 -0.1869 -0.0611  0.0097
30474W        W46948   0.129  19.034  12.605 -0.2638  0.4623  0.0798
30475W        W46949  18.989   7.532   3.762 -0.0839 -0.0333  0.1003
30476W        W46950  11.736   7.013   4.819 -0.1412  0.1450  0.0719
30477W        W46951  15.601  15.665  14.443  0.0550 -0.1136  0.0328
30478W        W46952  11.644  17.512   3.240  0.0701  0.1475  0.1663
30479W        W46953  15.591  19.257  13.185  0.1257 -0.2627  0.1883
30480W        W46954   7.579  15.292   3.774 -0.0388 -0.0622  0.1072
30481W        W46955   5.709   2.265  11.310  0.0071 -0.0503  0.0373
30482W        W46956   4.354  17.423   3.647 -0.0547 -0.1815 -0.0903
30483W        W46957  18.768   5.654  11.886  0.2947 -0.2476  0.0908
30484W        W46958  11.880   2.683   4.705 -0.2215  0.1823 -0.0120
30485W        W46959  13.798   7.275  14.408 -0.3566 -0.2285 -0.2308
30486W        W46960   1.109   0.255  13.938  0.1573  0.3265 -0.0779
30487W        W46961   0.722   5.481   4.502 -0.1891  0.6422  0.1569
30488W        W46962   3.802   2.947  12.157 -0.1036 -0.1307 -0.0138
30489W        W46963   9.657  13.105  11.445  0.3201  0.0642  0.1660
30490W        W46964  11.979  18.407  13.084  0.0129  0.1758  0.2043
30491W        W46965  10.562   5.031   2.806 -0.3175 -0.2997 -0.0410
30492W        W46966  19.510  14.156  12.839  0.1203  0.2972 -0.0002
30493W        W46967   9.075  16.236   2.501  0.2877 -0.0030  0.2066
30494W        W46968   2.020   3.469  12.981 -0.1645 -0.1988 -0.2700
30495W        W46969   3.346   2.515  11.410 -0.1048  0.0462 -0.1033
30496W        W46970   9.636   8.917   0.378 -0.3283 -0.0625  0.0481
30497W        W46971  10.099   1.347  13.629 -0.2017 -0.1362 -0.2195
30498W        W46972   4.164  12.771  13.609 -0.0694  0.1629  0.1426
30499W        W46973  12.811   9.290  13.483  0.2419 -0.5346 -0.2718
30500W        W46974   1.854  19.003   2.830 -0.0242  0.3360 -0.2523
30501W        W46975   7.694   3.027   2.756  0.1787  0.0919  0.3847
30502W        W46976  18.695  12.445  13.410  0.2144 -0.1348 -0.0132
30503W        W46977   9.941   5.314   4.090 -0.1309  0.0716  0.0162
30504W        W46978   4.665   6.040   0.990  0.1160 -0.0729 -0.2814
30505W        W46979   1.608   3.069  12.925 -0.1332 -0.2511 -0.0028
30506W        W46980  19.388  14.999  11.384 -0.1577  0.1924 -0.0087
30507W        W46981  11.605  11.507   5.298  0.3543 -0.2547 -0.1712
30508W        W46982  18.554  11.268   2.173 -0.2840 -0.0784 -0.0473
30509W        W46983   5.909  17.559   2.039 -0.2571 -0.0865 -0.0096
30510W        W46984   4.390  11.759   4.398  0.1292 -0.1668 -0.2333
30511W        W46985  13.243   4.332  12.151 -0.0230  0.1150 -0.1994
30512W        W46986   7.705   4.582   5.349  0.1890 -0.2338 -0.1881
30513W        W46987  17.606   4.106   0.245 -0.0870  0.2311 -0.2679
30514W        W46988  15.901  16.192  14.675  0.2828 -0.1482  0.0949
30515W        W46989   4.180   2.857  14.708 -0.3599  0.0643 -0.1360
30516W        W46990   8.734   7.406  12.414  0.1726  0.0080 -0.2612
30517W        W46991   6.421   3.746  10.367 -0.1983 -0.0646  0.1359
30518W        W46992  14.195   7.333   0.420  0.0956 -0.0521  0.0753
30519W        W46993   8.405  12.289  12.359  0.2182  0.1282 -0.0720
30520W        W46994  12.823   3.389   2.939 -0.2231 -0.3223 -0.0977
30521W        W46995  13.045   1.131   4.013  0.0264  0.0429  0.3551
30522W        W46996  14.524  12.642   5.122 -0.1537 -0.1254 -0.0208
30523W        W46997  18.640   5.791  11.223  0.2339  0.2078 -0.4117
30524W        W46998   2.220   0.895   4.051 -0.3118  0.0143 -0.2096
30525W        W46999  18.251   9.843  12.196  0.0470 -0.1976 -0.1818
30526W        W47000   6.887   1.563   1.982  0.0261 -0.0818  0.0152
30527W        W47001   7.107  17.487  11.562 -0.2379  0.1023 -0.2591
30528W        W47002   8.290   0.958  14.109  0.0618  0.1627  0.0452
30529W        W47003  19.575  15.349   1.359 -0.3107  0.1367 -0.0102
30530W        W47004   7.724   2.038  11.598 -0.0856  0.0461 -0.2636
30531W        W47005   0.553  15.334   3.069 -0.0223  0.1109  0.1840
30532W        W47006   6.212  13.350  11.852 -0.0534 -0.1048  0.1398
30533W        W47007   1.195   9.985  12.094 -0.0602  0.4096 -0.0986
30534W        W47008   6.344   3.859  11.113 -0.0895 -0.1172  0.0638
30535W        W47009  16.876  13.752   4.305 -0.1805  0.0599  0.0651
30536W        W47010  13.799  18.987   4.093 -0.0371 -0.0060  0.0839
30537W        W47011   2.386  14.075  10.109 -0.3762 -0.0657  0.0407
30538W        W47012   7.227  10.855   2.450  0.0152 -0.0076 -0.3833
30539W        W47013   2.168  15.999  11.226  0.0839 -0.0866 -0.0667
30540W        W47014   6.364  15.970   4.846  0.0738  0.0487 -0.0369
30541W        W47015   0.240   5.302   1.788 -0.2050 -0.0323 -0.1015
30542W        W47016  10.616   6.201   1.769  0.0628  0.0813  0.1818
30543W        W47017  18.773  14.838   9.156  0.1155  0.3831 -0.3281
30544W        W47018  14.855  13.196  14.666 -0.1276  0.4499 -0.2315
30545W        W47019   2.702   9.952  13.622  0.0246  0.2295 -0.1458
30546W        W47020   9.135   9.476  10.563  0.0319  0.2680  0.1354
30547W        W47021  14.189   6.888   1.620  0.3446 -0.0327 -0.0851
30548W        W47022   2.070  17.356  13.573  0.0150  0.0374  0.0233
30549W        W47023   6.551  13.579   1.336 -0.1654 -0.3274  0.0760
30550W        W47024  11.960   0.175  13.715 -0.1487 -0.1774  0.1584
30551W        W47025  15.890   7.424  11.533 -0.1039  0.1333  0.2397
30552W        W47026  15.672  13.258   1.208  0.1406 -0.1514 -0.1891
30553W        W47027   3.814   7.094  13.039 -0.2317 -0.0488 -0.1588
30554W        W47028   9.341  10.108   2.926 -0.0761 -0.0833  0.0149
30555W        W47029   5.414  14.182  13.982 -0.0512  0.0474 -0.2106
30556W        W47030  14.547  13.934  13.829 -0.1624  0.0483  0.0761
30557W        W47031  16.500  12.868  11.764 -0.1348  0.0277 -0.4486
30558W        W47032  18.742  12.863   5.159 -0.0381 -0.0029 -0.0108
30559W        W47033  12.669   4.180  12.539 -0.2766  0.0487  0.0454
30560W        W47034  18.682   6.915   3.119  0.3721  0.1819  0.0490
30561W        W47035   0.636   9.493  11.583  0.2380 -0.1106 -0.1439
30562W        W47036   3.694   8.415   4.947  0.0971  0.2364  0.0375
30563W        W47037  15.533  17.041   1.594 -0.2938 -0.2374 -0.0236
30564W        W47038   2.076  12.570  12.521  0.3379  0.0515  0.1023
30565W        W47039   9.946   9.128  10.667  0.0735  0.1484 -0.2815
30566W        W47040  19.466  15.941   9.239  0.1432 -0.3426 -0.0455
30567W        W47041   2.483  15.048   0.588  0.1097  0.4880  0.0637
30568W        W47042   0.773  16.128  12.349  0.3699  0.1737  0.0364
30569W        W47043  11.685  11.680   1.701  0.1219  0.0857  0.0932
30570W        W47044   9.346   0.757   3.239 -0.0939  0.2492  0.3205
30571W        W47045  11.813  16.812   0.390 -0.2134  0.1864  0.1004
30572W        W47046  11.256  19.005   1.416 -0.1906  0.0531  0.1159
30573W        W47047   6.024   5.561  12.320 -0.1524 -0.3404  0.0750
30574W        W47048  19.021   6.677  12.092 -0.2052  0.0615 -0.0883
30575W        W47049  14.228   1.557  13.454 -0.0140  0.3013 -0.0808
30576W        W47050  14.682  13.734   0.198 -0.0212 -0.0993 -0.0118
30577W        W47051   9.536   5.661  11.966  0.1464  0.2609 -0.0830
30578W        W47052   0.548   2.772   1.466 -0.1855  0.0514  0.1474
30579W        W47053   5.239   2.985   0.002  0.0443 -0.0103  0.1562
30580W        W47054   4.021   1.718   2.305 -0.0824  0.1676 -0.0037
30581W        W47055  16.456   1.620  14.191  0.0880 -0.3347  0.2787
30582W        W47056   5.825   9.968   4.823 -0.0667 -0.0044  0.2345
30583W        W47057   9.610  19.068  10.287 -0.1928 -0.3102  0.0245
30584W        W47058   1.349  14.607   2.131 -0.1717  0.0095  0.2187
30585W        W47059   2.901   9.076   4.861 -0.1053 -0.0397  0.0723
30586W        W47060   8.323   0.449  13.742 -0.1359 -0.0549  0.2028
30587W        W47061   0.254   1.931  13.972 -0.1159 -0.0745  0.0275
30588W        W47062   7.125  18.410  13.368 -0.0666 -0.1364  0.0404
30589W        W47063  15.051  12.335   0.924  0.2661 -0.0255  0.1689
30590W        W47064  13.978   5.814  13.440 -0.2823  0.3196 -0.3649
30591W        W47065  10.690  10.523   3.762 -0.1688  0.1644  0.2517
30592W        W47066   3.222   1.124   2.507 -0.1619 -0.0158 -0.0111
30593W        W47067  19.223   8.369  13.432 -0.1526 -0.1491  0.2799
30594W        W47068  18.911   8.794   4.430 -0.0346 -0.1173 -0.2680
30595W        W47069   4.806   6.265   5.002 -0.0387 -0.1503  0.0975
30596W        W47070   7.709  15.811   4.361  0.0248 -0.2104 -0.3676
30597W        W47071  13.137  17.828   0.519  0.0369  0.2032 -0.0701
30598W        W47072  13.809   9.424  11.424  0.0992  0.0656 -0.1447
30599W        W47073   4.080  11.686   1.115 -0.0177  0.1888 -0.2073
30600W        W47074   7.936   1.842  11.157  0.3613  0.1834  0.4615
30601W        W47075  13.983   0.545   2.337  0.0141 -0.1965  0.1675
30602W        W47076   4.093  19.194   3.550 -0.0110 -0.2810  0.0191
30603W        W47077   1.285   8.605  12.029 -0.4206  0.2935 -0.0598
30604W        W47078  10.526  11.719  11.438  0.3523  0.0346 -0.5282
30605W        W47079   4.858  16.348   3.102 -0.2635 -0.0889 -0.0316
30606W        W47080   1.116   1.693  10.581  0.0562 -0.0528 -0.5853
30607W        W47081   9.261   6.040  14.713 -0.0578  0.1624 -0.0895
30608W        W47082   9.514   8.227  12.095  0.0898  0.1314 -0.3080
30609W        W47083  15.240   5.201   4.599 -0.1308 -0.1157 -0.1116
30610W        W47084  17.865   8.497   1.048  0.3464 -0.3410  0.2701
30611W        W47085   5.008   8.561  13.192 -0.0588 -0.1595  0.0066
30612W        W47086  18.977  13.818  11.840 -0.0977  0.4876  0.3074
30613W        W47087   8.609  16.840  13.852  0.0810 -0.0356 -0.0500
30614W        W47088  16.494   4.408   2.438  0.0836 -0.1613 -0.1712
30615W        W47089  14.680  10.959  12.376  0.0327 -0.2632 -0.0713
30616W        W47090   9.051   9.307  13.799 -0.0375 -0.2320 -0.1825
30617W        W47091  15.350  12.833   0.904  0.1534 -0.0626 -0.0802
30618W        W47092   8.669  18.405   2.548 -0.0401 -0.1244  0.0748
30619W        W47093   3.155  10.166  13.729  0.0764 -0.1452  0.0725
30620W        W47094   0.106   2.293   1.335 -0.3383  0.0708 -0.1870
30621W        W47095   0.615   1.233   0.549 -0.0570  0.2595  0.4339
30622W        W47096   8.782   8.955  14.099  0.4441 -0.2023  0.2231
30623W        W47097   4.972  10.100   1.906 -0.1204 -0.4028  0.0093
30624W        W47098  12.071   1.172   2.322  0.0056 -0.1418  0.4446
30625W        W47099   8.990  15.900  11.558 -0.1295 -0.1987  0.1364
30626W        W47100   8.832  14.174   4.156 -0.1286 -0.0882 -0.2162
30627W        W47101   0.279  13.291  11.895  0.0285  0.3899 -0.0964
30628W        W47102   5.939   6.545  14.009 -0.4067 -0.2465 -0.1490
30629W        W47103   1.540   3.006  13.811 -0.1043  0.2224  0.0972
30630W        W47104   5.940  11.582  13.459 -0.0249 -0.0725 -0.1485
30631W        W47105   4.990   6.867  12.042 -0.0254 -0.1343 -0.1911
30632W        W47106   4.100   4.074  10.998  0.1241 -0.0667  0.4581
30633W        W47107  12.354   3.993   2.282  0.0155 -0.1683  0.1068
30634W        W47108   2.402   5.572   5.069  0.0385 -0.3232  0.3146
30635W        W47109  11.575   0.415  10.469 -0.0042  0.2960  0.1272
30636W        W47110  16.306   6.560   2.882 -0.2848 -0.4002  0.0160
30637W        W47111   0.675   6.992   0.357 -0.2862 -0.2777  0.2242
30638W        W47112   8.138  11.283  10.665  0.0312 -0.0903 -0.1739
30639W        W47113  16.804  10.832  13.386  0.0619 -0.0915  0.1427
30640W        W47114   1.411  16.964  10.231 -0.1669  0.0090  0.5125
30641W        W47115   8.388   6.203   3.288  0.3578 -0.0679 -0.0673
30642W        W47116   6.061  13.512   3.064 -0.1832  0.0407 -0.0855
30643W        W47117   9.797  13.611  12.403  0.0219 -0.0113  0.0141
30644W        W47118   2.117   7.617  12.487 -0.1581 -0.1142 -0.2584
30645W        W47119  14.712   1.349  12.614 -0.1697  0.3658 -0.4497
30646W        W47120   9.214   7.755  12.992  0.0857 -0.0402 -0.0838
30647W        W47121   7.481  13.874   2.668  0.0502 -0.2012  0.3833
30648W        W47122  13.831  11.358   4.843 -0.1310 -0.2510  0.2872
30649W        W47123  15.234   2.965   3.579 -0.0612  0.5472  0.1669
30650W        W47124   8.330   4.623  12.628  0.2072 -0.1258  0.1991
30651W        W47125   6.142   0.787  10.498 -0.2683 -0.1306  0.1736
30652W        W47126  12.406   5.300   3.909  0.0388  0.1494  0.1855
30653W        W47127  17.453  10.980   2.787  0.1687  0.2195 -0.3244
30654W        W47128   6.024   9.345   3.982  0.1351  0.2597 -0.0555
30655W        W47129  11.730  14.331   3.315  0.1407  0.0561 -0.1686
30656W        W47130  16.204   7.003  14.550  0.1602 -0.0021  0.3994
30657W        W47131  13.558  15.277  12.565  0.2130 -0.7406  0.0037
30658W        W47132  17.265  16.760   3.989 -0.0135 -0.0235  0.0606
30659W        W47133  19.197   2.004   3.185  0.2216 -0.0168  0.0407
30660W        W47134   6.919   7.772   1.213 -0.0377 -0.5365  0.0512
30661W        W47135  11.263  12.622   1.651  0.0731 -0.2604  0.2730
30662W        W47136   2.811   1.533   0.176  0.2362  0.3538  0.0409
30663W        W47137   9.552  18.767   1.010 -0.4328  0.0738 -0.1830
30664W        W47138   6.931  13.392   3.321  0.0835  0.1860 -0.0607
30665W        W47139   2.917   3.153   0.959 -0.2716  0.0291 -0.2271
30666W        W47140   2.923   2.912   2.824  0.0655 -0.2077 -0.0190
30667W        W47141   3.903   0.108   0.655 -0.2612  0.0798 -0.1748
30668W        W47142  18.298   2.476  13.328 -0.3551 -0.1787  0.0727
30669W        W47143  18.406  14.743   1.923 -0.1093  0.2473  0.0555
30670W        W47144   3.181  12.356   2.352 -0.2610 -0.0699 -0.3690
30671W        W47145   8.899  18.842   0.362  0.0340 -0.3001  0.0540
30672W        W47146   8.847  13.005  14.185 -0.1981 -0.2528  0.1965
30673W        W47147  16.417   2.910  10.293 -0.0326 -0.2468 -0.0629
30674W        W47148  16.017  16.675  14.373  0.0462  0.0004  0.0096
30675W        W47149  12.395   9.899  12.768 -0.1630 -0.1077  0.1297
30676W        W47150  13.566   1.773  14.555 -0.5961 -0.1383 -0.1034
30677W        W47151  19.061  16.877   9.524  0.1414 -0.2197 -0.0549
30678W        W47152   5.171   4.402   0.436 -0.2501 -0.2101 -0.0981
30679W        W47153   3.365  17.950  12.549  0.0939  0.0041  0.0229
30680W        W47154   1.478  18.129   4.549 -0.1342  0.0020 -0.2084
30681W        W47155  17.084  15.604   3.912 -0.1030 -0.0049 -0.2504
30682W        W47156   5.328   2.221   4.317 -0.2816  0.6286 -0.2905
30683W        W47157  18.860   8.844   5.894 -0.4169  0.0117  0.0491
30684W        W47158  17.021  16.639   0.573 -0.0246  0.1749  0.0769
30685W        W47159  13.345  13.146   1.817  0.0728 -0.1804  0.0549
30686W        W47160   9.553  12.799   2.909  0.1278  0.0479  0.1699
30687W        W47161  10.779   5.148  12.074  0.1482  0.1202 -0.1950
30688W        W47162   9.493  16.278  10.250 -0.2717 -0.2026 -0.1892
30689W        W47163   8.029  14.281   1.959  0.0777 -0.2500  0.2420
30690W        W47164   6.473  13.388  10.222 -0.0884  0.0118  0.1943
30691W        W47165   3.973   8.539  12.395  0.1007  0.1565 -0.2229
30692W        W47166   2.179  16.324  13.464 -0.0812 -0.1395  0.0834
30693W        W47167   6.643  14.749   4.140 -0.2832  0.3554  0.0162
30694W        W47168   9.695  10.673   9.346  0.0291 -0.0587 -0.0989
30695W        W47169   2.196   7.793   3.099  0.2323 -0.3756 -0.2878
30696W        W47170   6.895  14.203  14.452  0.0150  0.1198 -0.2464
30697W        W47171  13.243   2.881   4.340 -0.0110  0.0118  0.1686
30698W        W47172  10.729   1.233   3.053  0.1253 -0.1204 -0.0180
30699W        W47173   3.768  14.131   0.347  0.1741  0.5331  0.5473
30700W        W47174   4.691  15.033  14.063  0.1752  0.1199 -0.1714
30701W        W47175   4.831   7.571  14.056 -0.3351 -0.1362  0.0941
30702W        W47176  18.290  13.447   0.951 -0.1493 -0.3255 -0.0366
30703W        W47177  19.345  13.380   3.380  0.1268 -0.2333  0.1068
30704W        W47178   5.207   3.371   2.130 -0.0784 -0.0701 -0.1974
30705W        W47179  16.318  10.292  14.150 -0.0561  0.1393 -0.1201
30706W        W47180  10.693   4.256  12.291  0.2074 -0.3303 -0.0426
30707W        W47181  17.681  12.270   1.704 -0.0081 -0.0235 -0.0442
30708W        W47182  11.025   5.834   5.711  0.0186 -0.2073 -0.0736
30709W        W47183  13.231   3.066   5.347  0.0195  0.0385 -0.2073
30710W        W47184  10.532   0.030   5.293  0.0678 -0.0821 -0.2934
30711W        W47185  16.359   6.792  13.586 -0.0899  0.1701  0.0320
30712W        W47186  12.110   9.339  14.461 -0.1532 -0.0209 -0.0349
30713W        W47187   4.841   9.830   1.380 -0.2401 -0.3129 -0.1540
30714W        W47188   9.648   8.940   2.075 -0.1333 -0.1591  0.0809
30715W        W47189  12.956  15.466   9.918  0.0263 -0.0482 -0.0322
30716W        W47190   3.451   7.454   1.099 -0.0663  0.0589  0.1005
30717W        W47191  17.031   0.068   3.745 -0.0580  0.0360  0.2695
30718W        W47192  11.527  18.575   9.676 -0.0805 -0.0615  0.3643
30719W        W47193  15.113   8.160  13.123  0.0649 -0.1344  0.0757
30720W        W47194   6.640  16.405   5.003 -0.1245  0.2124 -0.0169
30721W        W47195   8.842  15.365   3.461  0.1988  0.3574 -0.0124
30722W        W47196   4.454  16.240   1.722 -0.0315  0.2898  0.0762
30723W        W47197   0.175   2.054   0.300 -0.1751 -0.0996 -0.0521
30724W        W47198   9.822   0.794   3.630  0.1293  0.1487  0.2771
30725W        W47199  13.946   2.993   0.815  0.0124 -0.0825 -0.0676
30726W        W47200   2.667   3.876  14.165  0.1056  0.0552 -0.3661
30727W        W47201  14.898  16.108   1.005  0.4597 -0.2035 -0.0541
30728W        W47202   9.798   7.968  14.365  0.0898 -0.0088  0.0483
30729W        W47203   6.437  11.852   3.269  0.1079  0.0076 -0.0723
30730W        W47204  15.388   6.087   1.631 -0.0467  0.1743  0.0869
30731W        W47205   6.180  15.582   1.973  0.1673  0.2051 -0.0890
30732W        W47206   0.582  10.686   0.677  0.0675  0.1482  0.2009
30733W        W47207  10.766  18.680  14.333 -0.0787  0.2411  0.2094
30734W        W47208   3.779  16.988   2.783 -0.1544 -0.0409 -0.0406
30735W        W47209  13.878   4.191   3.798 -0.0571  0.1643 -0.0683
30736W        W47210   6.143   1.363  12.583 -0.0951  0.1486 -0.1277
30737W        W47211  13.815  17.175  13.620  0.1526 -0.3112 -0.1845
30738W        W47212   4.309  14.350   2.594  0.0743 -0.0102  0.2475
30739W        W47213  11.310   3.340   5.018  0.0737 -0.0634  0.0414
30740W        W47214  11.572  10.213   2.431 -0.0098 -0.0503  0.3453
30741W        W47215   2.755   3.716   3.458  0.3647 -0.1143 -0.0435
30742W        W47216   3.975   8.205  11.305 -0.0080 -0.0511  0.0821
30743W        W47217  13.686  11.777  13.751 -0.0816  0.1087  0.0668
30744W        W47218   3.359   8.028   9.294  0.1614  0.0188  0.2017
30745W        W47219   5.718   3.215   4.743 -0.0298 -0.1155  0.0420
30746W        W47220  12.829  11.726   4.567  0.2033  0.2905  0.0299
30747W        W47221  18.567  10.816  12.001 -0.0485 -0.1866  0.0345
30748W        W47222  14.152  15.286  13.293  0.1437 -0.3102 -0.0419
30749W        W47223   4.297   3.331   0.672 -0.2530  0.4107  0.0154
30750W        W47224  15.675   3.814   3.536 -0.2311 -0.2932  0.2229
30751W        W47225   7.005  12.908  10.897  0.1861  0.1272 -0.0552
30752W        W47226  17.603  15.017   4.728  0.0043  0.0551 -0.4587
30753W        W47227  16.314  16.212  11.906 -0.0105 -0.2924  0.1140
30754W        W47228   4.730  12.938   2.968  0.0713  0.0216  0.1889
30755W        W47229  11.382  14.781   0.265 -0.1344  0.1695  0.1179
30756W        W47230   7.882  14.421  12.181 -0.0478  0.1072  0.1614
30757W        W47231   5.953   7.553  12.966 -0.0700  0.2067 -0.0248
30758W        W47232  12.767   3.231   5.668 -0.2133 -0.0744  0.0169
30759W        W47233  16.309   5.310   4.749 -0.3287 -0.5974 -0.0180
30760W        W47234  17.106  11.867  12.501 -0.0026 -0.2421 -0.0155
30761W        W47235   3.202   1.663  13.951 -0.0994 -0.2358 -0.0759
30762W        W47236   5.770  13.829   2.219 -0.0333 -0.4160 -0.3236
30763W        W47237  13.324   0.593   3.142  0.0006  0.1390  0.2929
30764W        W47238   1.204   9.994  13.964  0.0283  0.2204  0.0502
30765W        W47239  13.808  13.317  11.236 -0.4851 -0.1947  0.2350
30766W        W47240   5.101   1.688   3.436  0.2368 -0.0220 -0.2038
30767W        W47241   9.781  11.528  13.220  0.2338 -0.1761 -0.0207
30768W        W47242  17.909   6.744  12.333 -0.0914 -0.0860  0.0023
30769W        W47243   1.014  11.824  14.591 -0.1290 -0.0951  0.2391
30770W        W47244  13.150   0.940   2.629  0.0885 -0.0597  0.0605
30771W        W47245   8.384  14.568   3.886 -0.1925 -0.0413  0.0613
30772W        W47246   7.869   8.691  13.966  0.3465  0.0774  0.0829
30773W        W47247   3.482   8.403   0.316  0.0189  0.3286 -0.2413
30774W        W47248   5.329  19.041   9.815 -0.2024  0.2419  0.2719
30775W        W47249   5.425  16.780  11.389 -0.0001  0.2910 -0.1781
30776W        W47250   6.301   0.876   1.132  0.1029  0.0880 -0.1061
30777W        W47251   8.479  18.473  11.497 -0.1167 -0.2389  0.3898
30778W        W47252   7.390  13.754  14.710 -0.1727 -0.0925 -0.1202
30779W        W47253  14.746   8.731   4.923 -0.2522  0.2909  0.1174
30780W        W47254   0.101   5.551  14.253 -0.1350  0.3308  0.2066
30781W        W47255  16.757  13.280   0.480  0.0053 -0.0585  0.0281
30782W        W47256  18.811   3.987   9.098 -0.0900  0.0612  0.0751
30783W        W47257  17.726  15.452   3.954 -0.1509 -0.0098 -0.1434
30784W        W47258   4.401  18.237   3.447 -0.0501 -0.1947 -0.0009
30785W        W47259  11.734  13.544  10.334 -0.2132  0.0363  0.1169
30786W        W47260   7.308   4.549  13.829  0.1735 -0.1688  0.3089
30787W        W47261  17.494   8.921   5.084 -0.3006  0.0218 -0.0395
30788W        W47262   7.903   9.571   4.571  0.3902 -0.3481 -0.5215
30789W        W47263   2.042  13.956  11.956  0.0220  0.0447  0.3614
30790W        W47264  11.442  12.763  10.750  0.2071 -0.0224 -0.2675
30791W        W47265   2.576  11.236  11.369  0.1412  0.2432  0.4599
30792W        W47266   4.379   6.463   5.015  0.0615  0.2777  0.2822
30793W        W47267  12.361  16.075  10.415  0.0406 -0.5435 -0.2510
30794W        W47268  10.650   8.681   0.607  0.3363  0.0879  0.3061
30795W        W47269  12.768   2.642  14.268 -0.1683  0.0842  0.0499
30796W        W47270  17.346  13.945   3.110 -0.0757 -0.3014  0.5030
30797W        W47271   4.729  18.062  12.588  0.2194  0.0771 -0.2964
30798W        W47272  12.763  11.793  10.340 -0.1837 -0.0048  0.0805
30799W        W47273  15.558  11.977  14.443  0.0011  0.0079  0.0614
30800W        W47274  19.099  11.106  14.116  0.0799 -0.2608  0.2508
30801W        W47275   2.622   1.572   0.637  0.0391  0.1335  0.3255
30802W        W47276   3.890   6.833  11.055  0.3953  0.1990  0.1826
30803W        W47277  12.636   9.501  14.255 -0.0117  0.0485  0.1589
30804W        W47278  18.770  10.712  10.845  0.1037  0.1582  0.0957
30805W        W47279  17.659  13.326   5.531 -0.1851  0.0401 -0.1964
30806W        W47280  16.667  11.872   0.740 -0.1351  0.0194 -0.3334
30807W        W47281   4.119   5.512  10.835  0.1495 -0.0790 -0.3299
30808W        W47282   7.620  12.100  11.831 -0.1278  0.1601  0.2998
30809W        W47283  15.880   9.560  10.908 -0.0153 -0.1214 -0.0960
30810W        W47284   9.436   4.966   0.613 -0.0004  0.0420 -0.1672
30811W        W47285   8.893   5.017   3.815  0.1938 -0.0568 -0.0732
30812W        W47286  18.423   1.463   0.395 -0.1081 -0.1253 -0.2667
30813W        W47287   5.643  16.760  12.290  0.0693  0.1323 -0.1425
30814W        W47288   7.261  13.231   1.915  0.2093  0.2948  0.0235
30815W        W47289  15.453  15.089   9.277  0.4579 -0.3075  0.2885
30816W        W47290  18.686  10.690  14.697 -0.2478  0.2208  0.0774
30817W        W47291  16.778  11.206   4.986  0.4220  0.0660 -0.2509
30818W        W47292   7.984  15.945   0.250 -0.0384 -0.0018  0.0873
30819W        W47293   8.200  16.998  11.822  0.3207 -0.0749  0.1733
30820W        W47294   2.486  10.149  11.487 -0.0858 -0.1568 -0.1467
30821W        W47295  17.770   1.795  10.828 -0.1801  0.1393  0.2828
30822W        W47296  10.653  17.287  13.176  0.1715 -0.3767 -0.1810
30823W        W47297  12.836  15.602  12.049  0.1824 -0.0371 -0.1985
30824W        W47298  18.300   1.712   1.868  0.0985 -0.0837 -0.0805
30825W        W47299   0.657   4.027  14.167 -0.1129 -0.4312  0.0878
30826W        W47300  17.651  19.307  12.531 -0.2608  0.0385  0.0355
30827W        W47301   2.238  10.591   0.502  0.1000  0.0963  0.0833
30828W        W47302   5.881   6.867  14.367  0.0705  0.2306  0.0804
30829W        W47303  19.244  14.030   3.851  0.0283 -0.2662  0.0187
30830W        W47304  15.016  14.375  13.494  0.0332 -0.4107 -0.2156
30831W        W47305  16.844   3.252  10.154 -0.0711  0.1741 -0.0492
30832W        W47306   6.398   1.999   0.073  0.3057  0.0170  0.3049
30833W        W47307   7.272  11.211  14.443 -0.1259  0.3703 -0.2743
30834W        W47308   7.755  14.574  13.896  0.2307 -0.1936  0.2944
30835W        W47309  13.002   4.416   4.081  0.1403  0.1364  0.6771
30836W        W47310   8.517   7.951   0.944  0.2443  0.1656 -0.2550
30837W        W47311  13.303   1.914  12.593  0.0552 -0.2112 -0.3478
30838W        W47312   2.605   2.303  14.488  0.1791  0.0436  0.0646
30839W        W47313   5.017  19.035   1.340 -0.0515  0.0644  0.0357
30840W        W47314  19.075  19.210   3.047  0.0960 -0.0050  0.1551
30841W        W47315   2.433   8.408  10.875  0.0577 -0.1872  0.3461
30842W        W47316  13.712   9.398   0.039  0.1011 -0.1679 -0.0254
30843W        W47317  12.920  13.763   5.559 -0.1511  0.1491  0.2165
30844W        W47318   8.383   2.252  14.571  0.2551 -0.1322 -0.2272
30845W        W47319  13.889  12.943  14.701  0.2090 -0.5511 -0.0563
30846W        W47320   2.591   7.555  13.132  0.0167 -0.1795  0.0422
30847W        W47321  15.477   1.878  12.715 -0.1645  0.0194  0.2561
30848W        W47322  13.321   8.922  11.617 -0.1488 -0.0075 -0.0593
30849W        W47323  12.492  14.455   1.963 -0.0173  0.3023 -0.1451
30850W        W47324   5.869  13.251   4.132  0.0484 -0.1301 -0.3542
30851W        W47325  18.606  16.271   0.351  0.0400  0.0301 -0.0615
30852W        W47326   4.909  14.132   3.255  0.5387  0.2716  0.0748
30853W        W47327   1.896  11.558   1.310 -0.0529  0.1848 -0.3480
30854W        W47328   0.738   5.679  11.088  0.0529  0.3917 -0.1487
30855W        W47329  13.492   3.612  14.391 -0.1864  0.2909 -0.0220
30856W        W47330  15.875   2.022  13.605 -0.1142  0.0950 -0.2492
30857W        W47331   3.076  15.697  10.750 -0.0573  0.2164 -0.2010
30858W        W47332  11.889   5.875   0.949  0.1341 -0.0980  0.0299
30859W        W47333  11.199   6.854   2.933  0.0237 -0.1735  0.0232
30860W        W47334   4.736   2.117   5.000 -0.0800 -0.2351  0.0267
30861W        W47335  14.974  16.351  12.256  0.2940  0.6530 -0.2099
30862W        W47336  11.449  14.083  13.406 -0.1508  0.0779  0.2016
30863W        W47337   8.828  12.712  13.039 -0.3093  0.1367  0.0385
30864W        W47338  16.820   8.433  10.603  0.6136 -0.1611 -0.0248
30865W        W47339  16.137  15.194  12.868 -0.0657 -0.0464  0.0221
30866W        W47340   5.928   1.595   2.222  0.0267 -0.2007  0.2826
30867W        W47341   6.134   7.826   2.960 -0.1047  0.1888 -0.4356
30868W        W47342  11.905   6.645   3.027  0.1924  0.3023 -0.2330
30869W        W47343  10.425  17.503   5.256 -0.1163 -0.2427  0.1189
30870W        W47344   2.876  10.203   3.420  0.0750  0.0304 -0.1819
30871W        W47345   9.578  15.093   3.533 -0.0696  0.2068 -0.2026
30872W        W47346  17.892  15.522  12.750 -0.0002  0.1973  0.2538
30873W        W47347  16.891  11.694  13.660 -0.0454  0.0279  0.0667
30874W        W47348  11.973  18.834  13.833  0.2949 -0.3003 -0.1546
30875W        W47349   3.117   9.329   2.990  0.3983 -0.2382 -0.1056
30876W        W47350   6.996  13.900  12.458  0.1363  0.2344  0.0920
30877W        W47351  12.957  15.086  13.660  0.1177 -0.0061 -0.2672
30878W        W47352  13.637  12.810   1.528 -0.1933 -0.0549 -0.1190
30879W        W47353  18.883   9.720   4.088  0.2902  0.0986 -0.0156
30880W        W47354   1.657   9.038   0.838  0.0701 -0.2464  0.1662
30881W        W47355   8.230   7.228   3.568 -0.0729  0.1145 -0.1258
30882W        W47356   5.661   4.391   0.109  0.0116 -0.0711 -0.0384
30883W        W47357   7.191   0.231   1.948  0.1862 -0.1664  0.0017
30884W        W47358   1.732  15.009   1.397 -0.0817 -0.1014 -0.0553
30885W        W47359   7.070   8.752   4.595  0.1191 -0.2902 -0.2884
30886W        W47360   5.216  10.211  13.233  0.1461 -0.2674 -0.0874
30887W        W47361  10.883   3.870  12.576 -0.0136  0.3035  0.1845
30888W        W47362  15.861   4.707  12.417  0.2540  0.0625 -0.0757
30889W        W47363  13.578  17.196  10.652 -0.0461 -0.1253  0.1489
30890W        W47364  10.744   2.435   2.092 -0.0202 -0.0137  0.1646
30891W        W47365   4.276  14.209  14.576  0.1161 -0.0808  0.1774
30892W        W47366   2.385   4.449   4.333 -0.0088 -0.0037  0.0430
30893W        W47367   2.589   7.021  13.784 -0.2880  0.0531 -0.0937
30894W        W47368  11.445  10.183   5.013  0.0284 -0.1527  0.0520
30895W        W47369  10.292   0.435  13.600  0.0511  0.6685  0.0705
30896W        W47370  10.483   1.140  13.160  0.0558  0.0992  0.0820
30897W        W47371  15.438   3.635  13.362 -0.2179 -0.0128 -0.4273
30898W        W47372   2.161   1.365   3.154 -0.0940 -0.2055  0.1426
30899W        W47373  12.912   5.667   2.272  0.2632 -0.2050 -0.0510
30900W        W47374  15.782   8.991   4.429  0.3053 -0.4040  0.0533
30901W        W47375   3.077  18.066  10.557  0.0064  0.0604 -0.0600
30902W        W47376   8.152   6.128   2.039  0.1535 -0.2749  0.2785
30903W        W47377   8.054   3.791  13.962  0.1775  0.3990 -0.1499
30904W        W47378   5.052   0.379  13.907  0.2165  0.1197 -0.1357
30905W        W47379   7.197   5.795   9.663  0.1326  0.0341  0.1276
30906W        W47380   8.161  17.913   2.846  0.0626  0.0972  0.0843
30907W        W47381  13.856   8.389   3.361  0.0581 -0.0686 -0.0590
30908W        W47382  15.882  18.865  14.000  0.2708 -0.0353  0.2662
30909W        W47383  17.810  16.368   4.616 -0.2064  0.1714 -0.1055
30910W        W47384  11.676   1.870  13.955 -0.1643  0.0563 -0.1813
30911W        W47385  10.845   7.320  10.905  0.0993  0.0509 -0.1857
30912W        W47386  17.495   2.973   0.779  0.0570  0.1933  0.1173
30913W        W47387   4.552   2.897   5.529 -0.1016 -0.0136  0.4081
30914W        W47388  12.378   2.611   1.038  0.1182  0.0459  0.0016
30915W        W47389  10.400  17.118  11.941  0.2180 -0.2543 -0.0466
30916W        W47390  18.342  13.821  10.377 -0.0487  0.1203  0.1754
30917W        W47391   8.286   0.381   1.008 -0.0080  0.1419 -0.1107
30918W        W47392  16.458   4.612   0.022  0.0020 -0.0418  0.1918
30919W        W47393   6.654   7.092  10.503  0.0807  0.0020  0.2254
30920W        W47394  11.197  14.920  13.891 -0.0032 -0.0042  0.0297
30921W        W47395   0.041  16.908   3.057  0.0157 -0.0763  0.0521
30922W        W47396  15.735   8.810   5.019  0.2693  0.1828  0.2426
30923W        W47397   1.779   9.310  11.773  0.4770 -0.0561 -0.2108
30924W        W47398   9.428   8.967  10.620  0.0680  0.2072  0.0555
30925W        W47399   5.503   5.701   1.862  0.1439  0.1497  0.0280
30926W        W47400  16.010  13.742  14.360  0.0475 -0.3695  0.0910
30927W        W47401   1.861   0.306   2.259  0.2090 -0.1032 -0.1545
30928W        W47402  15.237   3.545   3.475 -0.0324  0.2015 -0.0707
30929W        W47403  10.637   6.305  12.436 -0.4410  0.1505  0.0566
30930W        W47404   4.380   3.614   1.859 -0.1021  0.1359  0.2546
30931W        W47405  13.903  17.498  12.841 -0.1422  0.0834 -0.1008
30932W        W47406   3.994  11.072   2.101 -0.0815  0.1557 -0.0679
30933W        W47407   4.243  16.114   3.892  0.0482  0.1883 -0.2564
30934W        W47408   8.672   7.598  11.712 -0.0048  0.0999 -0.0738
30935W        W47409   5.364  13.077   0.914 -0.1311 -0.3150 -0.0153
30936W        W47410  11.458  10.840   3.046 -0.2424 -0.1994  0.3949
30937W        W47411   2.338  13.207   1.387  0.0219 -0.1577 -0.1577
30938W        W47412   2.630  18.797   2.378 -0.0883 -0.1274 -0.1676
30939W        W47413  18.253  14.121   5.461  0.1104 -0.1989  0.1712
30940W        W47414  18.538  14.176   1.681 -0.0152  0.2666  0.2502
30941W        W47415   8.383   6.743   5.560  0.2192  0.0754  0.2625
30942W        W47416   1.285   1.304   3.816 -0.1779 -0.0348 -0.0536
30943W        W47417  18.929   2.640   3.997 -0.0294 -0.0141  0.0636
30944W        W47418   5.194   3.638  13.030 -0.0159  0.0138 -0.0201
30945W        W47419   5.525   6.206   4.573  0.2646  0.0579  0.0798
30946W        W47420   1.814   3.481   3.161 -0.0873 -0.1036  0.1730
30947W        W47421   0.487  10.969  13.200  0.0182  0.2013  0.1180
30948W        W47422  18.399   3.104   2.136  0.2616  0.3349 -0.1154
30949W        W47423  10.022  15.351  12.024 -0.0513  0.0559  0.1298
30950W        W47424  10.880   5.956   3.969  0.1389  0.1090  0.5056
30951W        W47425  15.397   4.919  13.568  0.2219 -0.1124  0.0007
30952W        W47426   5.908  17.937  13.213  0.1784 -0.2365 -0.2289
30953W        W47427  15.401   1.260  10.420 -0.3071 -0.0898  0.2043
30954W        W47428  10.176   0.396   0.797 -0.1622 -0.0326 -0.1284
30955W        W47429   1.672   2.388   2.828  0.2982  0.2376 -0.3246
30956W        W47430  10.423  15.411  10.903  0.1587 -0.0909 -0.1665
30957W        W47431  15.798   3.854   1.321 -0.0995  0.2818 -0.2081
30958W        W47432  19.150  10.647  12.531  0.0860  0.1884  0.0329
30959W        W47433   3.380  13.679  10.924 -0.1328  0.0434  0.0593
30960W        W47434   9.336  10.725   0.165  0.0751 -0.1120 -0.1245
30961W        W47435   8.525   4.145   5.019  0.0988 -0.1332  0.2975
30962W        W47436  16.053  14.486  12.959  0.0048  0.1989 -0.0572
30963W        W47437  13.325   6.186   0.852  0.2395  0.2758  0.2633
30964W        W47438  18.542   9.197   1.940  0.2644 -0.5728 -0.2549
30965W        W47439  17.295  16.525  14.230  0.1632 -0.0754 -0.0637
30966W        W47440   4.727  10.899  11.392 -0.1758  0.0490 -0.1697
30967W        W47441  17.548  17.362   2.680 -0.3331 -0.4834  0.2183
30968W        W47442  16.355   5.428   5.269 -0.2379  0.2013  0.0443
30969W        W47443   7.487  14.981   1.661  0.0433  0.2238 -0.0733
30970W        W47444   0.058   9.956   9.963 -0.0613 -0.0226  0.1785
30971W        W47445   5.257  16.318   3.386  0.0282  0.1111 -0.2888
30972W        W47446  13.260   3.190   1.965  0.1109 -0.0906  0.0876
30973W        W47447  12.776   2.037   3.067  0.0542 -0.1672  0.1838
30974W        W47448  11.953  17.222   2.287 -0.1808  0.2215  0.2118
30975W        W47449  13.240   9.564   1.888  0.2199 -0.0706 -0.2235
30976W        W47450  15.456   9.202   4.986  0.2112 -0.1050 -0.2906
30977W        W47451   3.708  16.499   2.993 -0.0066 -0.4274  0.1223
30978W        W47452   2.420   9.343  14.544 -0.0465  0.4300 -0.1293
30979W        W47453   9.700  17.650   4.829 -0.4240  0.2469  0.2789
30980W        W47454  12.797   6.779  11.068  0.0476 -0.1848 -0.0318
30981W        W47455   0.431  10.317  11.250  0.2300  0.0608  0.2219
30982W        W47456  12.651   7.233   3.321 -0.0731 -0.0545  0.2675
30983W        W47457  11.909   9.213   2.144  0.1386  0.1423  0.0054
30984W        W47458   4.473   6.665   2.247 -0.2463  0.1516 -0.0847
30985W        W47459  16.598   5.800  13.284 -0.1574 -0.1387  0.0487
30986W        W47460  16.873   9.040  10.791 -0.2561 -0.3823 -0.1940
30987W        W47461  17.034   3.879  13.932 -0.0731 -0.1669  0.4286
30988W        W47462   8.802   7.960   0.134 -0.0100 -0.0245 -0.0794
30989W        W47463   4.318   2.979   4.294  0.0924 -0.3331 -0.1183
30990W        W47464   8.529  12.387  13.281  0.2300  0.0935  0.5421
30991W        W47465   7.009  14.018  10.312  0.0233  0.4525 -0.2148
30992W        W47466  18.455  12.554   9.303 -0.1134  0.1587 -0.0168
30993W        W47467   7.737   5.011   5.069  0.0914 -0.1004 -0.0375
30994W        W47468  17.109  16.070  14.564 -0.2794  0.1131 -0.0160
30995W        W47469  15.897   9.173   5.310  0.0066  0.4403  0.0328
30996W        W47470  14.989   5.572   3.436  0.0835  0.3665 -0.1887
30997W        W47471   4.993  18.778   1.882  0.1128 -0.3471 -0.3017
30998W        W47472  16.023  17.147   0.904 -0.0203  0.1526 -0.4009
30999W        W47473   1.480  15.368   3.698  0.0764 -0.0896 -0.2487
31000W        W47474   0.207  12.907   0.296 -0.0297 -0.1129  0.4072
31001W        W47475  10.800  16.571   0.004 -0.3106  0.0730  0.0822
31002W        W47476  16.937   4.516  11.954 -0.1024 -0.0104 -0.2355
31003W        W47477   9.637  11.309   1.015  0.4171  0.1823  0.3811
31004W        W47478   0.841  15.265  14.122 -0.0439  0.1625 -0.0815
31005W        W47479  17.198   7.810   5.730  0.1953  0.0808 -0.0048
31006W        W47480   9.420   3.469   0.482 -0.0468 -0.2970  0.1721
31007W        W47481  10.041   1.552  11.350 -0.0478 -0.2037 -0.1054
31008W        W47482  15.591  18.767   3.250  0.1839  0.1086  0.1116
31009W        W47483  12.239   7.609  12.297  0.0585 -0.0502  0.4827
31010W        W47484  10.211  17.574  14.691  0.1319  0.1335  0.0127
31011W        W47485  14.683   2.673  12.336 -0.0063 -0.2260  0.0749
31012W        W47486  10.914  12.140   3.271  0.0528  0.0627 -0.2196
31013W        W47487   3.098  10.873   2.395 -0.1045  0.2084 -0.0972
31014W        W47488  18.869  12.245  13.912 -0.0777 -0.2585 -0.1311
31015W        W47489  11.684   8.864   3.179 -0.1725  0.1981  0.0269
31016W        W47490  12.967  10.560  12.546 -0.0878  0.1605 -0.0132
31017W        W47491   1.344  17.783  14.196  0.1799  0.0672 -0.1211
31018W        W47492  14.884   3.172   1.098  0.0817  0.2075  0.1484
31019W        W47493  12.350   8.573   0.076  0.3666  0.0500  0.0815
31020W        W47494   9.369  11.690  12.331 -0.3613  0.1270  0.1189
31021W        W47495  14.691  12.543  13.597  0.3186  0.3376 -0.3685
31022W        W47496   6.460   0.455   3.857 -0.1459  0.1443  0.3168
31023W        W47497  17.738   9.028  10.344 -0.1882 -0.4915  0.2120
31024W        W47498  14.180  16.793   0.279  0.2418  0.1881  0.4053
31025W        W47499  17.101   9.771  11.265  0.0440 -0.1179  0.2212
31026W        W47500   8.024   7.585   1.794 -0.1042 -0.0329  0.3623
31027W        W47501   6.025   6.372  13.521  0.3255  0.1471  0.0414
31028W        W47502  11.304   3.910  12.891 -0.0835  0.2564 -0.1800
31029W        W47503   5.877   5.431   0.868  0.0670  0.0881  0.1514
31030W        W47504  19.247   1.730  13.088 -0.0604  0.3043  0.3205
31031W        W47505  19.250   1.278  10.031  0.3348  0.0030 -0.0892
31032W        W47506   8.770   7.110  14.440 -0.4191 -0.0957 -0.0814
31033W        W47507  10.185  10.650   1.428  0.1856  0.4271 -0.0047
31034W        W47508   9.018   3.238   2.867  0.0825  0.4346  0.0730
31035W        W47509  15.227  15.638  12.572  0.0246  0.1283 -0.2386
31036W        W47510  15.974   8.519  14.476  0.0185  0.0676  0.3798
31037W        W47511  10.413  18.773   0.518  0.0253  0.3483 -0.2728
31038W        W47512   3.348  15.756   9.972 -0.0218 -0.2029 -0.1767
31039W        W47513  18.626  11.023  13.864  0.3890 -0.2726 -0.2785
31040W        W47514   2.836  10.349  14.367 -0.4469  0.1183  0.2709
31041W        W47515  14.819   6.087  13.250 -0.2858  0.0886  0.2192
31042W        W47516   5.273   1.008  13.504 -0.2547  0.2221 -0.3418
31043W        W47517  10.165  14.349   0.929  0.0214 -0.2311  0.3186
31044W        W47518   1.113  15.346  10.161 -0.1116 -0.0501  0.0586
31045W        W47519  16.539  11.659  11.773 -0.2200  0.2309  0.3394
31046W        W47520  15.541   2.167  11.898  0.1979 -0.0077 -0.0563
31047W        W47521   6.432  16.889   5.180 -0.0510 -0.1789 -0.0711
31048W        W47522  19.154   0.442   2.445  0.0158  0.1424  0.0571
31049W        W47523  12.571  16.486  13.622  0.1086  0.3711 -0.2109
31050W        W47524  16.090  14.862  13.283  0.2172 -0.1219  0.1793
31051W        W47525  17.822  12.171   3.010 -0.2285 -0.0744  0.3150
31052W        W47526   3.617   3.018  13.601 -0.1008  0.0024  0.0125
31053W        W47527  16.006   2.273   3.588 -0.3498  0.0213 -0.1325
31054W        W47528   4.217  17.697  14.332 -0.1640 -0.2984 -0.0415
31055W        W47529  16.501   2.956  12.521 -0.1362 -0.1503  0.0639
31056W        W47530  17.335  13.151   2.746 -0.2423 -0.4205  0.0657
31057W        W47531  17.668  15.589   1.707  0.1401 -0.0082 -0.0982
31058W        W47532   2.974  13.424   1.514 -0.0285 -0.2215 -0.2171
31059W        W47533  10.693   0.455   4.274 -0.3807  0.0439  0.0384
31060W        W47534  17.801  17.178  13.904  0.0402  0.2897 -0.2322
31061W        W47535  14.306  14.366  13.756  0.3373  0.0312  0.0122
31062W        W47536  16.304   8.105   0.498 -0.0329 -0.3542 -0.4258
31063W        W47537  18.621   2.639  10.191 -0.1586 -0.0709 -0.2282
31064W        W47538  12.572  10.674   5.069  0.0474 -0.0321 -0.1242
31065W        W47539   8.403  12.065   8.668 -0.0272 -0.1564 -0.2306
31066W        W47540  16.400  15.400  14.357  0.0814  0.1644  0.0508
31067W        W47541   6.660  11.890  10.458  0.0484  0.0722  0.1171
31068W        W47542   7.462   4.053   4.954  0.0874  0.2229 -0.0148
31069W        W47543   9.326  14.700  14.696  0.0491 -0.0033  0.1175
31070W        W47544  15.800   7.669  11.067 -0.0264 -0.2744 -0.1457
31071W        W47545   7.092   3.865  12.328 -0.0211 -0.2958 -0.3857
31072W        W47546  13.386  13.056   4.099  0.4306 -0.2183 -0.0298
31073W        W47547   7.264  11.969   0.993  0.1295 -0.1737  0.2607
31074W        W47548  13.797  14.493   2.539 -0.0609  0.0517 -0.1173
31075W        W47549   3.081   1.134   2.989  0.1178  0.3367 -0.1473
31076W        W47550  17.916  14.394  11.375 -0.0087 -0.1558 -0.3415
31077W        W47551  12.070  17.131   5.318  0.0616 -0.1427  0.0055
31078W        W47552   1.788   7.689   1.055 -0.1316 -0.0454 -0.3083
31079W        W47553   4.933   6.259  13.997 -0.0410 -0.0334 -0.0029
31080W        W47554   2.257  18.422  11.726  0.0278  0.1807 -0.2441
31081W        W47555  11.636   2.589   2.368 -0.0183  0.3442 -0.3664
31082W        W47556  11.478  16.738  11.448 -0.2775 -0.1757 -0.0707
31083W        W47557   5.957   4.738   4.283  0.0050 -0.2361 -0.0987
31084W        W47558  10.757  10.908  10.565 -0.1257  0.0490 -0.0316
31085W        W47559   6.376   8.124   2.692 -0.0592  0.2909 -0.1483
31086W        W47560  11.644  15.382   2.265 -0.0400  0.1353  0.0711
31087W        W47561   1.479  18.302  12.567  0.0870  0.0618 -0.0285
31088W        W47562   1.430   1.251   4.303 -0.2281 -0.0051 -0.1775
31089W        W47563  18.405   8.877  12.812  0.0483  0.2751  0.1387
31090W        W47564   9.886   2.941  13.506  0.0437  0.3977 -0.3425
31091W        W47565  15.853  16.875  12.981 -0.1778 -0.0652  0.0549
31092W        W47566  19.554  12.321  13.592 -0.1251  0.0091  0.0282
31093W        W47567   0.884  14.916  14.518 -0.2666 -0.0892  0.0168
31094W        W47568  16.361  12.357   0.605 -0.0033 -0.0924 -0.0677
31095W        W47569  13.739  12.908  10.919  0.1581 -0.2428 -0.0290
31096W        W47570  14.315  15.572  12.041  0.0269  0.1506  0.0582
31097W        W47571  19.526  10.319  13.714 -0.1180  0.0567  0.0336
31098W        W47572   1.309  12.445   0.634 -0.0146  0.3603 -0.4268
31099W        W47573  11.358  12.830   5.110 -0.0663 -0.2631  0.2526
31100W        W47574  12.106   3.103   0.544 -0.1853  0.1228  0.1625
31101W        W47575   6.129  12.216   2.808 -0.0305  0.2289 -0.0946
31102W        W47576   3.162   7.752   0.701 -0.0798  0.0331 -0.1651
31103W        W47577   7.353  12.233   1.768 -0.2676 -0.2002 -0.0682
31104W        W47578   7.893  17.624   4.488 -0.2340 -0.0977 -0.0385
31105W        W47579   8.690  11.933  13.186 -0.1227 -0.0392  0.0528
31106W        W47580   9.977   2.274   3.283 -0.0114 -0.0099  0.1568
31107W        W47581   6.959   0.564   3.039 -0.1900 -0.1417  0.0966
31108W        W47582  12.515  12.211  13.707  0.1168  0.1098 -0.3267
31109W        W47583  16.950  19.047   9.143  0.1344 -0.1582 -0.1259
31110W        W47584  17.269   7.931  12.647 -0.1884 -0.1209 -0.1257
31111W        W47585   2.188   6.488  11.277 -0.0541 -0.3839  0.0894
31112W        W47586  12.163  10.923   4.867  0.4151  0.1985 -0.0725
31113W        W47587   9.792  11.030  11.403 -0.2222 -0.2610  0.2240
31114W        W47588   2.440  13.122  10.268  0.0677 -0.1005 -0.1317
31115W        W47589   0.988   1.780  12.159 -0.0363 -0.1935  0.2767
31116W        W47590   9.357   4.391  13.377 -0.2502 -0.1944 -0.3711
31117W        W47591   0.719   0.034   0.970  0.2137 -0.1521  0.3263
31118W        W47592  10.727  18.311   4.625 -0.0219  0.0482  0.1998
31119W        W47593  18.313  12.177   3.276 -0.0135  0.2183 -0.0713
31120W        W47594  18.645   5.264  12.229 -0.0624  0.2374  0.3872
31121W        W47595   8.668  13.504  13.017  0.1195  0.0040  0.2378
31122W        W47596  13.074  10.929   5.292 -0.1085  0.2884  0.2077
31123W        W47597   0.140  14.434   3.546 -0.2391 -0.1239 -0.2252
31124W        W47598  11.439   8.820   0.762  0.4327 -0.2111 -0.0926
31125W        W47599  17.737  16.825   4.241  0.4330  0.4570 -0.0694
31126W        W47600   3.724   4.829   3.678 -0.0292  0.1238  0.0040
31127W        W47601   3.553   1.386   4.266 -0.1850 -0.0884  0.3033
31128W        W47602  17.712   8.287  13.795  0.3856  0.2393  0.2738
31129W        W47603  19.138   2.743   0.238 -0.3909  0.0415 -0.2581
31130W        W47604   8.657  13.031   1.647 -0.5299  0.0641 -0.1555
31131W        W47605  12.344  10.824   2.074  0.1717 -0.4022  0.0753
31132W        W47606   1.636  16.205   1.321 -0.0778  0.0530 -0.1611
31133W        W47607  14.415   7.928   1.877  0.1664 -0.1149 -0.2547
31134W        W47608  10.023   7.718   1.106  0.3727  0.0888  0.0295
31135W        W47609   3.192   1.008   3.909  0.2490 -0.0780  0.0486
31136W        W47610   3.268   1.635  12.776  0.0571 -0.1744  0.0420
31137W        W47611  11.890   2.855  12.405  0.2664  0.1251  0.1769
31138W        W47612  12.183  12.692  11.457 -0.1439 -0.4099 -0.0920
31139W        W47613   2.585  16.168   3.795  0.2270 -0.4088  0.0317
31140W        W47614   8.812   1.605  12.462  0.0415 -0.1771  0.4025
31141W        W47615   1.304  10.078   1.514  0.0631 -0.0960  0.1598
31142W        W47616  18.023   6.929   0.074  0.1367 -0.0020 -0.1009
31143W        W47617   6.263  14.174  10.769  0.1712 -0.0685  0.2918
31144W        W47618  10.784  18.700   4.332 -0.1315  0.3003 -0.0687
31145W        W47619   7.590   4.705   0.014  0.0209 -0.1486  0.1595
31146W        W47620  12.996  18.306  11.291  0.3727 -0.2687 -0.1907
31147W        W47621  16.384   7.734  14.184 -0.2654  0.2683  0.1535
31148W        W47622  13.934  17.399   4.356  0.2603  0.0356  0.2688
31149W        W47623   5.210  12.953   0.337  0.0311  0.0304 -0.1449
31150W        W47624   9.068   7.985   0.985  0.1856 -0.3253 -0.2868
31151W        W47625  11.734   4.925  12.112 -0.1341 -0.2043 -0.1199
31152W        W47626   8.042   2.074  12.809  0.0002  0.3887 -0.2128
31153W        W47627  16.488  13.726   2.150 -0.1066  0.0654 -0.1090
31154W        W47628  16.329   8.380   0.955 -0.0210  0.1659 -0.4348
31155W        W47629   2.912   4.041  11.520  0.4632 -0.2063 -0.1657
31156W        W47630  12.941  16.750   4.085  0.1031 -0.1094 -0.1784
31157W        W47631  17.632  14.400   0.749  0.0320 -0.2582  0.0473
31158W        W47632   7.652  10.527   4.942  0.4129 -0.0167 -0.5956
31159W        W47633  14.659  14.764  13.395  0.3672  0.1526 -0.1994
31160W        W47634  14.912  18.659  11.113  0.3116  0.1145  0.0714
31161W        W47635  14.158  16.083  13.727  0.2228 -0.1435  0.0280
31162W        W47636   0.035  12.160  14.437 -0.1123  0.2548 -0.0235
31163W        W47637   1.875  10.484  12.448 -0.2370 -0.3547 -0.2276
31164W        W47638  13.093  13.167  14.317 -0.1037  0.0626 -0.1968
31165W        W47639  10.215   1.741   2.427 -0.1848 -0.1936 -0.1872
31166W        W47640   4.210  19.077  12.407  0.2023 -0.1750  0.2003
31167W        W47641   9.469  15.128   4.578  0.1333  0.0653 -0.0871
31168W        W47642   7.496  13.667   1.641  0.2097 -0.1012  0.0509
31169W        W47643   4.712   0.562   2.738 -0.1412  0.2194  0.0728
31170W        W47644  12.248   1.523  13.012 -0.1600 -0.2713 -0.3445
31171W        W47645   4.884   7.143  10.318 -0.0272 -0.0426 -0.1744
31172W        W47646   3.263  15.271   0.056  0.1634  0.0680  0.1231
31173W        W47647   8.434  10.608   3.076 -0.1357  0.3139  0.0265
31174W        W47648   0.025   6.174   2.402 -0.1761  0.0608  0.3299
31175W        W47649  10.223  19.473  13.462 -0.1071 -0.2375  0.1781
31176W        W47650  14.931   6.656  12.551  0.1695  0.1956  0.2156
31177W        W47651  11.986   5.286   1.837  0.2047 -0.0431 -0.0550
31178W        W47652  12.361   8.622   1.182  0.0031 -0.1242 -0.0562
31179W        W47653   3.541   8.301   4.143  0.0435 -0.2080  0.0702
31180W        W47654   5.711  15.044  12.693  0.0677 -0.1250 -0.3232
31181W        W47655   4.036   4.189  12.587 -0.0377  0.2444  0.5284
31182W        W47656  12.811   1.563  11.252 -0.1927  0.1042  0.1661
31183W        W47657  11.164  14.442   1.541 -0.0901  0.3039 -0.0849
31184W        W47658  12.477  14.417   4.496  0.0688  0.0551 -0.1374
31185W        W47659  15.915   0.215   0.284 -0.0190  0.1588 -0.0961
31186W        W47660   0.961  11.882   3.015  0.0745 -0.0057  0.1124
31187W        W47661   2.227   9.909   4.395  0.0300 -0.3086  0.0578
31188W        W47662  12.917   6.779  13.824 -0.0933  0.3527  0.0727
31189W        W47663  19.469  16.798   2.141 -0.0666 -0.0625  0.0246
31190W        W47664   9.763   0.423  11.355  0.2727 -0.0419 -0.1325
31191W        W47665  12.415   1.683   4.513 -0.3039 -0.3917 -0.1519
31192W        W47666  12.772   9.855  14.627 -0.1097  0.2052 -0.1906
31193W        W47667  14.989  11.624   1.935  0.0433  0.0620 -0.0892
31194W        W47668   3.942   9.236   4.534 -0.1561 -0.1756  0.0410
31195W        W47669  17.453  12.988   3.237 -0.3537 -0.3201  0.0816
31196W        W47670  10.747   9.276   1.890 -0.2401 -0.2166 -0.2799
31197W        W47671   7.702  15.426  11.639  0.3125 -0.2476 -0.0455
31198W        W47672   8.851  13.989   0.337  0.0507  0.0032 -0.3637
31199W        W47673   7.014   7.469  10.826 -0.2729  0.0104  0.0576
31200W        W47674   6.876  10.180  13.931 -0.1495  0.1109  0.0140
31201W        W47675  14.054   6.141   1.726 -0.0369  0.2412 -0.0229
31202W        W47676  18.781   3.405   1.902  0.0953  0.2528 -0.0295
31203W        W47677   7.818   0.892  10.926 -0.0780  0.2816  0.0237
31204W        W47678  14.363  11.077  11.947  0.2664 -0.2861  0.0508
31205W        W47679  14.605   2.277   3.255 -0.1915 -0.0450  0.2901
31206W        W47680  19.171  14.107   0.038  0.0537  0.1209  0.4598
31207W        W47681  18.154   3.027   0.312 -0.1262  0.1527  0.0681
31208W        W47682   6.636   9.668   1.604  0.0036  0.2145  0.0945
31209W        W47683  18.308   7.071   0.532 -0.2371 -0.2402 -0.1376
31210W        W47684   5.465  12.357  11.184  0.1582 -0.2320  0.3143
31211W        W47685   7.723   1.983  14.229 -0.1225  0.0789  0.0978
31212W        W47686  15.231  15.367   2.082 -0.5436  0.0905 -0.0620
31213W        W47687   6.258   3.055  13.059  0.3525 -0.0710  0.0993
31214W        W47688   9.531   8.382   1.040 -0.1843  0.0193 -0.0189
31215W        W47689   0.954  13.335  14.039  0.0564 -0.1259  0.0962
31216W        W47690  13.423   5.321   5.510  0.3458 -0.0753  0.0836
31217W        W47691  11.032  13.787   3.604  0.0527 -0.1999  0.0310
31218W        W47692   1.946   0.897   9.845  0.2255  0.1895 -0.0741
31219W        W47693  12.972   3.915  12.059 -0.0393 -0.1021 -0.2013
31220W        W47694  13.690   6.633   0.952  0.1679 -0.2197 -0.1622
31221W        W47695   5.048   4.094  12.705  0.0977  0.0044  0.0444
31222W        W47696   1.164   6.541  12.953 -0.1227 -0.1737  0.0120
31223W        W47697  17.726   6.176  12.975  0.0098  0.0406 -0.0766
31224W        W47698  19.403   3.230   1.699 -0.3413  0.3564 -0.0044
31225W        W47699  13.096   5.710  14.624  0.0524 -0.0543  0.0058
31226W        W47700   0.542   5.890   4.236  0.0988 -0.5637 -0.2666
31227W        W47701  15.887   9.911   2.870 -0.0832 -0.1297 -0.0115
31228W        W47702  18.967  12.708   1.711  0.3112 -0.1707  0.2084
31229W        W47703   3.942   6.117   3.542  0.0439 -0.2796 -0.1138
31230W        W47704   6.428  14.626   2.991  0.1975  0.3100 -0.1392
31231W        W47705   3.451  11.103   0.841  0.2616  0.1207  0.3558
31232W        W47706  15.747  11.795   4.560  0.2268  0.1649 -0.0605
31233W        W47707  14.785   7.126   2.553  0.0579 -0.0058  0.1933
31234W        W47708  10.143   1.426  12.052 -0.2710  0.3218 -0.1565
31235W        W47709   9.185   1.294  12.335 -0.0308  0.0019  0.1440
31236W        W47710  18.531   9.197  11.424  0.0986 -0.2578  0.3357
31237W        W47711  15.086   6.584   3.991  0.1313 -0.0827  0.3265
31238W        W47712   4.452  15.866   2.113 -0.1151 -0.0154  0.1366
31239W        W47713   7.787  13.027  12.553  0.1994 -0.0960 -0.1712
31240W        W47714   2.304   2.148   3.953 -0.1417  0.2140  0.0486
31241W        W47715   9.437   1.643   9.270  0.2845  0.0556 -0.0696
31242W        W47716   3.010   2.757   0.570 -0.0034 -0.1030  0.2091
31243W        W47717   6.313   1.544   9.864 -0.1248 -0.1822  0.1016
31244W        W47718  18.896  10.528   2.807 -0.0811  0.2577 -0.2613
31245W        W47719  13.146   3.931   2.670 -0.1441  0.0484  0.1697
31246W        W47720   8.825  12.513  14.111  0.1767 -0.1493 -0.0986
31247W        W47721  16.837  14.990   0.050 -0.1302  0.1790  0.2446
31248W        W47722  17.374  10.421  13.389 -0.0407  0.2079 -0.0686
31249W        W47723  18.666   8.397  11.133 -0.1445 -0.0323  0.1309
31250W        W47724   6.791   0.241   3.390  0.0116  0.4660  0.2975
31251W        W47725  13.585   9.548  14.087  0.0231  0.1462 -0.0196
31252W        W47726  12.534  13.213  14.133  0.1067 -0.0293 -0.1519
31253W        W47727  18.917  16.429  12.773  0.0699  0.0458  0.3394
31254W        W47728   6.095   1.590   2.714  0.0271  0.1791 -0.4052
31255W        W47729   7.943  18.801   4.217 -0.2927  0.4009  0.0119
31256W        W47730  19.045   0.749  10.064  0.1177 -0.0706  0.3644
31257W        W47731  16.538  16.743   4.509 -0.0922 -0.0323  0.3062
31258W        W47732   9.397   9.896   5.068  0.0899 -0.4514  0.3697
31259W        W47733  13.131   0.515  11.532 -0.1058  0.0388  0.0435
31260W        W47734   2.410   0.787   3.513 -0.1377  0.1358  0.1408
31261W        W47735  10.884   0.124   2.858 -0.0418 -0.1243  0.0857
31262W        W47736  17.220  10.845   5.629  0.1408  0.0291 -0.0286
31263W        W47737  12.852   9.649   4.067 -0.0258  0.2396 -0.1601
31264W        W47738   4.779   3.487  10.695  0.4143  0.0931  0.1682
31265W        W47739   4.917   7.112   5.422  0.1201  0.0222  0.0032
31266W        W47740   6.864  15.782   0.903 -0.3991  0.0810  0.0515
31267W        W47741  15.458   2.974  14.246 -0.0017  0.1768  0.1877
31268W        W47742  10.817   8.304  14.554  0.0868  0.1999  0.0992
31269W        W47743   8.657   0.344   4.428  0.0524  0.0135 -0.1578
31270W        W47744   3.333   8.293   4.594  0.0789  0.0708  0.0460
31271W        W47745   3.306  16.238   1.764 -0.1298  0.2633  0.2908
31272W        W47746  18.956   8.357   5.316 -0.0668  0.1301 -0.1657
31273W        W47747  13.940  16.783  12.844 -0.2357  0.0375 -0.1297
31274W        W47748  13.224   6.872  10.137 -0.1054 -0.0098  0.0906
31275W        W47749  17.364   0.223  12.371  0.0093  0.2965  0.4001
31276W        W47750   8.730   7.776   9.514  0.1183  0.1904 -0.1778
31277W        W47751   5.650   3.387   0.520 -0.2537  0.2364 -0.1180
31278W        W47752   1.676   2.115  12.813 -0.2452  0.0565  0.4025
31279W        W47753   5.278   3.226  10.326 -0.1095 -0.4878 -0.0117
31280W        W47754  18.360   9.152   2.491  0.0313  0.0124  0.1057
31281W        W47755   1.281  12.869  11.375 -0.1635  0.0406 -0.2656
31282W        W47756  12.749   6.663  14.324  0.1052 -0.0912  0.1655
31283W        W47757   5.472  13.113  14.179 -0.0359 -0.1952  0.2028
31284W        W47758  10.686  12.642   1.959  0.2148  0.2994 -0.2548
31285W        W47759   7.829   2.674  10.709 -0.1255 -0.1995  0.1625
31286W        W47760   2.811  16.791  11.530 -0.2328 -0.1035  0.1596
31287W        W47761   5.279  17.046  11.796  0.0176  0.1272  0.2132
31288W        W47762  18.112  17.387  11.446  0.1136  0.1667  0.3209
31289W        W47763  13.027  18.333   1.684 -0.2418  0.1453 -0.0230
31290W        W47764  19.189   5.967  10.539  0.0243 -0.3683 -0.1671
31291W        W47765   9.455  17.227  10.696  0.1268  0.2451 -0.0015
31292W        W47766   9.814  17.196   1.847  0.3073 -0.1223  0.1264
31293W        W47767  17.288  16.451  13.711 -0.2135 -0.3491 -0.1536
31294W        W47768  19.274   0.071   0.161 -0.1389  0.0165 -0.1260
31295W        W47769  16.429   3.434   2.926  0.1011 -0.1217 -0.0282
31296W        W47770   0.452  17.728  14.422  0.2768 -0.1387 -0.0031
31297W        W47771   5.466   4.436   4.163 -0.0500 -0.2350  0.1430
31298W        W47772   0.154   3.170  10.435  0.1056 -0.1435 -0.0279
31299W        W47773   0.238  15.040  10.395 -0.0549  0.1059 -0.2486
31300W        W47774   0.185  16.548  11.593 -0.0949 -0.1023 -0.1122
31301W        W47775   7.958  18.390   0.514  0.3149 -0.0449  0.1276
31302W        W47776  12.980  18.115   3.415 -0.1714  0.1288 -0.1176
31303W        W47777  16.181   1.122  10.460 -0.1530  0.2378 -0.0192
31304W        W47778  15.473   3.269  13.041 -0.1386 -0.1413 -0.3244
31305W        W47779  19.188   9.597   1.084  0.0810 -0.0161  0.0370
31306W        W47780  16.480   7.669   0.090  0.1730 -0.0962  0.0567
31307W        W47781  19.077  18.008   2.775 -0.3220  0.1210  0.3345
31308W        W47782  19.529   2.428  12.593  0.0706  0.2377 -0.1022
31309W        W47783  12.551   4.355   1.054 -0.0002  0.0734  0.2072
31310W        W47784  15.930  15.101   5.222 -0.0359  0.0383  0.1280
31311W        W47785   9.794   7.440   2.552 -0.3798 -0.2398  0.1483
31312W        W47786  13.826  19.117  11.686  0.1622 -0.0400  0.2822
31313W        W47787   6.673  14.456  13.449  0.0281 -0.1132  0.0943
31314W        W47788   2.455  17.152  11.481  0.0902 -0.3297  0.0502
31315W        W47789   7.812  11.465   2.114  0.1201 -0.2600  0.0994
31316W        W47790  16.929   5.400   0.356 -0.2302 -0.2781  0.3786
31317W        W47791  18.632   4.749  11.731 -0.1654  0.1286 -0.1613
31318W        W47792  11.914  18.367  14.615 -0.5942 -0.1041 -0.1087
31319W        W47793   1.524  18.831   4.979  0.0166 -0.2828 -0.0578
31320W        W47794   6.897  17.078   0.442 -0.0263 -0.0836 -0.1232
31321W        W47795  17.287   4.804   2.830 -0.0829  0.0913  0.0284
31322W        W47796  13.877  16.775  10.714  0.2113 -0.3180  0.0815
31323W        W47797   0.705   2.549   2.377  0.2266 -0.0028 -0.3553
31324W        W47798  11.901   9.782   1.581  0.1370  0.2741  0.3362
31325W        W47799  14.550   6.304   1.075 -0.1140 -0.0904  0.1881
31326W        W47800  15.405  16.064   4.127 -0.2146 -0.3632  0.3605
31327W        W47801  17.525  13.839   4.882  0.2626 -0.1706 -0.1685
31328W        W47802   3.430   3.190   3.073  0.2024 -0.2487 -0.4074
31329W        W47803  19.196  11.468   5.120 -0.1773  0.0013 -0.4119
31330W        W47804  14.538   7.050  14.045 -0.3400 -0.2888  0.0297
31331W        W47805   7.699   2.490   4.226  0.1699 -0.0937  0.3243
31332W        W47806  11.189  17.598   2.078  0.1233 -0.1930  0.0262
31333W        W47807   2.818  18.007  12.988  0.3186  0.0763 -0.1552
31334W        W47808  19.373   3.525  12.474  0.0424  0.1656 -0.1183
31335W        W47809   9.845   1.654  10.572 -0.0159  0.0921 -0.1150
31336W        W47810  19.357   5.950   2.832  0.1552  0.3577 -0.0028
31337W        W47811   7.834   5.595   0.174  0.1163  0.3427 -0.0676
31338W        W47812  11.164  10.179  13.546  0.1510 -0.2832 -0.1824
31339W        W47813   0.693  16.290  10.191  0.0432  0.0053 -0.0686
31340W        W47814  19.229   5.177  14.365  0.1719  0.0641  0.3507
31341W        W47815   8.947  12.373   3.598 -0.0198  0.0950 -0.1044
31342W        W47816   9.900   5.048  13.215  0.0065 -0.1041 -0.1153
31343W        W47817   5.227  18.579   9.531 -0.4081  0.2380  0.0920
31344W        W47818   0.180  18.021  12.571  0.5251 -0.1005  0.0332
31345W        W47819   3.738  15.516   0.907  0.0758 -0.2119  0.0149
31346W        W47820  16.726   9.262   0.812  0.1232 -0.0252 -0.0247
31347W        W47821   6.831   7.355  13.679 -0.1110  0.1622 -0.1246
31348W        W47822   7.397   4.645  11.115  0.3088 -0.0401  0.2517
31349W        W47823  16.459   9.403  13.473  0.0661 -0.1461 -0.0493
31350W        W47824  14.471   6.640   2.916  0.0968 -0.1275 -0.0086
31351W        W47825  12.150   2.908  13.187  0.1437  0.0228  0.0147
31352W        W47826   0.591  10.365  10.712  0.0490  0.4621  0.0718
31353W        W47827  10.629   3.953  11.819  0.0727 -0.2017 -0.0518
31354W        W47828   3.585   1.188   0.147  0.2361 -0.3205 -0.1416
31355W        W47829   5.571   7.286   2.603 -0.1652  0.2891 -0.0412
31356W        W47830  13.357   0.189  11.110 -0.0535  0.0107 -0.0417
31357W        W47831   6.436  18.071  14.071 -0.3217  0.0892  0.3604
31358W        W47832   4.250  19.559  12.279  0.1087  0.0926  0.2312
31359W        W47833   9.254  18.671   3.378 -0.0870  0.2539  0.0721
31360W        W47834   3.623  16.528  12.681 -0.0431  0.0596  0.2258
31361W        W47835   4.964  12.622   1.153  0.0915  0.1678  0.1109
31362W        W47836  14.105   2.159   4.972  0.0805 -0.0999 -0.1589
31363W        W47837  17.888  18.700   2.943 -0.1471 -0.0675 -0.1275
31364W        W47838   3.473   1.998   0.924 -0.4374  0.0507 -0.2385
31365W        W47839   4.134  19.137   4.145 -0.0005  0.3838 -0.1236
31366W        W47840  12.477  13.257   1.823  0.1793  0.1155  0.2498
31367W        W47841   8.092  10.500   4.686 -0.0132  0.1017 -0.1578
31368W        W47842   3.466   7.085   1.487 -0.2393  0.0956 -0.3012
31369W        W47843  15.339   3.068  10.803 -0.0299  0.2717 -0.1061
31370W        W47844  18.788  19.081  12.414 -0.0699  0.0041 -0.4230
31371W        W47845   9.218   0.207  12.251 -0.0716  0.0893  0.0021
31372W        W47846   3.869  16.768  14.528  0.2803 -0.1338 -0.2547
31373W        W47847   8.312   3.344  10.027  0.0174  0.2315  0.1685
31374W        W47848  16.879   0.150   4.823 -0.0386  0.6465 -0.0146
31375W        W47849  17.234  18.345   0.032  0.1091  0.0948  0.1846
31376W        W47850  10.074  15.292  12.524  0.2389 -0.0723  0.1596
31377W        W47851  18.039  17.381   9.623  0.0334  0.4716  0.0373
31378W        W47852  10.649  10.501  14.644  0.0211 -0.0601  0.2749
31379W        W47853  15.523   8.961   1.627  0.2022 -0.0750 -0.1659
31380W        W47854  12.520  15.412  13.474  0.1368  0.0680  0.1965
31381W        W47855   2.928   9.109  11.937 -0.1294 -0.1473 -0.0843
31382W        W47856   9.210  13.391   2.738  0.0808  0.0584  0.1550
31383W        W47857   3.255  19.256  13.559  0.0721  0.5272  0.0207
31384W        W47858   0.802  13.660   3.991 -0.0216 -0.0458 -0.1995
31385W        W47859   2.325   4.350  14.303  0.2856  0.0089 -0.0157
31386W        W47860   1.536   2.031   3.168  0.3209 -0.2386 -0.0425
31387W        W47861   1.287   7.797   2.973  0.2861  0.0325  0.3354
31388W        W47862   1.361   0.738  14.268 -0.1987 -0.0784  0.1742
31389W        W47863   8.976  16.504  12.927  0.1331  0.0246 -0.3024
31390W        W47864  11.300  14.156  10.996 -0.0959 -0.0597 -0.0845
31391W        W47865   0.850  16.900   3.312  0.4941  0.1559  0.1649
31392W        W47866   3.912  17.217  13.789  0.0649 -0.3086  0.2251
31393W        W47867   2.355  19.140   2.159  0.3087  0.0286 -0.0170
31394W        W47868  14.362   0.314   2.591  0.1701  0.1260  0.2497
31395W        W47869   1.147   5.594  14.233 -0.2699  0.1347  0.0245
31396W        W47870   1.335  17.509   1.531  0.1109 -0.3037  0.0129
31397W        W47871   8.912  18.786  14.571  0.2007  0.0396 -0.0103
31398W        W47872   4.489   2.901   3.330  0.1843 -0.0764  0.2035
31399W        W47873  11.958  19.562   4.812  0.1053 -0.0594 -0.1448
31400W        W47874   2.925   3.386  13.001 -0.0989 -0.2579 -0.0105
31401W        W47875  18.115  12.490  13.532 -0.1435 -0.0594 -0.5473
31402W        W47876   3.307   6.987  13.209  0.1139  0.0797 -0.2345
31403W        W47877  15.582  17.114  11.336  0.0480  0.3895 -0.0831
31404W        W47878  15.061  16.859  14.474  0.0863  0.1768  0.2132
31405W        W47879   5.789   1.438   4.042 -0.0681 -0.0571 -0.0609
31406W        W47880   0.304  12.684  10.652  0.0836 -0.1322  0.1158
31407W        W47881  10.269  18.601  10.295 -0.0429  0.1640  0.1748
31408W        W47882  19.295   6.559   4.249  0.4394  0.3725 -0.2696
31409W        W47883   4.919  13.442  10.383 -0.4081 -0.2071  0.2174
31410W        W47884  17.896   9.300  11.652 -0.1189  0.4890  0.1945
31411W        W47885  11.730  16.436   4.775 -0.0182 -0.0406 -0.0549
31412W        W47886  11.319   8.721   4.522  0.1564  0.0562 -0.3875
31413W        W47887   3.830  14.201  10.250  0.1563  0.0604  0.0426
31414W        W47888  11.553  10.994  10.964 -0.1320  0.0457 -0.0270
31415W        W47889   8.247   0.944   1.529 -0.1136 -0.0459 -0.1457
31416W        W47890  12.293  18.891   0.704  0.1654  0.3788 -0.1356
31417W        W47891  16.530   1.620   3.322 -0.1835  0.1828  0.3591
31418W        W47892  12.293  16.382   3.239 -0.4402  0.2783  0.3571
31419W        W47893  19.533  14.831   3.776 -0.0279 -0.1363  0.1215
31420W        W47894   7.203   3.745   4.062 -0.1287 -0.0133  0.0275
31421W        W47895  13.971   8.279   2.876 -0.1246 -0.2918 -0.0772
31422W        W47896   2.398  13.284  11.888  0.3308  0.2172  0.0808
31423W        W47897  12.203   9.155   1.390 -0.1152 -0.1346 -0.3257
31424W        W47898  17.175   4.604  12.857 -0.0293 -0.3947  0.1900
31425W        W47899   0.398  16.170  10.596 -0.1950  0.1279 -0.3987
31426W        W47900   5.126   5.514  11.151  0.1167 -0.1047  0.1564
31427W        W47901   3.725   2.284   4.154  0.1431 -0.3358  0.0142
31428W        W47902  13.731  18.166  12.375 -0.1489 -0.1815  0.0915
31429W        W47903  17.114  14.690  11.281 -0.2370 -0.3227 -0.3877
31430W        W47904  10.599  15.785  10.009 -0.2086  0.2833 -0.2261
31431W        W47905   2.450  13.249  10.726  0.0688  0.0954  0.1057
31432W        W47906  17.322  12.968  13.236  0.2904 -0.0729 -0.2595
31433W        W47907  13.327   7.755   4.379 -0.1423  0.1516 -0.2781
31434W        W47908   2.987  11.104  11.554  0.2200  0.0600  0.1828
31435W        W47909  14.842   4.852  12.184  0.2960  0.1774 -0.0027
31436W        W47910   7.513   2.528  14.458 -0.0389  0.3216 -0.0992
31437W        W47911   4.920   0.723  13.192  0.1668  0.2789 -0.0189
31438W        W47912  16.919  12.777  14.068 -0.0402 -0.0154  0.2629
31439W        W47913   6.898   5.219   0.710 -0.2572  0.2793 -0.0348
31440W        W47914   5.939   9.948   3.040 -0.0083  0.0266  0.0000
31441W        W47915   6.142  16.702   2.663  0.0457  0.1707 -0.2527
31442W        W47916   7.621  12.047   3.374  0.0487  0.1631  0.0159
31443W        W47917  15.560   9.864  12.269 -0.0232  0.4706 -0.0410
31444W        W47918   9.134   2.794   0.924  0.4538  0.3180  0.0542
31445W        W47919  16.756   7.155  12.148 -0.4065  0.0635  0.2469
31446W        W47920   1.146   2.901   3.175 -0.0963 -0.0214  0.3094
31447W        W47921   1.765  10.275   2.888  0.2846 -0.2081 -0.1938
31448W        W47922  19.112  13.574   3.873  0.3275  0.3214 -0.0784
31449W        W47923   6.727  11.344  12.589  0.0909  0.1868 -0.1119
31450W        W47924   5.880  13.822  13.228  0.3145  0.2140 -0.0127
31451W        W47925   3.175   0.493   1.268  0.0510 -0.1816 -0.0422
31452W        W47926   2.726  12.605  13.333  0.0977  0.1543  0.0152
31453W        W47927  18.015  10.779   4.594 -0.1801  0.1476 -0.2396
31454W        W47928  15.151  14.693  13.880  0.1652  0.0843 -0.2114
31455W        W47929   2.618  10.925  12.330  0.0981 -0.0753 -0.1686
31456W        W47930  18.126   7.189  10.744  0.0313  0.2519  0.1501
31457W        W47931   9.482   5.022   2.753  0.1537  0.1135 -0.0015
31458W        W47932  16.755   3.323   1.026  0.1448  0.0197  0.3899
31459W        W47933  15.754  15.868  10.783  0.3010  0.2673 -0.0117
31460W        W47934  14.734  12.371  12.655 -0.1653  0.2276 -0.1787
31461W        W47935   5.798   6.172   1.368 -0.2986  0.2323  0.2184
31462W        W47936   0.599  19.225   1.296 -0.2330 -0.1080 -0.1622
31463W        W47937   5.885   6.909  11.674 -0.2591  0.2923  0.0731
31464W        W47938  14.031  11.891   1.166  0.2236 -0.0256 -0.1848
31465W        W47939   4.159  13.084   4.784  0.2023  0.0651 -0.2626
31466W        W47940   9.113  10.020   3.402  0.2478 -0.0872 -0.0236
31467W        W47941  13.108   2.532   0.535 -0.1300 -0.2553  0.4176
31468W        W47942  14.091   3.716   0.268 -0.1708  0.3570  0.0396
31469W        W47943  12.474   1.376  13.886  0.0937  0.1779  0.0722
31470W        W47944  12.293   1.889  10.840 -0.0039 -0.2631  0.2113
31471W        W47945   1.667  17.276   1.154  0.0340 -0.1324 -0.0696
31472W        W47946   2.040   7.678   3.930 -0.3378 -0.0370 -0.0648
31473W        W47947   1.759   7.609   0.170 -0.0620  0.0302 -0.4298
31474W        W47948   1.425  13.458   1.558  0.1197 -0.2115 -0.0126
31475W        W47949  16.689  10.594   1.277 -0.1320  0.2322 -0.3091
31476W        W47950   4.218  10.482  10.708 -0.1826 -0.2456  0.1360
31477W        W47951   8.292  16.671   0.112 -0.0087 -0.2897  0.2273
31478W        W47952  10.315  19.032  12.786 -0.1138 -0.0835 -0.0477
31479W        W47953   8.527   9.928  13.063  0.0009 -0.2456  0.0633
31480W        W47954  11.622  14.579  14.612  0.3531 -0.0733  0.2074
31481W        W47955   8.505   2.496   2.399  0.2177 -0.1665 -0.1055
31482W        W47956   7.413  18.142  14.444  0.2022  0.3067  0.0793
31483W        W47957   3.127   3.758   3.024 -0.0403  0.1058 -0.1710
31484W        W47958   1.179   2.697   0.939  0.2701  0.5083 -0.0966
31485W        W47959  13.016  11.096   4.420  0.0210 -0.0883 -0.0705
31486W        W47960   5.852   9.719   3.704 -0.2184 -0.2004 -0.2773
31487W        W47961  13.719  18.569   2.771 -0.1510  0.1024 -0.0263
31488W        W47962   4.769   7.723  10.466  0.0275 -0.1811  0.0832
31489W        W47963  15.540   2.816  12.845 -0.2546  0.2878 -0.0675
31490W        W47964   4.311   6.733  10.734  0.0896  0.0345  0.0058
31491W        W47965   2.988  11.552   4.616  0.0531  0.3436  0.0937
31492W        W47966  18.928  18.318   4.095  0.2279 -0.1149 -0.0388
31493W        W47967  15.884   6.570  14.434  0.3406  0.0955  0.1245
31494W        W47968  10.417  16.774   2.976 -0.1519  0.0347  0.4704
31495W        W47969  10.495   2.960  10.944 -0.2100 -0.3188 -0.0804
31496W        W47970   4.169  16.987  12.264  0.0109  0.2172 -0.0894
31497W        W47971   6.617   9.660  11.182 -0.1920  0.0428  0.3631
31498W        W47972   3.931  12.671   0.110  0.0138 -0.0617  0.0007
31499W        W47973   6.080  18.867  13.064 -0.0337 -0.2356 -0.0865
31500W        W47974   3.088   5.718   0.930  0.1468  0.2552 -0.2296
31501W        W47975   3.693   4.021  11.274 -0.2589  0.2402 -0.1119
31502W        W47976  11.921  10.234  12.347  0.0096 -0.3948 -0.4970
31503W        W47977   8.935   8.897  10.412 -0.0838  0.2239 -0.1973
31504W        W47978  16.952  15.898  12.956  0.0521  0.0692  0.0524
31505W        W47979   9.696  17.552   1.491  0.1578 -0.0422  0.1451
31506W        W47980   4.349  15.907   3.022 -0.1333 -0.5668 -0.0813
31507W        W47981   0.488   7.310   4.940 -0.1062  0.1657  0.1426
31508W        W47982   6.426   5.440  11.620 -0.0676  0.0244  0.2069
31509W        W47983  16.257   8.922  13.620 -0.0025 -0.1660  0.2540
31510W        W47984  14.440   7.677  13.898 -0.0902  0.3085  0.0336
31511W        W47985   5.288  17.104   3.225  0.4573 -0.1468 -0.0537
31512W        W47986   1.121   8.414  11.448 -0.3711  0.0829  0.1485
31513W        W47987   6.444  15.218  14.308 -0.0489  0.0940  0.0597
31514W        W47988  18.294  16.059  12.029 -0.2956  0.1660 -0.1659
31515W        W47989  14.898   1.849   3.259 -0.1051  0.2379 -0.3378
31516W        W47990  13.423  14.845  12.834 -0.1233  0.0560  0.1813
31517W        W47991   1.152   1.437   1.627 -0.0407  0.1395  0.1896
31518W        W47992   3.719  14.709   0.137  0.0881  0.1416 -0.2257
31519W        W47993   7.892   2.729   3.091 -0.0546 -0.1146  0.0831
31520W        W47994   6.812   1.331   9.924 -0.2150 -0.2272 -0.0981
31521W        W47995   6.319  11.164  11.514 -0.4849 -0.0923  0.0584
31522W        W47996  12.297  16.880  13.133 -0.1345 -0.0468  0.0214
31523W        W47997  15.937  19.301   1.355 -0.2288 -0.1183 -0.2929
31524W        W47998  17.567   3.307   4.251  0.0565 -0.0096 -0.2277
31525W        W47999   7.680  18.522  14.681  0.4201  0.0280 -0.2741
31526W        W48000  17.919  18.579   9.919 -0.2059 -0.2343 -0.0681
31527W        W48001  17.484   4.146   4.294  0.2974 -0.1369 -0.0532
31528W        W48002   5.210   6.447   5.240  0.1870 -0.1075 -0.2405
31529W        W48003  18.974   5.459  13.439  0.1283 -0.0225 -0.0255
31530W        W48004   3.127   6.453  14.212 -0.1775 -0.0276  0.1112
31531W        W48005  13.878   4.304   5.045  0.3015 -0.0911  0.1878
31532W        W48006  13.703  16.455  13.198 -0.1447  0.1019  0.0840
31533W        W48007  10.918  11.108  13.166 -0.0508  0.1953  0.1239
31534W        W48008  17.290   7.375  11.479  0.0395  0.2079  0.0609
31535W        W48009  11.262  13.359   3.766 -0.0097  0.0973  0.2031
31536W        W48010  17.588   8.327   0.586 -0.1973  0.1477  0.0771
31537W        W48011   3.597  12.898   3.065 -0.1848  0.0869 -0.0941
31538W        W48012   0.910  18.010  11.991  0.1345  0.0183 -0.3055
31539W        W48013  18.629   2.946  11.406  0.1498  0.0676 -0.2728
31540W        W48014  18.790   2.213  12.499 -0.3306 -0.1835 -0.1475
31541W        W48015  10.277   2.247   2.438 -0.0874 -0.3046 -0.2118
31542W        W48016   4.018  12.576  12.370  0.3021  0.1243  0.2755
31543W        W48017   3.298  14.641  14.592  0.3192 -0.2050 -0.3189
31544W        W48018  10.585   6.046  13.106  0.4011 -0.1118  0.0226
31545W        W48019  16.861   3.624   0.109 -0.0130  0.1540 -0.1412
31546W        W48020  11.098   2.234   3.017  0.1992  0.1826 -0.4707
31547W        W48021   9.047   6.033   1.460 -0.0970 -0.1487  0.2149
31548W        W48022  10.963   5.312  13.725 -0.0480  0.2850  0.0290
31549W        W48023  17.125   3.983   2.690 -0.3306 -0.1133  0.0764
31550W        W48024   3.000   0.327   0.588 -0.1491  0.2239  0.0584
31551W        W48025   7.871   7.037  11.205 -0.1542 -0.0700  0.0324
31552W        W48026  19.052   8.326  14.034  0.0344 -0.0195  0.1571
31553W        W48027  14.939   6.623   0.892 -0.0103  0.2927  0.0500
31554W        W48028   3.202   4.652   2.830 -0.1573 -0.1361 -0.1242
31555W        W48029  13.752   9.208   4.774  0.0147  0.1590 -0.1553
31556W        W48030   1.701   5.056  13.774 -0.0798  0.1407  0.1056
31557W        W48031  12.579   9.297   0.516  0.1111 -0.2389  0.1374
31558W        W48032   4.035   4.172   5.169 -0.0336 -0.1297  0.3224
31559W        W48033   8.065  13.391   3.123 -0.0681  0.3394  0.1924
31560W        W48034  13.108   2.914  13.916  0.0845 -0.0104  0.0109
31561W        W48035   5.444  13.416  13.066 -0.1104 -0.0534  0.0258
31562W        W48036   2.823  10.446  12.350  0.1331 -0.0615 -0.4659
31563W        W48037  17.467  10.996   1.419  0.0646 -0.0387  0.0363
31564W        W48038   4.298  16.838  10.016  0.0298 -0.2485  0.0431
31565W        W48039   1.077  10.220  12.994 -0.1527  0.1210 -0.0426
31566W        W48040  18.537   2.212  14.564 -0.1788  0.1140 -0.2260
31567W        W48041  18.957   6.974  11.646  0.0414  0.0936  0.0347
31568W        W48042   8.381  15.784   2.161 -0.3573  0.1628 -0.1824
31569W        W48043   0.718   5.514   1.572 -0.1752 -0.1104  0.1008
31570W        W48044  16.393  18.259   4.718 -0.0828  0.1363  0.0233
31571W        W48045   5.570  11.698  12.228 -0.1444 -0.0322 -0.1504
31572W        W48046  16.925  16.703   3.638 -0.0431  0.0878  0.0319
31573W        W48047   6.786   3.700   9.470  0.4549 -0.0213  0.1097
31574W        W48048   7.327  19.562   1.501 -0.1844  0.1573  0.2296
31575W        W48049   8.542   5.911   3.718  0.0930 -0.1252  0.0605
31576W        W48050   9.072   6.431  11.745 -0.2705 -0.2179  0.2103
31577W        W48051  14.816  16.692  12.567 -0.2544 -0.1161 -0.0874
31578W        W48052   7.047  14.820   0.447 -0.1140 -0.0840 -0.1419
31579W        W48053   1.091  18.343   1.731 -0.0954  0.0862  0.2396
31580W        W48054   7.720   5.519   2.661 -0.0722 -0.1146  0.1082
31581W        W48055   5.815  10.839  10.598  0.2934  0.1549  0.1235
31582W        W48056   5.529  10.169   1.870 -0.1086  0.1122 -0.0842
31583W        W48057   3.727   8.426   1.619  0.0110  0.0952 -0.0351
31584W        W48058  10.081   0.505  10.049 -0.3202 -0.0982 -0.3277
31585W        W48059   1.107  13.451   2.187  0.2987  0.0042  0.1573
31586W        W48060  11.784   8.665  10.663 -0.3452  0.1914 -0.0901
31587W        W48061   2.230  16.707  11.490 -0.1330 -0.0712 -0.3796
31588W        W48062  16.256   5.314   1.335  0.2207 -0.0231  0.0217
31589W        W48063  10.693  10.693   5.857 -0.0084 -0.0011  0.1577
31590W        W48064   7.819  13.844  11.341  0.1993 -0.0384  0.3442
31591W        W48065   4.348   6.317  13.300  0.0171  0.1966  0.0593
31592W        W48066  13.597  13.941   2.821 -0.1856  0.2164  0.1100
31593W        W48067   8.117   5.096  10.860 -0.0689 -0.3832  0.0976
31594W        W48068   1.479   1.636   9.656  0.1895  0.0503  0.2680
31595W        W48069   2.168  10.163  10.593 -0.1279 -0.3221 -0.4250
31596W        W48070  15.930   2.403  10.322 -0.1709  0.1958 -0.6138
31597W        W48071   1.902   0.195  11.270 -0.0268  0.2433 -0.0801
31598W        W48072  10.501   2.914  11.856 -0.0214  0.0389  0.1936
31599W        W48073  16.297   4.626  13.728  0.0449  0.0939 -0.0525
31600W        W48074  12.667  17.823  13.804 -0.2739  0.2330 -0.0017
31601W        W48075   4.407  15.353   1.836 -0.0436  0.1463  0.0097
31602W        W48076   2.849   1.633  12.504  0.2142  0.1641  0.0297
31603W        W48077  18.710  15.441   3.469 -0.1646 -0.1202 -0.1126
31604W        W48078  14.692  10.985   0.366  0.0736  0.0555 -0.2645
31605W        W48079   0.218   2.612  10.401 -0.0621 -0.0633 -0.2304
31606W        W48080   6.775   9.251  13.742 -0.3021 -0.0471  0.3337
31607W        W48081   1.683   7.886   1.730  0.0761 -0.1600 -0.0924
31608W        W48082   7.598  11.688   2.617  0.3518 -0.1828 -0.0968
31609W        W48083  12.525   7.995   4.647  0.2182  0.0603 -0.0433
31610W        W48084   7.617  16.124  12.731 -0.1532  0.1388 -0.0349
31611W        W48085  14.595  15.554  10.393 -0.2786 -0.0625  0.0123
31612W        W48086  15.054  17.508  12.012 -0.1668  0.2445  0.0636
31613W        W48087  19.434   1.704  13.612 -0.1598 -0.0386  0.1853
31614W        W48088   2.646   1.103   0.341 -0.2012  0.0826 -0.1356
31615W        W48089  13.418  11.660  14.472  0.1500 -0.2123  0.0334
31616W        W48090  14.203  12.853  12.984 -0.0077 -0.3852 -0.2612
31617W        W48091  18.325   5.492  11.617  0.0330  0.0154  0.1083
31618W        W48092  14.739  10.451  12.567 -0.1075 -0.3793  0.1207
31619W        W48093  10.877  13.614   2.837  0.1609 -0.1057  0.1398
31620W        W48094  10.693   5.697  13.557 -0.0602  0.0634  0.0239
31621W        W48095   5.403  12.624   0.758  0.0377  0.1081 -0.3261
31622W        W48096  16.192  16.099   3.507 -0.2134  0.0071 -0.2083
31623W        W48097  11.728   3.279   2.863  0.1887  0.0986 -0.1137
31624W        W48098   4.409  16.713  14.641 -0.1432  0.4608 -0.1443
31625W        W48099  13.276  14.736  13.364  0.0149 -0.1991 -0.0123
31626W        W48100  10.259   5.187   5.420  0.2655  0.3656 -0.1197
31627W        W48101   7.299   2.841  11.557 -0.1038 -0.1660 -0.1905
31628W        W48102   8.845  17.782   1.227  0.1397 -0.0519 -0.0843
31629W        W48103   4.419   8.519   0.060  0.3836 -0.0696  0.1980
31630W        W48104   6.084  16.451   9.213 -0.2937  0.5696 -0.2538
31631W        W48105   9.039  13.506   5.336 -0.1540  0.2072  0.4271
31632W        W48106  17.229  18.314  11.722  0.0069 -0.0474 -0.2845
31633W        W48107  12.587   6.067   9.958  0.1912  0.0859  0.3804
31634W        W48108   8.038  14.846  12.556  0.1057  0.1151  0.0024
31635W        W48109  18.797   0.297  11.383 -0.1045  0.0280 -0.1470
31636W        W48110  13.870   3.834  13.105  0.3713 -0.0079  0.0900
31637W        W48111  16.190  14.083   9.798  0.0448  0.3942  0.1441
31638W        W48112  13.550  14.521   0.953 -0.0108  0.0742 -0.0333
31639W        W48113  11.199   3.051  14.222  0.0107 -0.1078  0.0410
31640W        W48114  16.316   3.818   2.098  0.2065  0.2879 -0.1981
31641W        W48115   5.054   6.092   4.577  0.0393 -0.1383  0.2865
31642W        W48116   4.404   7.104   3.075  0.0588 -0.1253  0.3162
31643W        W48117   7.163   5.784   2.558  0.1989 -0.1710 -0.1073
31644W        W48118  11.437   6.238   4.013  0.1392 -0.0502  0.1521
31645W        W48119  19.123   2.838  11.941  0.1347  0.1219  0.0718
31646W        W48120  14.889   2.336  13.574 -0.0305 -0.2983 -0.0195
31647W        W48121   9.336   8.915  13.930 -0.1316  0.0766 -0.0394
31648W        W48122   9.450   5.404  10.544  0.1334  0.1638  0.3229
31649W        W48123  11.456  12.636   2.689 -0.1130  0.0597  0.2296
31650W        W48124   5.428   8.968   4.498 -0.0484 -0.2185 -0.1777
31651W        W48125   4.150   1.792  14.574  0.1185  0.0592  0.0825
31652W        W48126   7.624   9.259  13.544  0.1254  0.1936  0.2907
31653W        W48127  11.579   4.378  12.846  0.0733  0.1480 -0.1516
31654W        W48128   3.323   1.974  11.073 -0.0791 -0.1584 -0.0709
31655W        W48129   7.146  12.748   4.014 -0.2409 -0.0158 -0.1716
31656W        W48130  12.816  16.802  13.161  0.2395  0.1449 -0.2727
31657W        W48131   9.079  18.091   4.880  0.1731  0.2007  0.1286
31658W        W48132  13.380  16.183   0.159 -0.0972 -0.0014  0.3734
31659W        W48133   3.410  16.835   0.930 -0.0116 -0.0868 -0.1810
31660W        W48134  19.451   5.688   1.584  0.1408 -0.1835  0.2045
31661W        W48135  12.450   5.715   1.044  0.3439 -0.0693 -0.1490
31662W        W48136  18.065   8.090   2.313  0.0537  0.2560  0.0703
31663W        W48137  18.146  17.589  10.914  0.0553 -0.1326 -0.4335
31664W        W48138   4.507  19.417  10.183 -0.1170  0.2443 -0.2839
31665W        W48139   1.836  17.613   1.576  0.0328  0.2385 -0.1702
31666W        W48140  17.194   3.943  10.274 -0.0693  0.2152 -0.3532
31667W        W48141   0.292  13.831   1.786 -0.2143  0.0135  0.1042
31668W        W48142   8.151  11.952  13.451  0.0428  0.0264  0.0706
31669W        W48143   6.887  18.370   1.585 -0.0510 -0.1026 -0.1431
31670W        W48144   7.667   8.239   4.485 -0.0155  0.2365  0.0034
31671W        W48145   3.586  12.193   3.963  0.2984  0.3721 -0.2026
31672W        W48146   4.995   1.713  13.129 -0.4789 -0.1456 -0.0256
31673W        W48147  10.425   5.691  14.391  0.2695 -0.2202  0.3020
31674W        W48148   9.352   1.420   2.312 -0.1955  0.0268  0.4001
31675W        W48149   6.033   3.809   1.719  0.0586 -0.0273 -0.2204
31676W        W48150   8.235  17.856   1.936  0.3553 -0.3120 -0.1823
31677W        W48151   1.230  17.457  12.007 -0.2186  0.1758 -0.2710
31678W        W48152  16.158   4.190   1.663 -0.1119 -0.3473 -0.0388
31679W        W48153  13.549  15.274   4.724 -0.2612  0.3818 -0.1214
31680W        W48154  18.551   8.395  10.042  0.1140  0.1438 -0.2234
31681W        W48155   6.568  11.508  13.413 -0.0718  0.1344 -0.2572
31682W        W48156  11.417  11.336  13.128  0.0127  0.1692  0.0620
31683W        W48157   4.390   0.178   1.354  0.1608 -0.2231 -0.0585
31684W        W48158  18.311   2.419   2.952 -0.1550 -0.3126  0.0406
31685W        W48159   2.514  10.703  13.451  0.0680  0.0559 -0.0105
31686W        W48160   9.809   4.549  13.243 -0.4047 -0.1372  0.1568
31687W        W48161   5.535  18.523   9.881  0.1720 -0.1523  0.1176
31688W        W48162  18.014  12.078  11.531  0.2322  0.2357 -0.1002
31689W        W48163  10.429   3.695  12.237  0.0012  0.2758 -0.0030
31690W        W48164  10.941   7.410   4.205 -0.2248  0.3941 -0.0412
31691W        W48165   8.468   7.681   2.717  0.0085  0.1176 -0.0890
31692W        W48166  17.945   8.860   3.716 -0.2019  0.2044 -0.3625
31693W        W48167  12.950  10.861   3.098 -0.3735  0.0709 -0.1276
31694W        W48168   8.550  13.159   2.103  0.3307 -0.1850 -0.2358
31695W        W48169  14.291  12.841  11.084  0.1603  0.1674 -0.4113
31696W        W48170  11.889   6.903  10.190 -0.1037  0.2874 -0.0895
31697W        W48171  10.761   9.143  13.815  0.0660  0.1304 -0.0973
31698W        W48172  13.369   3.787  11.250 -0.0199  0.1252  0.1928
31699W        W48173   1.012   5.689   4.098  0.0107  0.1419  0.0557
31700W        W48174   0.827  16.742  14.551 -0.0464 -0.3307  0.0583
31701W        W48175  14.375   2.608   4.929  0.1925 -0.1133 -0.0978
31702W        W48176   6.957   4.838   2.657 -0.0585  0.0506 -0.3110
31703W        W48177   6.753   1.311  12.638 -0.4881 -0.0129 -0.1657
31704W        W48178  11.614  18.704  12.856 -0.1732 -0.3481 -0.0185
31705W        W48179  14.172  17.597  11.308  0.1802  0.1068  0.1153
31706W        W48180   5.976   3.143  12.482  0.0819  0.3544 -0.0689
31707W        W48181   7.057  11.690  11.561  0.0572  0.0185  0.6529
31708W        W48182   4.889  18.883  11.906  0.0854 -0.0719 -0.1154
31709W        W48183   6.613   7.318  14.146  0.2791 -0.0987 -0.1905
31710W        W48184   5.555   3.759  11.809  0.0832 -0.4865 -0.1551
31711W        W48185   4.490  19.083   1.597 -0.0478 -0.0055 -0.2936
31712W        W48186  12.833  11.991   2.855  0.2407  0.3557 -0.3403
31713W        W48187  17.854  11.412   2.669  0.1191 -0.1475 -0.1331
31714W        W48188   7.253   0.091   2.405  0.1047  0.0939  0.2217
31715W        W48189   3.507   4.865   0.608  0.0895 -0.0501 -0.0993
31716W        W48190  17.921  13.629  14.231 -0.0623  0.2320 -0.1247
31717W        W48191  12.280   9.836  12.298 -0.4234 -0.2507  0.0410
31718W        W48192   4.864   6.115  13.147  0.0508  0.2853 -0.4418
31719W        W48193  15.860   7.448  13.959  0.1619 -0.1520  0.1851
31720W        W48194  12.608  15.270  14.059  0.2349  0.0891 -0.2066
31721W        W48195  14.393  19.542   3.061  0.1171  0.0614  0.1986
31722W        W48196   2.566  16.372  10.804  0.0681 -0.0574 -0.0977
31723W        W48197  12.727   2.882   0.684  0.0640  0.1823 -0.0621
31724W        W48198  15.028  14.501  11.949 -0.0939  0.1411 -0.3376
31725W        W48199  15.744   1.485   0.276 -0.0746 -0.0700  0.1620
31726W        W48200  13.889   7.798   4.885  0.1820  0.3823  0.3077
31727W        W48201   7.729   3.748   1.107  0.1636  0.2589  0.2486
31728W        W48202   0.528  10.083   4.922  0.1142 -0.0020  0.0580
31729W        W48203   7.756  19.418   0.363  0.4216 -0.0123 -0.1184
31730W        W48204  15.785   0.109   1.068 -0.3487  0.1257 -0.1465
31731W        W48205   9.353   3.890  13.506  0.0454 -0.2129 -0.1570
31732W        W48206  10.327   8.923  13.633  0.1572  0.0562 -0.1334
31733W        W48207   6.031   5.012   5.404  0.2566 -0.0723 -0.0485
31734W        W48208  14.650   9.181   5.143  0.2335 -0.0230 -0.0059
31735W        W48209  17.614   3.742  13.270  0.3688  0.1166  0.0672
31736W        W48210  12.454  11.228   2.581 -0.2299  0.2295  0.0496
31737W        W48211  19.280  18.782   3.019 -0.2185 -0.0896  0.4813
31738W        W48212  19.503   1.101  12.423  0.3155 -0.0130  0.1424
31739W        W48213  15.177   5.773  13.445 -0.1123 -0.1655 -0.0241
31740W        W48214  10.923  18.410   3.280  0.0113 -0.1729 -0.1199
31741W        W48215  11.503  16.390   2.678  0.1392  0.0783 -0.0679
31742W        W48216   0.709  12.782   2.863 -0.0040 -0.1976 -0.5318
31743W        W48217   8.229   3.653   3.963  0.3276  0.1189  0.3121
31744W        W48218  19.295   9.359  11.787  0.1477  0.2136  0.3589
31745W        W48219  14.978  11.346   2.734 -0.4790 -0.2490 -0.0786
31746W        W48220  10.465  19.352  12.176  0.1801  0.0467  0.0095
31747W        W48221   5.158  10.524   2.806  0.0923 -0.2518 -0.1537
31748W        W48222  14.343   5.226  11.400  0.0039 -0.0739  0.4176
31749W        W48223  14.662   5.912  12.216  0.0086  0.0549  0.2357
31750W        W48224   6.939   1.247  14.187 -0.0208  0.1853  0.0545
31751W        W48225   3.724  14.385  13.859  0.2458  0.1224 -0.3945
31752W        W48226   7.715   4.329  10.256  0.3182 -0.0769  0.1958
31753W        W48227   3.744  19.027   4.848  0.2906  0.1670 -0.1315
31754W        W48228  17.538  11.975  11.381 -0.2950  0.0644  0.2186
31755W        W48229  18.788  15.011  11.847 -0.2039 -0.2223  0.3439
31756W        W48230   7.858  18.243  13.676  0.3658 -0.2365 -0.0570
31757W        W48231  15.724   3.240  13.459 -0.3549  0.1209  0.1220
31758W        W48232   7.425   9.808   3.962  0.0441 -0.0224  0.1962
31759W        W48233  18.423   9.866   4.034 -0.2070  0.0013  0.0413
31760W        W48234  14.708   3.599  11.242 -0.0412  0.2842 -0.4287
31761W        W48235  13.746   9.677   2.172  0.1190  0.0749  0.1023
31762W        W48236  19.120  16.200  13.179 -0.1138 -0.1215  0.0980
31763W        W48237   3.370  14.225   1.519 -0.3722  0.2715 -0.0673
31764W        W48238   9.548   6.791  10.803 -0.0936 -0.1208 -0.1376
31765W        W48239   8.829   9.559   1.971  0.1073 -0.1004 -0.2239
31766W        W48240  19.090  12.090  14.339 -0.4479 -0.2207  0.0821
31767W        W48241  10.912  15.309   3.423 -0.1147 -0.0821  0.0869
31768W        W48242   2.526   9.239   1.701  0.0539  0.0384  0.2184
31769W        W48243   8.437   6.248   1.634  0.0617  0.0565 -0.2147
31770W        W48244   6.542  17.560  14.034 -0.2091  0.1723  0.3204
31771W        W48245  16.411   2.570   1.022  0.0663  0.1195 -0.1858
31772W        W48246  12.067   9.575   0.671 -0.1632  0.0740  0.2942
31773W        W48247   5.718  12.044  13.202  0.1590  0.0815 -0.1239
31774W        W48248  13.634  11.763   3.110 -0.2888 -0.3503 -0.0508
31775W        W48249   8.558  16.159  10.788 -0.4204 -0.2222 -0.0561
31776W        W48250  10.032   2.989   0.762 -0.1048  0.0774  0.1320
31777W        W48251  18.207   3.261   3.579  0.0378 -0.0325 -0.0699
31778W        W48252   3.742   8.920   5.269 -0.1029 -0.0218 -0.2527
31779W        W48253  17.213  13.740  12.544  0.0941 -0.0823 -0.0715
31780W        W48254  14.764  10.087   2.273  0.2412  0.0156  0.0124
31781W        W48255  10.242  11.435  12.246 -0.1324 -0.0311  0.1208
31782W        W48256  17.506   0.403   0.299 -0.0747 -0.0698  0.0894
31783W        W48257  14.967   1.646   0.615  0.0434 -0.1730 -0.2347
31784W        W48258   6.201  16.019   4.048  0.3349 -0.2637 -0.1191
31785W        W48259   9.495  19.546  12.679 -0.3646 -0.0236  0.1049
31786W        W48260   8.670   6.402  12.093 -0.0548 -0.0894 -0.0623
31787W        W48261   4.655  17.180   4.878  0.3712 -0.0030  0.1073
31788W        W48262  13.906   5.800  13.916  0.0273  0.1254  0.1764
31789W        W48263   7.717  10.029   1.042 -0.2409 -0.0080 -0.0181
31790W        W48264   1.985   1.174  12.760  0.2289  0.0156  0.1015
31791W        W48265  13.415   3.349   3.452  0.0405 -0.0130  0.0825
31792W        W48266   4.419  14.828  10.653  0.2472 -0.0470  0.0487
31793W        W48267  10.265   8.241   4.091  0.1884 -0.2201  0.1258
31794W        W48268   1.974  17.383  11.409 -0.1503 -0.1096  0.1466
31795W        W48269   1.354   3.281  11.287 -0.0055 -0.0993  0.0684
31796W        W48270   2.764  15.853  13.510  0.3384 -0.0079  0.0868
31797W        W48271   1.784   0.402  10.667 -0.2410  0.3524 -0.2145
31798W        W48272  11.923   2.362   2.726  0.0613  0.1505 -0.2375
31799W        W48273  11.526  14.908   4.487  0.0417 -0.1924  0.0268
31800W        W48274   6.965   2.346   1.546  0.1434 -0.1395 -0.2113
31801W        W48275   1.028   0.553   4.330 -0.1583 -0.0034  0.1876
31802W        W48276   5.723   3.422   1.289 -0.0947 -0.1566  0.2137
31803W        W48277   5.516   5.622   5.538 -0.0883  0.0616  0.1355
31804W        W48278   5.984   2.579  10.926 -0.0616 -0.0229  0.3709
31805W        W48279  17.943  17.763   9.371 -0.4031 -0.0465 -0.0885
31806W        W48280   9.533  15.628   3.640  0.0747  0.2531  0.0639
31807W        W48281  10.066   1.257   3.631 -0.1033 -0.1118 -0.3205
31808W        W48282   8.572  17.131   3.135  0.0067  0.0999 -0.0619
31809W        W48283  12.983  13.195  13.334  0.2304  0.2119 -0.3276
31810W        W48284   4.830  18.548   1.443 -0.1621 -0.0188 -0.1544
31811W        W48285   0.861   2.684  10.742  0.1840 -0.0810  0.2732
31812W        W48286   5.028   5.429   0.375 -0.1152 -0.1002  0.0833
31813W        W48287   0.283   0.078   2.847  0.1059  0.2144  0.0328
31814W        W48288  14.580  17.195  12.087  0.2849 -0.2735  0.3544
31815W        W48289   6.555   2.092  10.577 -0.1611  0.3701  0.2089
31816W        W48290  14.312   7.017  11.256 -0.3600 -0.0776  0.3432
31817W        W48291   7.845  15.599   4.822 -0.0912 -0.1791 -0.2491
31818W        W48292   6.134  12.420  12.029  0.0372  0.0535  0.0200
31819W        W48293   7.596  17.565  10.353 -0.1251 -0.0727  0.0409
31820W        W48294   5.608  13.230   0.497  0.0103 -0.2880 -0.0109
31821W        W48295   9.829  13.421   1.895  0.6026 -0.1649  0.1679
31822W        W48296  19.559  14.652  14.253  0.2176 -0.2475  0.0258
31823W        W48297  14.136   0.675   0.839 -0.2838 -0.1068 -0.3611
31824W        W48298   9.200   1.063  12.830 -0.1717  0.4036  0.0968
31825W        W48299   4.925   5.134  11.493 -0.0771  0.1681 -0.0781
31826W        W48300   6.720  18.859   1.410 -0.2256  0.3073 -0.3170
31827W        W48301  18.107   7.415   1.908 -0.2611 -0.4599  0.0065
31828W        W48302  19.182  17.109  14.695  0.2642  0.3937  0.0646
31829W        W48303   8.187  17.133  11.364 -0.2804  0.1639  0.3541
31830W        W48304   9.896  16.881  11.819 -0.1931 -0.0160  0.4460
31831W        W48305   3.687  17.217  11.340  0.0023 -0.4298  0.1118
31832W        W48306  16.203   1.323   3.041  0.0878 -0.1411 -0.0424
31833W        W48307   1.509   7.896  12.741  0.0005  0.0768  0.1858
31834W        W48308  11.068   8.819  12.364  0.1834  0.1210 -0.1981
31835W        W48309   9.205   8.151  13.607 -0.1314  0.2691 -0.1746
31836W        W48310  12.833   1.962   4.641  0.1241 -0.0595  0.1943
31837W        W48311   5.776  13.600   1.767 -0.1057 -0.1007 -0.1361
31838W        W48312  13.222  17.870  11.334  0.0065 -0.3707 -0.1433
31839W        W48313   4.090   5.754   2.357 -0.0841  0.1982 -0.0874
31840W        W48314  15.186  15.357  11.745  0.3348  0.0604  0.4450
31841W        W48315  17.379   1.513  11.589 -0.1393  0.1674  0.3202
31842W        W48316   3.543   2.198  13.981 -0.1645  0.0992  0.2541
31843W        W48317  18.874  10.073   3.604 -0.0365  0.0663 -0.0576
31844W        W48318  17.360   7.773   3.034 -0.0794 -0.1836  0.0418
31845W        W48319  12.187   0.959   1.396 -0.0130 -0.5438  0.1626
31846W        W48320   8.161   4.332   4.711 -0.0933  0.0741 -0.1844
31847W        W48321   7.514  11.067  12.142 -0.0827 -0.0109  0.1201
31848W        W48322   6.282  12.455   9.130  0.1062  0.1068 -0.2389
31849W        W48323   9.837  12.461  12.776 -0.1257 -0.1875  0.0503
31850W        W48324  15.896   5.466   5.121  0.2444 -0.0632 -0.0781
31851W        W48325  11.736  17.343  11.011  0.0589 -0.0152  0.3392
31852W        W48326   9.844  19.302  13.709  0.1410  0.0473 -0.4459
31853W        W48327  10.395   1.826  11.691  0.0946 -0.5554  0.1817
31854W        W48328   5.357   0.650   1.397 -0.0244 -0.3369  0.0421
31855W        W48329   7.453  12.579   2.609  0.0071 -0.0350 -0.3863
31856W        W48330   7.830  17.364   3.664 -0.4621 -0.0062  0.1011
31857W        W48331  15.063  13.096  12.034 -0.0775 -0.0497  0.0051
31858W        W48332  13.024   3.392   3.985  0.1156 -0.2130 -0.0162
31859W        W48333   2.647   3.157   3.537  0.1807 -0.3769 -0.1438
31860W        W48334   7.615  17.689   9.532 -0.3359  0.1147 -0.1327
31861W        W48335   5.445  10.866   3.129  0.0933 -0.1663 -0.1031
31862W        W48336  16.574  11.687  12.299 -0.1326  0.0364  0.2965
31863W        W48337  16.549  16.473   4.978 -0.1464 -0.0458 -0.2571
31864W        W48338   2.621   2.560  13.755  0.2861 -0.1075 -0.2236
31865W        W48339   7.866   7.479   2.450 -0.1139  0.0591  0.2202
31866W        W48340   8.752   3.532   2.570 -0.0335 -0.0732 -0.0301
31867W        W48341   9.040   6.895  10.406  0.0789 -0.0283  0.0345
31868W        W48342   0.199   6.927   0.248 -0.1495 -0.0839  0.1856
31869W        W48343  15.310  14.344  14.220  0.1220 -0.0856 -0.1140
31870W        W48344  11.044   4.051   3.850  0.0274  0.1947  0.0237
31871W        W48345   4.076   1.299   0.025 -0.0986  0.2443  0.2031
31872W        W48346  13.494   3.960   5.060 -0.0830 -0.4463  0.1584
31873W        W48347   8.085  14.040  11.707 -0.1330  0.1250  0.1348
31874W        W48348   8.749  10.737   4.955 -0.3650  0.1041 -0.0025
31875W        W48349  13.081  12.656  14.304 -0.0570  0.1056  0.1743
31876W        W48350   5.272  12.423   0.300  0.1138 -0.0672  0.0279
31877W        W48351   8.737  17.091   0.545  0.3657 -0.2178  0.0675
31878W        W48352  16.411   7.557   0.621 -0.1252  0.2519 -0.2395
31879W        W48353  15.756  10.862   3.162 -0.2036  0.1352 -0.0179
31880W        W48354   8.734  10.265  11.824 -0.2528 -0.4067  0.0581
31881W        W48355  15.275  13.898   2.799  0.2167  0.1310 -0.3554
31882W        W48356   2.192   8.347  13.095  0.1703 -0.1299  0.0817
31883W        W48357  16.574  16.122  10.090 -0.1041  0.0134  0.0967
31884W        W48358  11.315  16.683   3.015  0.0646  0.1815 -0.2396
31885W        W48359  10.698  11.429   4.084  0.0553  0.1811 -0.2747
31886W        W48360  16.782   0.151  12.712  0.1778 -0.0024  0.1107
31887W        W48361   2.975   5.439   2.460  0.2237  0.0597 -0.0005
31888W        W48362  14.267  14.560  11.924 -0.1597 -0.0324 -0.0171
31889W        W48363   0.801   2.162   2.725  0.1184  0.1365 -0.2260
31890W        W48364  14.886   7.336   4.495 -0.2306 -0.0661 -0.1035
31891W        W48365  17.589   6.386  12.560 -0.1495  0.0075  0.0576
31892W        W48366  12.528   1.610  13.431  0.1503 -0.0949 -0.2014
31893W        W48367   6.429  12.482  14.509  0.1366  0.1153 -0.3068
31894W        W48368  18.854   7.684   1.343  0.2077  0.2044 -0.2730
31895W        W48369   2.099   2.785   5.317 -0.0688  0.0523 -0.2434
31896W        W48370   4.571   4.141   5.135  0.0609 -0.2807 -0.1889
31897W        W48371  18.998   2.976   2.008 -0.0276  0.0790 -0.1414
31898W        W48372   4.498  17.009   1.813 -0.1718 -0.0162  0.2227
31899W        W48373   2.238  19.160   3.233  0.0773  0.0152 -0.1831
31900W        W48374   7.909  15.982  11.634  0.0651 -0.2585 -0.5023
31901W        W48375   9.763  12.696   2.460 -0.2125  0.1762  0.4097
31902W        W48376   7.784  18.716   4.743 -0.0490 -0.1371  0.2485
31903W        W48377  12.394  13.674   2.599  0.1737 -0.0024 -0.0102
31904W        W48378   2.888  15.653   0.815  0.1900 -0.1087 -0.1817
31905W        W48379   4.545   6.791  10.261 -0.0846  0.0046  0.1097
31906W        W48380   1.418  11.676   0.373 -0.0287 -0.1271 -0.2532
31907W        W48381  12.703  19.229   2.397 -0.2644 -0.2593  0.2705
31908W        W48382   6.871   5.983   4.534  0.0647  0.1939 -0.0675
31909W        W48383  16.288   9.794  11.687 -0.0542 -0.1546 -0.0846
31910W        W48384   7.226   2.883   0.008 -0.2037 -0.1306  0.0485
31911W        W48385  16.263  14.830  11.603 -0.0359 -0.3503  0.1019
31912W        W48386   9.642   7.197   4.770 -0.0421 -0.1420  0.0042
31913W        W48387   1.830  16.281  12.204 -0.3198 -0.0762  0.1528
31914W        W48388   9.329   9.862   0.713  0.0867  0.0092  0.1545
31915W        W48389  13.552  10.088  11.111  0.1294  0.1076 -0.0174
31916W        W48390  13.559   9.144   5.257  0.3054  0.1198  0.0840
31917W        W48391   9.131   9.495   4.023  0.3310 -0.1195  0.2903
31918W        W48392  12.691  15.439  11.073 -0.1563  0.1062 -0.1160
31919W        W48393  17.282  11.809   1.466  0.1730  0.1955 -0.0475
31920W        W48394   6.145  12.263   3.371 -0.2503  0.3667  0.4268
31921W        W48395  11.682   6.417  12.367 -0.3041 -0.0329  0.3781
31922W        W48396  15.232   1.228   1.859 -0.0841  0.0776 -0.0963
31923W        W48397   3.748  17.808  14.276 -0.3501  0.1753 -0.0194
31924W        W48398  15.161   6.857  13.003  0.2806  0.1008  0.2122
31925W        W48399  15.400   1.539   2.293 -0.1693 -0.1148  0.1603
31926W        W48400  16.347  10.944   3.851 -0.0190  0.0586 -0.0817
31927W        W48401  18.227   2.284   1.222 -0.0873  0.1299  0.1657
31928W        W48402  18.829   4.359   2.590 -0.0539  0.0781 -0.2251
31929W        W48403  10.937  16.327  12.005 -0.0289  0.0075 -0.1194
31930W        W48404   1.276  10.563   1.722  0.0748  0.1523 -0.1696
31931W        W48405  11.598   0.769   4.435 -0.2699 -0.2183 -0.0452
31932W        W48406   9.746  17.993  12.590  0.2725 -0.0151 -0.1393
31933W        W48407  10.252   2.041   1.467 -0.0909  0.2175  0.4275
31934W        W48408   8.682   0.128   1.494 -0.2763  0.1362 -0.3137
31935W        W48409  19.419   8.981  11.400  0.1478  0.3137  0.0018
31936W        W48410  14.134   2.605   3.699  0.0280  0.3706 -0.1008
31937W        W48411  13.260  10.436   2.761  0.1066  0.1958  0.0917
31938W        W48412   5.236   6.585   4.733  0.0683  0.0913  0.2274
31939W        W48413   3.860   6.375   9.932  0.2832  0.1831  0.1752
31940W        W48414   8.170  16.722  12.243  0.0132  0.3566 -0.0490
31941W        W48415   0.903  16.532   1.892 -0.2833 -0.1879 -0.0700
31942W        W48416   0.150  14.989  12.928 -0.2130  0.6564 -0.0033
31943W        W48417   4.166  10.626  14.381 -0.2331  0.0467  0.0406
31944W        W48418   7.151   6.325  11.042  0.0028  0.1123 -0.3718
31945W        W48419  10.727   3.268   1.257 -0.0560 -0.0598  0.1451
31946W        W48420  11.175   7.481  10.562 -0.1470  0.1357 -0.0184
31947W        W48421   5.269   2.285   0.824  0.0602  0.0177  0.1656
31948W        W48422  10.593   5.985  13.989 -0.3240  0.1722 -0.1314
31949W        W48423   9.357   7.105   0.687  0.3095 -0.1861 -0.0455
31950W        W48424  13.628   1.984  11.034 -0.0269 -0.1184 -0.0970
31951W        W48425  16.405  18.290   4.240  0.0157 -0.0721 -0.4245
31952W        W48426   1.268   5.580   1.487  0.1927  0.0552  0.4278
31953W        W48427  17.796  11.671   5.221 -0.0438 -0.1610 -0.0968
31954W        W48428  18.485  12.913   1.736 -0.0443 -0.2282  0.0551
31955W        W48429  15.066  12.394   9.657  0.0156 -0.0447 -0.1123
31956W        W48430  16.440  18.250   3.036  0.1643  0.3043 -0.0855
31957W        W48431   5.472   1.431  11.280 -0.0230  0.0545  0.0714
31958W        W48432  10.858   6.766  12.497 -0.1953 -0.1175  0.3723
31959W        W48433   8.430   1.468   2.484 -0.1721 -0.2832 -0.0197
31960W        W48434  17.994  18.642  11.314 -0.0163  0.1822  0.0049
31961W        W48435   2.070  14.214   0.895 -0.1929 -0.0956 -0.2042
31962W        W48436   2.861  12.863   1.038  0.2659 -0.0247 -0.1173
31963W        W48437   3.564   7.982   1.611 -0.0539  0.0260 -0.0933
31964W        W48438   1.320  17.867  11.739 -0.0369  0.0910 -0.0065
31965W        W48439  13.661   0.177   2.418  0.0854  0.2715  0.0737
31966W        W48440  18.155   5.396   2.013  0.0086 -0.1894 -0.3368
31967W        W48441  12.180   8.740  13.112  0.0942  0.1387  0.0355
31968W        W48442  16.517  16.151  13.513  0.0150 -0.2955 -0.0782
31969W        W48443  16.527   5.302  13.013 -0.2604  0.2077  0.1911
31970W        W48444   7.339  18.739   2.581  0.0517  0.0659 -0.2270
31971W        W48445  11.166   6.607   3.825  0.2568 -0.0330  0.2203
31972W        W48446  15.449  11.045   5.695 -0.0578  0.2135  0.0818
31973W        W48447   8.312   1.496  10.902  0.0517  0.0827 -0.2459
31974W        W48448  13.290  18.990   0.114 -0.1497 -0.2019  0.0437
31975W        W48449   9.179   8.676   2.026  0.1316 -0.1108 -0.2740
31976W        W48450  14.800  13.801  11.569 -0.2630  0.0000  0.0032
31977W        W48451  17.807  16.598   3.742 -0.1680 -0.1414  0.1367
31978W        W48452   3.770  15.080  13.779 -0.1076  0.2188  0.1243
31979W        W48453  10.797  12.752  11.076  0.0374  0.3679  0.1263
31980W        W48454   6.076  17.993   3.816 -0.2593  0.1109  0.3901
31981W        W48455   8.203  14.848  10.812  0.0555  0.0545 -0.0432
31982W        W48456  10.930  13.974   1.598  0.0609 -0.2591 -0.1472
31983W        W48457  14.064   0.595   0.347 -0.0856 -0.0037  0.1678
31984W        W48458   6.616  16.131  10.141  0.0780 -0.0055  0.1634
31985W        W48459   6.385  11.213   2.651  0.2206 -0.0095 -0.2771
31986W        W48460  13.904   4.639   2.928  0.0858 -0.2389  0.0820
31987W        W48461   7.140   6.994  12.354 -0.1209 -0.0356 -0.0092
31988W        W48462  13.041  14.022  10.314 -0.2817 -0.1499  0.0196
31989W        W48463  15.265   4.147  14.326  0.0288 -0.3897 -0.3656
31990W        W48464  16.735   5.011  10.455 -0.1027  0.1601 -0.3360
31991W        W48465  19.543  10.033   0.973  0.0537  0.0260 -0.3273
31992W        W48466  10.161  14.161   2.515 -0.1021  0.1861 -0.0494
31993W        W48467   6.918  14.693   2.272 -0.0168  0.0129  0.1294
31994W        W48468   1.093  13.635  13.711  0.1351  0.1152 -0.1478
31995W        W48469  12.290   1.926   1.564 -0.1884  0.1355  0.0658
31996W        W48470   4.530  13.803  14.561 -0.1759 -0.0187 -0.2455
31997W        W48471   0.215   2.892  11.290 -0.2189 -0.1365 -0.2475
31998W        W48472  15.277   3.801   3.855  0.3238 -0.3488  0.1617
31999W        W48473   3.758   8.632  11.520 -0.0353  0.1946  0.0938
32000W        W48474  13.132   5.867  12.311  0.2999 -0.2647  0.1335
32001W        W48475   8.539  10.880  10.762 -0.3017  0.2805  0.2050
32002W        W48476  16.244  14.544  14.681 -0.2924 -0.0282  0.1088
32003W        W48477  13.437   2.746  11.909  0.0665  0.0931  0.0416
32004W        W48478  11.198   6.349  11.231  0.2145  0.1460 -0.2049
32005W        W48479  18.981  14.306  12.983  0.0471  0.0478 -0.3019
32006W        W48480  16.337  19.032   3.230 -0.0411  0.1725 -0.0487
32007W        W48481  15.625   6.515  10.986 -0.4524 -0.1250  0.0508
32008W        W48482  19.430   1.294  14.480  0.0427  0.2700 -0.4807
32009W        W48483  13.663   4.616  11.620 -0.0741 -0.2531  0.0835
32010W        W48484   2.311  11.122   2.599  0.0632  0.0632 -0.1473
32011W        W48485  14.764  18.348  12.953  0.2901 -0.2207 -0.2489
32012W        W48486  13.605   5.478   4.064  0.1542 -0.1098  0.0539
32013W        W48487  13.216  19.309  11.258  0.0745  0.1254 -0.0579
32014W        W48488   8.590  13.921   3.236  0.2196  0.0095 -0.1159
32015W        W48489  13.876  19.426   3.046  0.1277  0.0683  0.0739
32016W        W48490   2.069  18.908  11.584  0.1007  0.4461 -0.0065
32017W        W48491  12.366  15.881   1.715 -0.4231 -0.1700 -0.0327
32018W        W48492  16.092  18.871   3.670 -0.1909  0.3135  0.0881
32019W        W48493  15.480  10.714   3.527  0.0811 -0.0734  0.0990
32020W        W48494   9.718  14.230   1.232 -0.3280  0.0486  0.1292
32021W        W48495  17.859  12.586  11.879  0.2229  0.0345 -0.2791
32022W        W48496  12.122  15.280  12.994 -0.0613  0.1257 -0.4460
32023W        W48497   4.265  13.837  11.093  0.0694  0.2360  0.1301
32024W        W48498  16.036   4.332   2.115 -0.1005  0.0122  0.0587
32025W        W48499  13.469   1.553  13.429  0.0855 -0.2223 -0.0712
32026W        W48500   3.239   5.949   2.335  0.1348  0.0916  0.3166
32027W        W48501   7.591   3.934  14.201  0.1492 -0.0258 -0.0895
32028W        W48502   0.396  10.143  11.780 -0.1131  0.2212 -0.2359
32029W        W48503   9.667   6.930   5.223  0.0001 -0.2432 -0.0385
32030W        W48504   0.514   9.886   3.512 -0.0888 -0.1561  0.1607
32031W        W48505   6.647  11.020  13.156  0.3254  0.2743  0.1588
32032W        W48506   8.537   3.074  11.193 -0.1441 -0.2252  0.2004
32033W        W48507  10.867  14.141   3.014 -0.0058  0.2983 -0.0903
32034W        W48508   8.558  14.974   3.094 -0.2954  0.4107  0.0762
32035W        W48509   6.660   6.867   1.495 -0.0846 -0.0936 -0.2156
32036W        W48510   0.653  13.009   4.787  0.1627 -0.2795 -0.4087
32037W        W48511  10.436   4.433  10.916 -0.2226  0.0051  0.1283
32038W        W48512  17.000  12.927  10.230  0.1117 -0.0821  0.1561
32039W        W48513   0.823   7.152  13.339  0.2261  0.0435  0.5076
32040W        W48514  14.533  11.021   5.024  0.0579  0.5169  0.0862
32041W        W48515  12.132   7.495   2.401 -0.0885  0.3221  0.0280
32042W        W48516  14.631   7.890  11.592  0.0516 -0.1051  0.0952
32043W        W48517  15.490  17.626   3.206 -0.0183 -0.0118  0.1166
32044W        W48518  19.298   7.658  12.490  0.0872 -0.1662  0.1823
32045W        W48519   8.623  12.710   0.767 -0.0336  0.2986 -0.0202
32046W        W48520  16.866   4.743   1.248 -0.0095 -0.0917 -0.1718
32047W        W48521   9.767  15.007   4.164 -0.0149 -0.1613  0.0218
32048W        W48522  16.494  13.323  12.019 -0.0998 -0.1098  0.0990
32049W        W48523  12.623  13.607   3.207 -0.0487  0.0954 -0.4041
32050W        W48524  14.692  11.464   0.600 -0.2048 -0.1210 -0.1270
32051W        W48525   6.719   8.726  12.529 -0.0020  0.2386 -0.1871
32052W        W48526  18.188  11.774   1.136  0.0314  0.0396  0.0263
32053W        W48527   2.218   0.150   3.319 -0.4584  0.0166  0.0102
32054W        W48528  15.987  16.937   4.322 -0.1216 -0.1837  0.1503
32055W        W48529   3.694  14.001   3.571  0.3131  0.1509  0.2696
32056W        W48530   8.818  11.690   4.757 -0.0275  0.0522 -0.4171
32057W        W48531  16.073   7.188   2.003 -0.0889  0.0850  0.2408
32058W        W48532   3.390  11.072   4.847 -0.4948  0.0040 -0.2246
32059W        W48533   9.976   6.168  13.150 -0.0907 -0.0023  0.4015
32060W        W48534  12.475  12.465   4.317  0.4365 -0.0815  0.1431
32061W        W48535  10.913   5.325   1.868 -0.0165 -0.4085 -0.0929
32062W        W48536   9.517  12.628   1.130  0.3126 -0.1261 -0.2170
32063W        W48537  18.498   9.551   4.447  0.0233  0.4179 -0.0119
32064W        W48538  15.355  17.654   0.372 -0.4550 -0.4873  0.2597
32065W        W48539   2.318  14.278   3.524 -0.1502 -0.2794  0.5517
32066W        W48540   8.870   7.191   0.660 -0.1209  0.1242  0.2289
32067W        W48541  15.565  16.352   0.866 -0.2035  0.0893  0.1189
32068W        W48542  12.988   5.530  13.606  0.0596  0.0365 -0.4208
32069W        W48543  17.184  12.328  13.344  0.0637  0.2925  0.2323
32070W        W48544  18.190   5.760  12.709 -0.0436 -0.1005  0.1599
32071W        W48545  13.212  18.310   0.208 -0.1048 -0.0239  0.0190
32072W        W48546  19.452  18.714  13.999  0.1985  0.0866  0.0029
32073W        W48547  16.180   9.399  12.606 -0.0508 -0.1665 -0.3136
32074W        W48548  17.720   6.784   4.604 -0.0643 -0.1278 -0.0206
32075W        W48549  10.372   7.281   2.395  0.2036  0.1865 -0.2162
32076W        W48550   2.199   0.885   4.553  0.0233 -0.0530  0.1684
32077W        W48551   9.599   4.937  11.853  0.2422 -0.1182 -0.0070
32078W        W48552  10.238  10.124  14.202  0.2285  0.1278 -0.1588
32079W        W48553   5.897   9.193   4.421  0.0410 -0.0089 -0.3557
32080W        W48554  13.549  19.526  11.815 -0.2294  0.1216  0.1554
32081W        W48555   3.638   5.895   0.193  0.0189 -0.1633 -0.0343
32082W        W48556   7.631  16.119   3.109  0.2368  0.0689  0.1289
32083W        W48557  14.430  19.555   9.775 -0.1007  0.2434 -0.0458
32084W        W48558   2.761   3.446   0.117  0.0041 -0.0318  0.0030
32085W        W48559  19.148  15.680   4.630  0.1671  0.0099  0.0783
32086W        W48560  12.496   3.650  14.603 -0.0517 -0.3479 -0.1225
32087W        W48561   3.231   9.090   0.802  0.1243  0.2297  0.4429
32088W        W48562   2.771  14.528  11.191 -0.0449 -0.1268 -0.0244
32089W        W48563  16.140  14.480   0.461 -0.1839 -0.1736  0.0246
32090W        W48564   2.689  13.598  12.621 -0.1714 -0.4097  0.1284
32091W        W48565  12.774  10.206   0.254 -0.0722  0.1012  0.0326
32092W        W48566   8.391   0.249  11.961 -0.0679  0.1709  0.2886
32093W        W48567  11.771   3.261   2.063 -0.3037 -0.0949 -0.2611
32094W        W48568  18.263   2.997   9.982  0.1341  0.2109 -0.3985
32095W        W48569  15.917   0.726   3.805  0.0436 -0.3406 -0.2197
32096W        W48570  14.080  19.076   2.215  0.0511  0.3919  0.2807
32097W        W48571   6.446   4.250   5.100 -0.1092  0.0148  0.2700
32098W        W48572   6.325  16.398   0.373 -0.2331  0.1529 -0.0504
32099W        W48573   9.273  10.686   9.617 -0.1168  0.0617  0.0364
32100W        W48574   5.342   3.511  11.415  0.0113 -0.5037 -0.2765
32101W        W48575   1.903  12.936   0.083 -0.4161 -0.1210 -0.1355
32102W        W48576   8.578  18.930  11.610  0.0084  0.2961  0.1506
32103W        W48577   4.975   6.678   3.749  0.1103 -0.0437  0.0061
32104W        W48578  11.072  15.372   2.968 -0.2330 -0.2474  0.2452
32105W        W48579  12.924   1.600  13.813 -0.1936  0.1885 -0.1546
32106W        W48580  16.431  12.134  11.352 -0.1539  0.1444  0.1084
32107W        W48581  18.259  11.376  14.294 -0.0455 -0.1271  0.2310
32108W        W48582   5.468  17.596  13.906  0.0116  0.2721 -0.1302
32109W        W48583   2.802   2.967  14.619 -0.6976 -0.2161 -0.1717
32110W        W48584  11.803   5.293  12.964  0.2223 -0.1301  0.1974
32111W        W48585   4.540   4.730  12.318  0.1000  0.0075  0.1464
32112W        W48586  15.362  12.851   4.538 -0.2969  0.3853 -0.2445
32113W        W48587   9.238   6.599   4.115  0.2916 -0.0241  0.5084
32114W        W48588   0.366   2.291  12.442  0.0992  0.0025  0.3100
32115W        W48589  18.896   7.728  14.520  0.0430 -0.2414  0.4135
32116W        W48590  12.860  10.442   3.777  0.0679 -0.1130 -0.2206
32117W        W48591   5.668   0.256  13.197  0.2920  0.3881  0.1209
32118W        W48592   3.156  18.368  12.276 -0.0186 -0.1569 -0.0859
32119W        W48593  11.900   9.867  11.470  0.0781 -0.2730 -0.0276
32120W        W48594   5.845   7.830   1.038  0.0962 -0.2578  0.2610
32121W        W48595   4.015  15.052   0.463 -0.1023  0.1355  0.3672
32122W        W48596   9.718  10.225  11.715  0.0638 -0.3804  0.1010
32123W        W48597  16.689   7.821   5.345  0.0616 -0.2142 -0.2589
32124W        W48598  17.168  18.932  14.647 -0.0637  0.0661 -0.1714
32125W        W48599   5.774   8.931   5.714  0.1368  0.0575 -0.0351
32126W        W48600  16.443  12.003  12.678  0.5807 -0.0712  0.2893
32127W        W48601  16.708   0.390   5.204 -0.0674 -0.1949 -0.0154
32128W        W48602   2.755   1.745   3.905 -0.0300 -0.2011 -0.1048
32129W        W48603  17.542  18.296   4.010 -0.1513  0.0786  0.4390
32130W        W48604   5.437   4.306   3.064  0.0994  0.1301 -0.1793
32131W        W48605  13.468  11.070  11.395  0.1660  0.3722  0.2090
32132W        W48606   0.850  18.070  13.328 -0.1047 -0.0542  0.2031
32133W        W48607  13.182   5.753   4.248  0.0757  0.1841 -0.0027
32134W        W48608  15.568  17.110   3.396  0.2860  0.4149  0.0448
32135W        W48609  18.528   4.879   4.670 -0.3660 -0.0303 -0.1747
32136W        W48610   8.391  11.715   3.953  0.1552  0.0061 -0.3130
32137W        W48611   5.855  15.772   3.754  0.2329  0.2685  0.1384
32138W        W48612   4.114  12.730  10.633 -0.0464  0.1403 -0.3592
32139W        W48613   2.041  17.440  14.133  0.1160  0.0558  0.0765
32140W        W48614   5.530   7.588  12.216  0.1707 -0.1473 -0.1128
32141W        W48615  15.205   6.906  11.079 -0.0260 -0.1819  0.2583
32142W        W48616   3.651  17.341   2.066 -0.1044  0.0911 -0.2832
32143W        W48617   3.977  11.125  11.679 -0.0675 -0.0011  0.1012
32144W        W48618  18.414  11.997   2.797  0.0398  0.0962  0.3068
32145W        W48619   0.452  13.878   4.363 -0.2658 -0.0102  0.2065
32146W        W48620  12.961   7.578   4.677  0.1510  0.1269  0.3296
32147W        W48621  18.578   2.151  12.046  0.0196 -0.2858  0.0500
32148W        W48622  15.049   4.865  12.606  0.2048  0.1123 -0.1729
32149W        W48623   9.690   6.622  14.607  0.4831  0.0661  0.0920
32150W        W48624  11.417   5.623   1.868  0.2182 -0.1012  0.0308
32151W        W48625  10.167   0.592   9.468 -0.1925  0.0073 -0.2613
32152W        W48626   8.213   5.462   1.975 -0.0678 -0.1262 -0.0049
32153W        W48627  16.908   5.607  11.213 -0.0274 -0.0118  0.5325
32154W        W48628  18.874  17.469   1.892 -0.1004  0.2794  0.1334
32155W        W48629   4.696   3.390   4.936 -0.3997  0.0560  0.1007
32156W        W48630  18.037  12.751   1.634  0.0330  0.1456 -0.2564
32157W        W48631   2.932  13.445  13.840  0.0085 -0.0617  0.0087
32158W        W48632  10.470  16.037  13.054 -0.3459 -0.2069  0.2747
32159W        W48633  15.348   2.389   3.765  0.2779  0.2356 -0.1682
32160W        W48634   9.696  19.098   4.309 -0.2067  0.0757 -0.1063
32161W        W48635  19.436   8.070   5.117  0.2568  0.1291 -0.3548
32162W        W48636  12.590   8.782   4.187  0.3024 -0.0870  0.1477
32163W        W48637  16.742  14.560  12.386  0.2007  0.2899  0.2272
32164W        W48638   2.236  14.528   1.207 -0.2794 -0.1353  0.1301
32165W        W48639  19.453  19.421   1.996 -0.3287 -0.0100  0.1051
32166W        W48640   3.095  17.378  13.727 -0.1199  0.2255  0.0864
32167W        W48641   8.226   4.782  13.857  0.1649  0.1607 -0.0646
32168W        W48642  19.227   1.063   0.672  0.5132  0.0326  0.0388
32169W        W48643  17.912  12.910   3.960  0.0489  0.3276 -0.2425
32170W        W48644  18.440  17.595  11.982  0.2110  0.1239 -0.1099
32171W        W48645  11.593   1.245   2.781 -0.0124 -0.1630 -0.0898
32172W        W48646  12.078  11.893   4.536  0.0512 -0.0624  0.2492
32173W        W48647   4.097  10.145   3.086 -0.0617  0.0370  0.1692
32174W        W48648  11.442  15.830   2.051  0.0208  0.1424  0.0073
32175W        W48649   4.802   3.813  11.083  0.3422 -0.0712 -0.1025
32176W        W48650   3.402  15.561   3.316 -0.1161  0.1551  0.4184
32177W        W48651  18.213   8.037   3.677 -0.4026 -0.1348  0.0482
32178W        W48652   0.415   8.640  12.068 -0.0647  0.2314  0.0995
32179W        W48653   5.295   2.034   9.915 -0.0910 -0.4388  0.1918
32180W        W48654   9.077  18.677   1.839 -0.1208  0.0627 -0.1395
32181W        W48655  10.738   8.388   1.235 -0.0833 -0.0563  0.7322
32182W        W48656   1.104   6.946   4.472 -0.1671  0.0491 -0.1073
32183W        W48657   7.278   4.997   4.710 -0.2276  0.0748  0.1105
32184W        W48658   0.904  13.203  13.485  0.3259 -0.2227 -0.0593
32185W        W48659  17.827   4.862   1.941 -0.0311  0.1915 -0.0672
32186W        W48660  12.941   3.736  13.338  0.1322  0.0277  0.0727
32187W        W48661  18.702   4.534  10.551 -0.3820 -0.0306 -0.2561
32188W        W48662  17.651  18.414   2.542 -0.0411  0.0121 -0.0612
32189W        W48663   3.649  18.043   3.937  0.0354 -0.1139  0.0928
32190W        W48664   4.462  16.060  13.348  0.0848  0.0788 -0.0488
32191W        W48665   5.486   7.040   4.697  0.2528 -0.0659  0.1875
32192W        W48666  11.845  11.061  13.314 -0.0658 -0.0055  0.1628
32193W        W48667  15.258  15.320   2.614  0.0822 -0.2576 -0.2245
32194W        W48668  13.310   3.599   0.837  0.0471 -0.3842 -0.2884
32195W        W48669   8.069   3.986   2.046  0.1017 -0.3229 -0.0443
32196W        W48670   7.329   6.689  11.702 -0.2380  0.2758  0.0254
32197W        W48671  13.486  10.469   0.561  0.0402  0.2159  0.2131
32198W        W48672  14.361   6.511  11.157  0.1805  0.0406  0.2530
32199W        W48673   9.695  10.988  13.858 -0.3314  0.2827  0.2471
32200W        W48674   4.710   6.095  12.720 -0.1739  0.0843 -0.0261
32201W        W48675   9.329   2.316   2.872  0.1385  0.2468  0.0864
32202W        W48676   8.644   2.298   5.223  0.0846  0.1501 -0.1496
32203W        W48677   9.971  16.566   0.951  0.1832  0.0709  0.0998
32204W        W48678  10.759   2.243   2.589 -0.0859 -0.1559  0.2140
32205W        W48679  12.067  10.862   1.662  0.1123 -0.2689 -0.1335
32206W        W48680  19.316  13.204   4.081 -0.3068  0.1197 -0.0749
32207W        W48681   0.201   3.222  14.169  0.1599 -0.2478 -0.0265
32208W        W48682  17.747   1.606   2.012 -0.2612 -0.0137  0.3135
32209W        W48683   9.459  14.754  14.231 -0.0791  0.0570  0.1490
32210W        W48684  15.231  10.382   2.368  0.1230  0.1325 -0.1008
32211W        W48685  15.082  14.572  14.681 -0.0231  0.0628  0.0045
32212W        W48686   7.889  16.176   4.664  0.0756 -0.0142 -0.1475
32213W        W48687   6.088  15.954  14.018 -0.1885  0.1237  0.0929
32214W        W48688  14.859   5.172  10.916 -0.0956  0.1191 -0.0079
32215W        W48689   4.952  10.082   2.383 -0.2486  0.2895 -0.2080
32216W        W48690  16.950  17.958  10.753 -0.0293 -0.3738 -0.0554
32217W        W48691  12.855   0.703  10.413 -0.2616  0.0870 -0.0729
32218W        W48692   7.471  12.626  12.405  0.2135 -0.1842  0.0782
32219W        W48693   0.925   3.947  14.586 -0.0982 -0.0648 -0.2306
32220W        W48694  11.908  11.100  14.702  0.0929  0.2121  0.0894
32221W        W48695  17.709  18.635  10.847  0.1164  0.2743  0.0083
32222W        W48696  14.588  13.668   4.366 -0.2052 -0.1935  0.0985
32223W        W48697  16.556  11.129  13.661  0.0938 -0.1716 -0.2289
32224W        W48698   4.202  13.548   1.203 -0.2328 -0.1681 -0.2929
32225W        W48699   5.692   5.188  11.203 -0.1890  0.0860 -0.2528
32226W        W48700   5.929  16.289  12.520 -0.0015  0.0584 -0.0703
32227W        W48701   4.687  12.999  11.319  0.0276  0.2615 -0.0462
32228W        W48702   4.730  12.149  12.107 -0.1404 -0.0783 -0.0131
32229W        W48703   8.185  12.508   0.646 -0.0014 -0.1713  0.0754
32230W        W48704   0.281  12.050  13.900 -0.1741 -0.2619 -0.0670
32231W        W48705  13.054   6.763  12.348  0.1507 -0.0452  0.0211
32232W        W48706   1.602  18.229   9.852 -0.0368  0.0801 -0.2154
32233W        W48707  16.925  11.284   1.389 -0.1664 -0.0620 -0.3002
32234W        W48708  11.625   5.593   4.533 -0.2497  0.3078  0.3814
32235W        W48709   8.246  13.997   4.469 -0.1433 -0.2417 -0.1064
32236W        W48710  17.738   3.308  13.460  0.1325 -0.0643 -0.0228
32237W        W48711  10.040  13.751   4.154  0.0534  0.3611  0.0905
32238W        W48712   2.788   1.566   4.890  0.1136  0.0789 -0.0214
32239W        W48713  13.981   5.140   3.199  0.0041  0.0462  0.1492
32240W        W48714   5.976   5.081  12.389 -0.0143  0.3107 -0.3603
32241W        W48715  12.580   3.473   4.399 -0.2376  0.1681  0.0813
32242W        W48716  13.189  11.679   0.603  0.3662  0.1437  0.0254
32243W        W48717  18.407  16.827  10.692  0.3440 -0.3433 -0.2238
32244W        W48718  18.839   6.878  13.399  0.1192  0.0857 -0.1996
32245W        W48719  18.546  19.108   3.149 -0.3316 -0.1649  0.3153
32246W        W48720   8.725  18.779   4.404  0.2460  0.1979  0.2390
32247W        W48721  13.481   7.938  11.667 -0.0929  0.0095  0.2505
32248W        W48722  12.382  15.489  11.724  0.2187  0.1874 -0.1247
32249W        W48723  18.080   1.944   2.250  0.1540  0.1416 -0.0949
32250W        W48724  11.246   8.752  13.871  0.5899 -0.2192  0.0118
32251W        W48725  14.018  10.768   0.664 -0.1663 -0.6175 -0.3051
32252W        W48726   8.847   9.803  11.607  0.3682 -0.0645  0.2178
32253W        W48727   6.183   0.662   2.172 -0.0246  0.0623 -0.1010
32254W        W48728  18.405  12.562  11.846  0.1379  0.0387  0.1472
32255W        W48729  19.193   8.920   4.039 -0.1020  0.0425 -0.0304
32256W        W48730   6.391  15.483   4.968 -0.0642 -0.1146 -0.0066
32257W        W48731   2.926  10.141   4.280  0.1254 -0.3032  0.0399
32258W        W48732   9.029   7.379   1.941 -0.0172 -0.2605  0.1378
32259W        W48733  10.349  17.604   3.477  0.2569  0.2549  0.1669
32260W        W48734   2.148   4.931   0.104 -0.0390 -0.0783 -0.2610
32261W        W48735  16.652   4.740  12.834  0.2827 -0.1210  0.0128
32262W        W48736  13.621  13.587  11.675  0.2061 -0.0895 -0.0241
32263W        W48737  11.504   1.252  14.549  0.3054  0.0506  0.1612
32264W        W48738  10.738   0.945  11.893  0.1295  0.2566 -0.0728
32265W        W48739  16.114  11.554  12.000 -0.0246 -0.0318 -0.1765
32266W        W48740   5.729   0.631   1.715  0.2001  0.1374 -0.0769
32267W        W48741   7.010  10.241  14.403  0.2085 -0.3062  0.0122
32268W        W48742  13.294   2.917   3.597  0.2373  0.1139  0.0883
32269W        W48743   1.213  12.570  13.128 -0.0445 -0.3489  0.1382
32270W        W48744  12.961  15.644   4.500 -0.1171  0.1180 -0.1990
32271W        W48745  16.031  11.638   5.030  0.3837  0.2362  0.0178
32272W        W48746  16.864   7.778   1.703  0.4937  0.3246  0.1546
32273W        W48747  15.376  19.379  11.722  0.0584 -0.1036 -0.0824
32274W        W48748   5.176   5.186   1.184 -0.1579  0.4343 -0.3459
32275W        W48749   2.889  11.135   3.249 -0.0442 -0.0243  0.0246
32276W        W48750   5.475  13.855   9.705  0.0181  0.2060 -0.0408
32277W        W48751   0.010   4.017  13.036 -0.2429 -0.0489  0.2475
32278W        W48752  16.811   0.926  11.141 -0.0303 -0.4991  0.0980
32279W        W48753   7.696   9.942   3.105 -0.1765 -0.2898 -0.0519
32280W        W48754   7.621   7.378   3.818 -0.0651 -0.1656 -0.0789
32281W        W48755  17.024  17.150  14.545 -0.1189  0.0435  0.2128
32282W        W48756   9.579  15.136  12.168  0.2516 -0.1543  0.0075
32283W        W48757  18.921  13.741   1.543  0.0579  0.0701  0.0831
32284W        W48758  13.708   0.375   1.975  0.0750  0.1963  0.2313
32285W        W48759  10.964  16.175  11.250 -0.1747  0.1054 -0.0049
32286W        W48760   6.884  14.235  13.860  0.1350  0.2276 -0.2018
32287W        W48761  18.911   8.095  13.097  0.1064 -0.2742 -0.1312
32288W        W48762   2.582  17.517  12.864  0.3909  0.1262 -0.0706
32289W        W48763  11.287   1.006   1.863 -0.0382 -0.0675  0.0522
32290W        W48764  13.373   9.694   0.541  0.1042  0.1312 -0.3305
32291W        W48765   8.634   6.179  13.596 -0.1284 -0.1007  0.1564
32292W        W48766  15.477  17.339  10.939 -0.1705  0.0103 -0.1909
32293W        W48767   0.205  17.320  12.014  0.3947 -0.2130  0.1042
32294W        W48768  17.070  17.693   4.144  0.2363  0.0807 -0.0295
32295W        W48769  17.638  13.330   2.195 -0.0511  0.0210 -0.0459
32296W        W48770  16.259  12.915   1.929  0.4837  0.4488  0.0809
32297W        W48771   1.753  10.929   2.545  0.2535 -0.0242  0.0192
32298W        W48772  18.881   5.495  14.335 -0.1811 -0.1745  0.1569
32299W        W48773   7.020  15.666   2.610 -0.3560 -0.2889  0.2846
32300W        W48774   8.402  15.557  14.295 -0.0825 -0.2114 -0.0285
32301W        W48775  16.886  15.991  10.456  0.2955  0.0351  0.2663
32302W        W48776   5.633  16.276   2.865  0.0799  0.0912  0.1526
32303W        W48777  12.171   1.338   1.840 -0.1292 -0.1112  0.0131
32304W        W48778   5.195  11.328   3.305 -0.1534 -0.2702  0.0273
32305W        W48779  16.050  18.126  13.329  0.1449  0.3029  0.2119
32306W        W48780  19.089   2.555   9.917 -0.1536 -0.0491  0.1302
32307W        W48781  15.381   2.502   2.716 -0.0345  0.2578 -0.0686
32308W        W48782   1.659   0.978   4.684  0.0503 -0.0882  0.0905
32309W        W48783   2.149  11.301  14.000  0.2359  0.0944 -0.0132
32310W        W48784   4.664  14.569  13.276 -0.1438  0.5661  0.0695
32311W        W48785  13.239   6.268   1.871 -0.0129  0.2005 -0.0961
32312W        W48786  10.646  17.113   2.703  0.2803 -0.2687  0.0138
32313W        W48787   5.554   6.621  12.993  0.0481 -0.0803 -0.1608
32314W        W48788   4.492   6.719  11.252  0.2258  0.0460 -0.0897
32315W        W48789   8.275  10.091  11.622  0.0651 -0.2650 -0.0186
32316W        W48790   1.695   3.325   3.879  0.1774  0.0628 -0.2494
32317W        W48791   2.243   8.289   4.298  0.1040 -0.0302  0.2622
32318W        W48792  11.846   9.058  12.949 -0.4165  0.0182  0.0035
32319W        W48793  16.926   4.901   5.387 -0.0554 -0.1103 -0.2610
32320W        W48794  10.198   2.543  11.849  0.2553 -0.0322  0.0668
32321W        W48795  16.470   7.857  13.228 -0.0179  0.1754 -0.0648
32322W        W48796   7.166   9.804  12.390  0.1689  0.0628  0.1749
32323W        W48797  14.340  10.520  11.707 -0.2351 -0.3414 -0.1164
32324W        W48798  17.286  12.950  13.733 -0.1250 -0.2212  0.1320
32325W        W48799  18.767   1.121  10.317 -0.1723  0.1201 -0.2158
32326ION     NA48800   0.745  16.355   4.946  0.0860  0.2345 -0.1617
32327ION     NA48801   5.067   2.120  12.736 -0.0005 -0.2811 -0.0461
32328ION     NA48802  10.265  11.955   9.584  0.0889 -0.0218  0.0329
32329ION     NA48803   5.675  19.530   4.782  0.2650 -0.2758  0.0689
32330ION     NA48804   1.733   5.675   5.292  0.1541 -0.0579 -0.0506
32331ION     NA48805  17.692   1.212   9.311 -0.0920  0.1073 -0.2070
32332ION     NA48806  16.841   8.233   1.161  0.1150 -0.0974 -0.1924
32333ION     NA48807  14.265   8.437  12.206  0.0040  0.0906 -0.2743
32334ION     NA48808   7.628   6.697   3.325  0.0718 -0.2986 -0.0325
32335ION     NA48809   3.731   8.456   5.444 -0.1588  0.0448 -0.2776
32336ION     NA48810   0.703  18.177   9.494 -0.1059  0.0361  0.0029
32337ION     NA48811   0.979  14.182   9.149 -0.0172 -0.2150 -0.1673
32338ION     NA48812   3.065   4.759  13.336 -0.1074 -0.0670  0.4675
32339ION     NA48813   0.807   0.365   9.228 -0.2277 -0.0970 -0.0568
32340ION     NA48814   0.025   9.341  13.411 -0.1134 -0.0530 -0.1702
32341ION     NA48815  16.565   4.571   0.931  0.0837 -0.1108  0.0659
32342ION     NA48816   8.589   0.909   4.042 -0.3681 -0.1110  0.1035
32343ION     NA48817   2.200  14.863  10.030  0.3728 -0.0944 -0.1993
32344ION     NA48818  17.711   7.307   4.612  0.1086  0.1240 -0.2321
32345ION     NA48819  12.920   1.066  12.689  0.1960  0.0985 -0.0681
32346ION     NA48820  19.087   0.145   3.928 -0.2504  0.0738  0.1568
32347ION     NA48821  19.571  13.751   5.227 -0.0042  0.2820  0.4506
32348ION     NA48822  11.679   3.522   4.448 -0.0890  0.0807  0.2072
32349ION     NA48823  10.354   6.508   1.477 -0.1346 -0.1785  0.0667
32350ION     NA48824   9.376   3.323   5.281 -0.2243  0.1808  0.2642
32351ION     NA48825  15.416   1.590   9.596 -0.2287  0.2508 -0.0904
32352ION     NA48826  18.595  13.061   9.345 -0.0276  0.1715  0.0088
32353ION     NA48827   6.422  15.118   4.597  0.2410 -0.0476  0.1267
32354ION     NA48828  11.500   5.849   5.444 -0.1535  0.3467  0.1107
32355ION     NA48829   3.499   7.628   9.589  0.2602 -0.1170  0.0695
32356ION     NA48830  18.752   4.488   4.458 -0.2580 -0.0797  0.1609
32357ION     NA48831  10.768  13.101   4.025  0.3795 -0.2725  0.0176
32358ION     NA48832   0.495   6.612   9.570 -0.1181  0.0209 -0.0275
32359ION     NA48833  18.083  12.237  12.195  0.3718  0.1552  0.3753
32360ION     NA48834  18.067  12.456   2.571  0.1614  0.0474  0.3420
32361ION     NA48835   2.845   1.788   9.402  0.1781 -0.2391 -0.0379
32362ION     NA48836   9.647   1.953   3.138 -0.2074 -0.0917  0.0850
32363ION     NA48837  16.380   0.119   4.973  0.0230 -0.1291 -0.1748
32364ION     NA48838   0.470  15.122   9.380  0.2612 -0.2564 -0.0407
32365ION     NA48839  10.622  15.933   9.350  0.2525  0.0862 -0.2818
32366ION     NA48840   3.760   1.272   3.137 -0.0878 -0.1941  0.0450
32367ION     NA48841   7.453   0.576   4.275  0.4594  0.3175 -0.0090
32368ION     NA48842   2.135  17.912   8.904 -0.3368 -0.0735 -0.0017
32369ION     NA48843   9.791  13.090   0.478  0.1839  0.0597 -0.1065
32370ION     NA48844   9.606  15.781   9.325 -0.1074  0.2007  0.1952
32371ION     NA48845   0.473  12.883   9.116  0.0616  0.2238  0.2857
32372ION     NA48846   4.896  11.592  14.596  0.3155 -0.1294 -0.1864
32373ION     NA48847  10.853   3.318  11.657  0.1548  0.2237  0.0513
32374ION     NA48848   1.429  10.635   2.822 -0.1169 -0.2355  0.3463
32375ION     NA48849   6.579   0.768   4.274 -0.0481 -0.0031  0.0369
32376ION     NA48850  17.021   0.967  14.443  0.1076  0.0160  0.0646
32377ION     NA48851   9.330   6.756   5.549 -0.1391  0.0856 -0.0541
32378ION     NA48852   4.570  17.229   9.119  0.1920  0.3151  0.1618
32379ION     NA48853   1.559   4.838   9.769  0.1147  0.1077 -0.0072
32380ION     NA48854   1.972  16.011  13.848  0.0794 -0.2918  0.0847
32381ION     NA48855  15.719  10.078   5.325  0.1113 -0.2594  0.3236
32382ION     NA48856   9.329   1.963  13.256 -0.0158 -0.0053  0.3491
32383ION     NA48857   7.732  18.417  12.713  0.0163  0.1807 -0.1486
32384ION     NA48858  17.352   7.915  11.988 -0.1606  0.1691 -0.1618
32385ION     NA48859   5.817   6.614   9.765 -0.0465  0.1793  0.0016
32386ION     NA48860  16.013   4.144  12.235 -0.4304  0.3560  0.0812
32387ION     NA48861   0.138  17.560   4.615 -0.1726  0.0661 -0.2542
32388ION     NA48862   9.818   7.469  14.283  0.0157 -0.1174  0.0658
32389ION     NA48863   7.600   4.775   1.909 -0.0600 -0.2447  0.0285
32390ION     NA48864  13.316   3.314   9.269 -0.3433 -0.0764  0.0472
32391ION     NA48865  10.357   7.801   5.742 -0.1074  0.1311 -0.0015
32392ION     NA48866  13.204  17.981   9.648  0.1462 -0.0694 -0.1074
32393ION     NA48867   0.911  10.780  13.023  0.0025 -0.0863 -0.0302
32394ION     NA48868   4.677  14.414   8.849  0.2248  0.0905  0.2171
32395ION     NA48869  13.164   6.014  10.507  0.0185 -0.0860  0.0873
32396ION     NA48870   2.093  11.882   2.556  0.0108 -0.0090  0.4512
32397ION     NA48871  13.805   4.161   9.485  0.1577  0.0477  0.0894
32398ION     NA48872  19.165   4.747   1.539 -0.1240 -0.0983 -0.1700
32399ION     NA48873   9.060   3.663   1.701  0.3266 -0.0077  0.1219
32400ION     NA48874   2.449   1.576  14.416 -0.0207  0.0009 -0.1999
32401ION     NA48875   6.342   1.384   4.834  0.2335 -0.0824  0.0882
32402ION     NA48876  17.597  12.539   9.845  0.0984  0.3561 -0.1019
32403ION     NA48877  11.246  11.883   5.365 -0.2086 -0.0866 -0.0838
32404ION     NA48878   2.758  17.389   9.229 -0.1837 -0.0602  0.2162
32405ION     NA48879   0.292  14.191   8.996 -0.0775 -0.2930  0.1261
32406ION     NA48880   9.122  11.899  11.793  0.0015 -0.0787 -0.1414
32407ION     NA48881   4.106  15.069   9.181 -0.2105  0.0711  0.0844
32408ION     NA48882  16.713  15.158   9.321  0.1305  0.1189  0.1016
32409ION     NA48883   8.498   3.532  12.074  0.1295 -0.2249  0.0933
32410ION     NA48884  13.575  16.085  11.909  0.0053  0.2103 -0.1719
32411ION     NA48885  18.698   3.643   4.775  0.3755 -0.0375  0.2092
32412ION     NA48886  16.292  15.939   9.426 -0.2415 -0.0531 -0.1040
32413ION     NA48887  10.888  12.515   0.830  0.2294  0.0147  0.3014
32414ION     NA48888   3.193  10.340   9.615  0.1223  0.2242  0.2408
32415ION     NA48889  12.804  18.704   9.396  0.0259 -0.2040 -0.3571
32416ION     NA48890   0.418  10.889   5.386  0.0518 -0.4323 -0.1498
32417ION     NA48891   7.633   0.321  14.453 -0.0387  0.0356 -0.2644
32418ION     NA48892   1.253   7.071   2.322 -0.4347  0.3255 -0.1255
32419ION     NA48893  15.384  15.387  13.617  0.1989  0.0106  0.1341
32420ION     NA48894  12.901   7.845  10.419 -0.0461  0.1185 -0.0107
32421ION     NA48895   8.127   7.009   9.827 -0.1054  0.3167 -0.1755
32422ION     NA48896  16.420   2.486   9.492 -0.1137 -0.2527 -0.1124
32423ION     NA48897   0.692  14.707   4.214 -0.0060  0.2844 -0.1549
32424ION     NA48898   8.135  17.836   9.474  0.0411  0.2844  0.0871
32425ION     NA48899  14.166  11.789   2.190 -0.3798  0.1063  0.0677
32426ION     NA48900   6.916   3.029   5.176 -0.0967 -0.2168 -0.3944
32427ION     NA48901   2.137  12.087   9.463 -0.1879  0.1587 -0.1915
32428ION     NA48902  19.238   3.227   0.294 -0.2688 -0.1681 -0.1893
32429ION     NA48903  14.741  12.560  14.131  0.0274  0.1714  0.1433
32430ION     NA48904   5.892  15.429   3.105  0.0311 -0.1630  0.1471
32431ION     NA48905   6.672  16.281  13.247  0.2010 -0.4358  0.4225
32432ION     NA48906   0.205   7.597   2.853  0.2120  0.1472 -0.1335
32433ION     NA48907   5.996   6.304   5.529 -0.0383 -0.6012 -0.0096
32434ION     NA48908  15.989  15.342   0.399 -0.1129 -0.1217  0.1176
32435ION     NA48909   4.235  18.742   2.269  0.0345  0.0046  0.4177
32436ION     NA48910  16.426  12.030   5.142  0.0054 -0.0529 -0.0060
32437ION     NA48911  11.173  12.563  11.936 -0.0375 -0.2711 -0.1961
32438ION     NA48912  16.446   9.659  10.134  0.1609  0.1408 -0.4442
32439ION     NA48913  19.267  13.084   1.195 -0.3778 -0.1231  0.2522
32440ION     NA48914  14.313  10.255  13.432 -0.0636  0.0938 -0.2612
32441ION     NA48915   2.772  16.128   8.776 -0.0184 -0.0257 -0.5233
32442ION     NA48916   4.728   2.845   2.052 -0.4083  0.2700  0.0679
32443ION     NA48917  15.158   8.291   3.029 -0.1088 -0.1178  0.2206
32444ION     NA48918  11.409   6.402   2.999 -0.3390  0.1334  0.3083
32445ION     NA48919  10.648  17.442   9.411 -0.3520  0.2819  0.0330
32446ION     NA48920   3.296  16.110  12.289  0.1468 -0.1501  0.2025
32447ION     NA48921  12.801  18.082   5.181 -0.0104 -0.1327  0.1128
32448ION     NA48922  14.198  11.816   3.206 -0.0639  0.1973  0.4522
32449ION     NA48923  17.742  18.136  10.848  0.0379 -0.1462 -0.0854
32450ION     NA48924  18.905  19.555   1.614  0.3820  0.2697  0.3910
32451ION     NA48925  17.394   9.326   4.839  0.2963 -0.3177  0.0865
32452ION     NA48926  14.180   5.499   9.781  0.0281  0.0668  0.0249
32453ION     NA48927  19.495   5.161   5.347 -0.1061 -0.2620  0.0189
32454ION     NA48928   0.112  16.660   9.667  0.0685  0.0529 -0.0834
32455ION     NA48929  17.716   4.627   9.808  0.0233  0.2416  0.1224
32456ION     NA48930  12.488  10.149   5.786  0.1700 -0.0396  0.0836
32457ION     NA48931   7.027  10.474   1.531 -0.1448  0.1974  0.1574
32458ION     NA48932   1.559  15.245   2.641  0.0986  0.0843 -0.1217
32459ION     NA48933  10.928   6.455  12.959  0.4986 -0.2349  0.0052
32460ION     NA48934  19.105  10.588   5.445  0.3680 -0.2749 -0.1880
32461ION     NA48935  14.369  17.205   5.034 -0.0366 -0.1934  0.1673
32462ION     NA48936  17.843   6.323  11.091 -0.4515  0.0313 -0.2290
32463ION     NA48937  11.255  15.319  13.087 -0.0465 -0.2318 -0.1840
32464ION     NA48938   9.431   0.820   4.627 -0.0982  0.1090 -0.2157
32465ION     NA48939  12.541   9.662  10.193  0.4828 -0.2463  0.1375
32466ION     NA48940   2.482  13.994   9.277  0.2696  0.0219  0.0587
32467ION     NA48941  17.687  15.199  13.144 -0.2642 -0.1118  0.1139
32468ION     NA48942   3.239   7.225   0.672 -0.4090  0.1631 -0.1821
32469ION     NA48943   7.263  11.258   9.441  0.1779 -0.1558 -0.0082
32470ION     NA48944   2.388   6.274   9.779  0.0028 -0.1693  0.1131
32471ION     NA48945  13.290  12.455   4.931 -0.0810  0.3616  0.1077
32472ION     NA48946  11.215   0.284  12.360 -0.1192 -0.0393  0.1297
32473ION     NA48947   5.523  16.603  13.780  0.1021  0.2466  0.1891
32474ION     NA48948  16.247   8.907   0.989 -0.2798  0.2210 -0.2183
32475ION     NA48949   8.868  11.105   9.858  0.1051  0.0960 -0.0262
32476ION     NA48950  10.219   2.946  13.902  0.1192 -0.2322  0.0576
32477ION     NA48951  19.115   9.980   9.922 -0.1398  0.1930 -0.1439
32478ION     NA48952  12.541   7.136   0.956 -0.2832 -0.0132  0.0267
32479ION     NA48953   1.614   4.905   4.312  0.1135  0.1798 -0.1513
32480ION     NA48954  10.201   9.027   9.513  0.0742 -0.3134  0.4332
32481ION     NA48955  17.825  11.080   1.869 -0.2537  0.2824  0.2694
32482ION     NA48956  11.845   1.065   3.215  0.0309  0.0794 -0.2947
32483ION     NA48957  17.146   8.198   2.749 -0.0487 -0.1365 -0.2151
32484ION     NA48958  11.753   1.639   5.402 -0.3072 -0.2353  0.1623
32485ION     NA48959  11.270  13.594  10.997  0.0020  0.0316 -0.0262
32486ION     NA48960   4.286   8.389   9.386  0.0978 -0.1503 -0.0191
32487ION     NA48961  10.003  19.371  12.528 -0.0246 -0.3306  0.0082
32488ION     NA48962   8.999  17.666   5.157  0.1406 -0.0812 -0.1996
32489ION     NA48963   9.035  12.580   3.174  0.1018 -0.4712  0.1085
32490ION     NA48964   6.069   7.608   9.813 -0.1242 -0.2532  0.1637
32491ION     NA48965  12.466  16.393   9.336  0.4166 -0.1647 -0.2333
32492ION     NA48966   2.683  13.527  14.430  0.1918  0.2456 -0.1104
32493ION     NA48967  16.856  14.038   2.017  0.0863 -0.1817 -0.0008
32494ION     NA48968   6.452   2.478   9.439  0.3500 -0.1249  0.1050
32495ION     NA48969  13.256  14.864   4.944 -0.3314  0.0643 -0.3352
32496ION     NA48970   9.859  18.992   1.336 -0.1193  0.2714 -0.3495
32497ION     NA48971   0.263   3.507   9.497  0.0034 -0.1319  0.1559
32498ION     NA48972  13.396  19.412  13.850 -0.3699 -0.1639 -0.2777
32499ION     NA48973  17.959   5.670   4.927 -0.0577  0.1576  0.2128
32500ION     NA48974   3.681   9.619   9.474 -0.1149  0.0854 -0.0753
32501ION     NA48975  10.465   3.400   9.735  0.0703 -0.1882 -0.0273
32502ION     NA48976   0.857  16.830  11.782  0.1595  0.2007 -0.1391
32503ION     NA48977   4.181   1.695   1.433 -0.1456  0.3238  0.0072
32504ION     NA48978   4.109   7.413  14.311  0.0170  0.1788 -0.1063
32505ION     NA48979  11.864  10.423  10.290  0.1869  0.1154  0.0786
32506ION     NA48980  11.052  16.081   2.359 -0.0672  0.4131 -0.1289
32507ION     NA48981  13.822  14.353   9.751  0.0879 -0.1907 -0.0213
32508ION     NA48982  17.029   6.109   9.552  0.0607  0.1386 -0.0713
32509ION     NA48983   7.284   0.734   9.147 -0.0701  0.0674 -0.2622
32510ION     NA48984   8.496  14.740   9.772 -0.0497 -0.1984  0.0796
32511ION     NA48985  19.034  19.503   4.955  0.0069 -0.0189  0.1548
32512ION     NA48986   9.977   7.224   9.486  0.1161  0.0245  0.3452
32513ION     NA48987   3.372   2.889  14.410 -0.2461 -0.1439 -0.1720
32514ION     NA48988   9.684  19.439   5.089 -0.1509  0.1705 -0.5533
32515ION     NA48989  10.512   7.306   9.916 -0.0487 -0.2543 -0.1834
32516ION     NA48990   8.201  11.785  12.294 -0.3026 -0.1094  0.0295
32517ION     NA48991  13.994   4.663  10.663 -0.0644  0.1674 -0.1901
32518ION     NA48992   1.666   3.970   4.521 -0.2733 -0.2812 -0.1569
32519ION     NA48993   6.215  18.859   2.511 -0.4202  0.0602  0.2773
32520ION     NA48994   7.344   6.311   1.412  0.1599  0.1561 -0.0315
32521ION     NA48995  15.693  14.111   9.649  0.1280  0.1272  0.2634
32522ION     NA48996  10.437  19.010   9.455 -0.0796 -0.1369 -0.1914
32523ION     NA48997  10.471  19.420   2.272 -0.0689  0.2401  0.3905
32524ION     NA48998   7.273   6.321   4.432  0.3897  0.3047 -0.0077
32525ION     NA48999   7.073   8.357   2.019 -0.2473 -0.1833  0.1471
32526ION     NA49000   7.360  18.528   9.255 -0.0098 -0.0224  0.2114
32527ION     NA49001   0.841   7.374   9.957 -0.2317 -0.1873  0.0832
32528ION     NA49002   8.614  11.900   9.449 -0.0098  0.1103 -0.0938
32529ION     NA49003  18.167   2.705   9.431  0.3178  0.0787 -0.0909
32530ION     NA49004  11.495  11.072   9.965  0.0492 -0.2984  0.1217
32531ION     NA49005  19.262  12.076  10.292  0.0880  0.3511 -0.0906
32532ION     NA49006  18.950  13.015   3.186  0.1124 -0.1429 -0.1389
32533ION     NA49007   6.049   5.126   0.397  0.1971 -0.0345 -0.0126
32534ION     NA49008   5.384  11.385   3.794 -0.0390  0.1920 -0.0926
32535ION     NA49009   1.045   2.999   9.449  0.2104 -0.2617  0.1092
32536ION     NA49010  11.606  14.393   9.945 -0.0796 -0.0374 -0.0888
32537ION     NA49011   5.167   7.353   9.454  0.2165 -0.1628  0.1764
32538ION     NA49012  14.497   5.602  13.270 -0.0979 -0.1684 -0.0202
32539ION     NA49013   6.958   8.967  13.376 -0.2192  0.1189  0.3635
32540ION     NA49014   9.302   3.383  13.290  0.0175  0.4424  0.1627
32541ION     NA49015   4.501   5.026   5.404 -0.4394 -0.2050 -0.0329
32542ION     NA49016   1.370   7.053   5.294  0.0699  0.0390 -0.0190
32543ION     NA49017   5.727  19.320   3.366  0.2136 -0.1345  0.0742
32544ION     NA49018  14.209   4.420   4.686  0.5070  0.0199 -0.0388
32545ION     NA49019   7.684   3.699  13.466 -0.1229  0.1215 -0.2527
32546ION     NA49020   7.895   3.130  10.203 -0.1765  0.1148 -0.0461
32547ION     NA49021  10.067  10.624   0.788  0.1568  0.2857  0.2035
32548ION     NA49022  12.383   3.401   9.523  0.0425 -0.0800 -0.0971
32549ION     NA49023   8.421   4.289  11.530  0.1986  0.0444 -0.1466
32550ION     NA49024  15.370   4.298  10.081  0.2515  0.1057  0.0944
32551ION     NA49025  16.433   1.630  12.940 -0.1203  0.1004 -0.0589
32552ION     NA49026  19.271   1.810   2.649  0.2176 -0.2590  0.0123
32553ION     NA49027  14.922   6.711  11.822  0.2272  0.2363 -0.0235
32554ION     NA49028  10.942  13.296   9.778 -0.0096 -0.0759 -0.1030
32555ION     NA49029   6.127   8.543  14.656  0.2461 -0.1944  0.1394
32556ION     NA49030   2.308  15.073   3.209 -0.0187 -0.0676  0.0918
32557ION     NA49031   8.754   3.765   0.029 -0.1141 -0.2420  0.0012
32558ION     NA49032  16.025   9.585   5.530  0.2485 -0.1226  0.1190
32559ION     NA49033  14.921   2.724   1.445 -0.0024  0.2313 -0.0520
32560ION     NA49034  11.635   9.372   3.371  0.4915 -0.1588  0.4014
32561ION     NA49035   7.597  19.522   8.995  0.0710 -0.4174 -0.1243
32562ION     NA49036   8.833  11.295  11.044  0.0165 -0.0965 -0.0502
32563ION     NA49037   5.606   1.962   9.547 -0.0387  0.3581  0.2218
32564ION     NA49038   2.215   0.332   4.737  0.0808  0.3012  0.0402
32565ION     NA49039  12.529   5.240  10.265 -0.1909 -0.0855  0.0176
32566ION     NA49040  15.308  12.944   9.811 -0.1593 -0.2964  0.0540
32567ION     NA49041  12.563   9.463   5.787 -0.0397  0.4137 -0.1653
32568ION     NA49042  10.986   5.768   9.898 -0.1399  0.3291 -0.1090
32569ION     NA49043  10.739  16.314  12.477 -0.1759 -0.1830 -0.0332
32570ION     NA49044   8.321  15.458   1.319  0.2017 -0.1837  0.2199
32571ION     NA49045   6.940  16.703   2.538 -0.1852 -0.0805 -0.2609
32572ION     NA49046  19.154   8.049  12.092 -0.1854  0.0952 -0.0104
32573ION     NA49047  14.650  14.209  11.925  0.1291  0.3509  0.1816
32574ION     NA49048  10.237   8.159   1.150 -0.3202 -0.4365 -0.0301
32575ION     NA49049   9.473   6.260   4.800  0.2594  0.3223  0.1384
32576ION     NA49050   6.402   0.245  14.688  0.2407  0.1034 -0.0302
32577ION     NA49051   3.133   0.076   4.866 -0.1683 -0.1454 -0.0232
32578ION     NA49052  13.454  12.226  10.116 -0.1146  0.0030  0.4112
32579ION     NA49053   8.514   5.399   3.570 -0.0085 -0.0099  0.1098
32580ION     NA49054  18.617   6.761  13.814  0.2187  0.1125  0.0052
32581ION     NA49055   4.579  18.069   9.447 -0.0760 -0.1579  0.1620
32582ION     NA49056  10.054   1.116   5.270  0.3617 -0.1779  0.1131
32583ION     NA49057   5.511   2.280   5.434  0.1132  0.1256  0.3298
32584ION     NA49058  17.524  17.481   9.552 -0.0186 -0.1293 -0.1592
32585ION     NA49059   4.764   9.157   9.440  0.1584 -0.0110  0.0560
32586ION     NA49060   8.053   9.529  14.138  0.1486 -0.0566 -0.2923
32587ION     NA49061   2.858  18.935   1.069 -0.1716 -0.1381  0.1117
32588ION     NA49062  19.429   8.618   9.875 -0.1327  0.0609  0.2575
32589ION     NA49063  15.551  11.791   5.217  0.0481  0.0733  0.0373
32590ION     NA49064  19.419   3.942   0.979 -0.1260 -0.1702 -0.1365
32591ION     NA49065   6.009  17.921   1.348 -0.2017 -0.0312  0.2208
32592ION     NA49066   4.020  16.500   9.251 -0.1361  0.1204 -0.0541
32593ION     NA49067  10.889  11.595  13.933 -0.2359  0.0975  0.2835
32594ION     NA49068   8.783   6.432  10.351 -0.0789  0.0631 -0.1415
32595ION     NA49069  10.898  14.266   5.364 -0.2225 -0.0664  0.2645
32596ION     NA49070   6.334   6.044  13.757 -0.2143 -0.3196  0.0791
32597ION     NA49071   8.186  15.951   5.022  0.4298  0.0508 -0.2672
32598ION     NA49072   2.650   8.654   5.146 -0.3272  0.0837  0.1151
32599ION     NA49073   4.490  10.793   9.592 -0.3174  0.2607  0.1694
32600ION     NA49074  11.784  15.091   9.578  0.0864 -0.2469  0.1005
32601ION     NA49075  13.865  13.147   4.039  0.3308  0.0816  0.1346
32602ION     NA49076  16.432   1.995   5.325 -0.0030  0.1330 -0.0427
32603ION     NA49077   2.043   9.270   0.499 -0.2529  0.2172  0.0807
32604ION     NA49078  10.169   0.056  13.977 -0.3119 -0.0653  0.3420
32605ION     NA49079  11.452  17.807   5.118 -0.1010 -0.1905  0.0673
32606ION     NA49080  10.588   8.308   9.769 -0.0389 -0.1299  0.2031
32607ION     NA49081   7.811  17.161  12.322  0.3002 -0.1556 -0.0896
32608ION     NA49082   6.793   4.630   2.197 -0.1683 -0.4344 -0.0272
32609ION     NA49083  15.799   5.397  13.970 -0.2566  0.1582  0.0373
32610ION     NA49084   3.010   6.382  13.729  0.0550  0.0807 -0.4512
32611ION     NA49085   1.886  15.698   9.035 -0.2479  0.1821  0.0792
32612ION     NA49086  16.568   7.015   9.966  0.1284  0.1667 -0.0610
32613ION     NA49087   0.700  13.682   5.185  0.0787 -0.3979  0.0468
32614ION     NA49088  17.414  12.759  12.022  0.3371  0.1744  0.0255
32615ION     NA49089   1.794  18.392   4.996  0.0127  0.1068  0.0725
32616ION     NA49090  14.818  13.626  14.336 -0.4046 -0.2011  0.2691
32617ION     NA49091   8.845   2.838   4.568 -0.1177 -0.1956  0.4227
32618ION     NA49092  12.944  14.187   4.391  0.0857  0.4337  0.0221
32619ION     NA49093   1.735  14.912  12.201 -0.1853 -0.2754  0.3684
32620ION     NA49094   6.376  12.966   9.090  0.0128  0.1966 -0.2672
32621ION     NA49095  15.710  18.513   1.291 -0.1419 -0.0764  0.0521
32622ION     NA49096  15.639   4.241   1.675 -0.3863  0.2655 -0.3422
32623ION     NA49097  14.197   1.669   4.591  0.0743 -0.2757 -0.1607
32624ION     NA49098   0.441   5.197   5.418 -0.0508 -0.2278 -0.0404
32625ION     NA49099   2.545  11.323   9.747 -0.1052  0.1600  0.1288
32626ION     NA49100  18.305  12.453  10.180 -0.0782 -0.1106  0.0279
32627ION     NA49101  11.479   3.452   1.672 -0.4557  0.0373 -0.2726
32628ION     NA49102   3.794  17.326   4.611  0.0405 -0.0831  0.1158
32629ION     NA49103  16.274   3.283  12.885 -0.2887  0.0089  0.0804
32630ION     NA49104   0.356   5.843   3.762  0.0017  0.1643  0.5556
32631ION     NA49105  19.295   1.271  13.408 -0.1571  0.1486 -0.1289
32632ION     NA49106  12.288  11.904   5.540  0.2362 -0.3274 -0.1213
32633ION     NA49107   8.852  14.320   1.208  0.0990  0.1889 -0.1006
32634ION     NA49108   9.491   7.634   5.816 -0.3381  0.1810  0.1750
32635ION     NA49109  18.200   7.994   5.738 -0.1775  0.2309 -0.1007
32636ION     NA49110   5.085  18.300   1.995 -0.2471 -0.0592 -0.1630
32637ION     NA49111  13.391  18.023   4.870  0.1788 -0.0765  0.0213
32638ION     NA49112  11.858  13.301   9.932 -0.1771  0.0545 -0.0820
32639ION     NA49113   9.186  17.597   9.756 -0.0449 -0.1231  0.1220
32640ION     NA49114  18.123  17.222   1.945  0.0576 -0.1195 -0.0289
32641ION     NA49115   2.194  13.546   4.535 -0.0900  0.3188 -0.1670
32642ION     NA49116   0.832  11.670   1.421  0.3466 -0.3242 -0.1691
32643ION     NA49117  14.307   8.658   1.301 -0.1706  0.0476  0.4517
32644ION     NA49118   7.455   9.710   5.340  0.2404 -0.1427 -0.1517
32645ION     NA49119   0.426  19.244   3.823 -0.0918  0.1801 -0.0941
32646ION     NA49120   8.059   8.272   4.072 -0.2076  0.0912 -0.3764
32647ION     NA49121   4.228   7.171   0.415 -0.0201 -0.1527 -0.1823
32648ION     NA49122  15.977   2.170   2.608  0.3615 -0.1064  0.1852
32649ION     NA49123   7.776  14.240   9.081  0.3619  0.1478  0.0863
32650ION     NA49124   3.184  14.174  12.178 -0.0993  0.0577  0.1533
32651ION     NA49125  16.483  17.072   9.350 -0.0971 -0.1295 -0.1230
32652ION     NA49126   2.818  12.851   4.908 -0.0566 -0.0284 -0.0434
32653ION     NA49127  10.569  17.976   0.724  0.0177 -0.0057 -0.1146
32654ION     NA49128   5.121  16.662   1.263 -0.0933  0.3700 -0.2631
32655ION     NA49129  17.220   4.551   9.736 -0.0016 -0.0426  0.4097
32656ION     NA49130  18.039   1.133   2.633  0.0977  0.0089  0.1897
32657ION     NA49131  11.374  15.216  10.264 -0.3462  0.2651 -0.1875
32658ION     NA49132   7.604  16.424  11.625 -0.1692 -0.3120 -0.0866
32659ION     NA49133  16.477   1.665   9.650  0.1626 -0.0377 -0.0433
32660ION     NA49134   1.289   3.236  12.539  0.3898 -0.0699 -0.1267
32661ION     NA49135   2.648  13.919  12.994 -0.1457  0.0912 -0.1828
32662ION     NA49136  18.755  19.431   9.177 -0.0249 -0.1278 -0.1163
32663ION     NA49137   6.111   8.511   5.607 -0.2673  0.1441  0.0013
32664ION     NA49138  15.184  14.869   9.636 -0.0192  0.3577 -0.1299
32665ION     NA49139  11.986  12.742   4.045  0.0368 -0.2316  0.0108
32666ION     NA49140   1.064   8.167   0.039 -0.0454 -0.2019 -0.0560
32667ION     NA49141   5.849  11.131   5.347  0.2011 -0.1029  0.0669
32668ION     NA49142   2.202   4.781   5.558  0.1788 -0.2118 -0.0043
32669ION     NA49143  16.854  14.102   2.992 -0.0217 -0.1055  0.0762
32670ION     NA49144  19.358   4.179  11.741  0.0964  0.0089 -0.1272
32671ION     NA49145  11.313   2.388   5.318  0.0799  0.1805 -0.2587
32672ION     NA49146   9.730  11.257   9.466  0.1209  0.0375  0.0999
32673ION     NA49147   1.951  14.581  14.309 -0.1184 -0.0360 -0.0772
32674ION     NA49148   7.459  14.539   0.349 -0.1559 -0.3035 -0.1519
32675ION     NA49149  16.809  14.531   1.046  0.0095  0.1219  0.1842
32676ION     NA49150   7.777  17.720   4.002  0.0783  0.0499 -0.0749
32677ION     NA49151  18.416  14.616   9.445  0.1103 -0.1929 -0.3062
32678ION     NA49152   0.617  17.995   0.097 -0.1338 -0.2576  0.1704
32679ION     NA49153   6.469   1.582   0.461 -0.1339  0.0840 -0.1657
32680ION     NA49154  19.341   3.939   5.159  0.0580 -0.0247 -0.3317
32681ION     NA49155  14.803   6.899   9.835 -0.2434 -0.0945 -0.2676
32682ION     NA49156  13.416  15.865  13.348  0.0733 -0.0440  0.2500
32683ION     NA49157  18.717   8.937  10.076 -0.1945 -0.0508 -0.1307
32684ION     NA49158   9.656  17.592   4.388  0.3911 -0.0305  0.0792
32685ION     NA49159   3.702  15.454   3.970 -0.0461 -0.0299 -0.2233
32686ION     NA49160  13.325  14.853   9.465  0.0710  0.0080  0.3677
32687ION     NA49161  11.168  10.115   3.316  0.2238  0.2181  0.3119
32688ION     NA49162   1.830  14.789   4.829 -0.3124  0.0469 -0.0818
32689ION     NA49163   5.346   6.632  12.530 -0.0704 -0.0946 -0.0267
32690ION     NA49164  18.232   1.337   4.650 -0.1780  0.0531 -0.2212
32691ION     NA49165   9.976   6.038   5.882  0.1990 -0.0128 -0.1945
32692ION     NA49166   6.338   9.968   2.759 -0.0854 -0.0118  0.0733
32693ION     NA49167   4.903  14.858  14.536 -0.0242 -0.2083  0.0369
32694ION     NA49168  13.104   2.727  12.413 -0.1030  0.0835 -0.2192
32695ION     NA49169   1.645  11.153   9.353 -0.0452  0.2792 -0.0070
32696ION     NA49170  10.970   0.862   3.509  0.1549  0.1110 -0.1845
32697ION     NA49171  12.313  11.165   9.815  0.2268  0.4138 -0.1258
32698ION     NA49172  13.303  13.073   9.793  0.0871  0.0612 -0.0401
32699ION     NA49173   0.844   9.240   9.692  0.0365 -0.2589  0.0441
32700ION     NA49174  14.317  17.533  14.689 -0.0926 -0.2709  0.1517
32701ION     NA49175  12.018   1.964   5.057  0.1155  0.0576 -0.0350
32702ION     NA49176  16.471  14.450  13.217  0.1430  0.0840  0.0804
32703ION     NA49177   9.845   3.377   2.294 -0.0441 -0.0974  0.3011
32704ION     NA49178  13.961   2.103  12.476  0.1262  0.0948 -0.0106
32705ION     NA49179   9.035   5.430   9.752  0.1263 -0.1312 -0.1538
32706ION     NA49180   1.909  18.709   8.859  0.0276  0.0422  0.3218
32707ION     NA49181  14.382  15.250   9.403 -0.0339 -0.2093  0.0471
32708ION     NA49182   9.460  12.640  14.317 -0.2221 -0.0020 -0.0580
32709ION     NA49183  12.584  10.807   1.605 -0.0521 -0.0117  0.0041
32710ION     NA49184  11.705   7.061   5.787  0.1573 -0.0611 -0.0997
32711ION     NA49185  16.194   8.793   9.733  0.0296  0.0110  0.0137
32712ION     NA49186   5.525  17.404   9.372 -0.2972  0.1027  0.1649
32713ION     NA49187   7.592  16.945   9.368  0.1578  0.2292 -0.2487
32714ION     NA49188   2.837   6.362   1.296  0.0215 -0.1051 -0.4910
32715ION     NA49189  13.836  12.182   5.108  0.0246  0.2853  0.1046
32716ION     NA49190   5.938  17.556   2.715  0.2354  0.0477  0.0738
32717ION     NA49191   7.473  19.440  12.214  0.2129 -0.2371  0.2105
32718ION     NA49192   4.286   7.274  12.520  0.0997  0.2803  0.0150
32719ION     NA49193   4.406  17.899   4.353 -0.0167 -0.2517 -0.1006
32720ION     NA49194  19.204   1.445   0.259 -0.2612  0.1805 -0.3231
32721ION     NA49195   5.331  10.050   5.527 -0.1006  0.1772 -0.2672
32722ION     NA49196   5.932   9.011   3.507  0.0869 -0.1238  0.2157
32723ION     NA49197   7.908  14.746   1.206  0.1644  0.1566  0.0528
32724ION     NA49198  15.553  19.349   4.683 -0.0389 -0.2232  0.0950
32725ION     NA49199   0.535   3.699   4.784  0.0675 -0.0182  0.1950
32726ION     NA49200  10.922  19.110  12.137  0.1614 -0.0013 -0.0322
32727ION     NA49201  18.025  14.555   3.459 -0.0457  0.2670 -0.3260
32728ION     NA49202  11.776   8.560  10.141  0.1335 -0.2914  0.3587
32729ION     NA49203   4.963  14.586   4.758 -0.2181 -0.2937  0.0819
32730ION     NA49204   7.290   8.934   9.954  0.0106 -0.1565 -0.0783
32731ION     NA49205  14.402   9.492  14.180 -0.1665  0.0642  0.3563
32732ION     NA49206   5.624   2.924   9.465  0.0024 -0.1368 -0.0594
32733ION     NA49207   6.211   3.262   1.214 -0.2949  0.1278  0.1918
32734ION     NA49208  14.514  11.477   1.917  0.0757  0.1999  0.0765
32735ION     NA49209   5.577   4.410   3.627  0.0616 -0.0075  0.0709
32736ION     NA49210  10.296  15.742   5.319 -0.3566  0.0050  0.1998
32737ION     NA49211  14.216  14.622   5.330 -0.1997  0.1209  0.1681
32738ION     NA49212  15.824   6.412   1.527  0.1369 -0.0559  0.0326
32739ION     NA49213   6.001   3.440   9.586  0.2810 -0.0423 -0.1843
32740ION     NA49214   7.177   4.878   0.993  0.0637  0.1525  0.0628
32741ION     NA49215  18.622  11.499   9.737 -0.0665  0.2092  0.0375
32742ION     NA49216   0.568   4.611  13.971  0.7040 -0.3454 -0.0122
32743ION     NA49217  10.955   9.648   9.884  0.1516  0.0210 -0.2083
32744ION     NA49218   9.477  13.500   9.452 -0.1828 -0.2933 -0.0047
32745ION     NA49219  18.212   8.391  10.793 -0.2405  0.3209 -0.1236
32746ION     NA49220   4.185   3.996  14.221 -0.2768 -0.0535 -0.2062
32747ION     NA49221  15.664   8.095   9.797 -0.1282 -0.1020  0.1067
32748ION     NA49222   4.874  13.108   9.120  0.3323  0.4461 -0.1633
32749ION     NA49223  11.544   9.533  14.262 -0.0217  0.0760  0.1515
32750ION     NA49224   8.119   1.741   9.406  0.0608 -0.1079  0.1120
32751ION     NA49225  16.171   1.042   5.013  0.0155 -0.0096 -0.2370
32752ION     NA49226  16.005   5.082   9.679  0.0935 -0.1238  0.2654
32753ION     NA49227   7.225  11.459   5.309  0.1925 -0.2253  0.0253
32754ION     NA49228   1.652  17.243   9.221  0.0965  0.0182 -0.1659
32755ION     NA49229  10.598  13.600   2.423  0.0850  0.3000 -0.2730
32756ION     NA49230   9.767  12.753  13.308 -0.1348  0.1091 -0.1074
32757ION     NA49231  10.454  15.138   3.186  0.1218 -0.0338 -0.0602
32758ION     NA49232  15.317   8.976   9.953  0.1763  0.0618  0.2789
32759ION     NA49233   8.253   7.796   1.344  0.0367  0.0878 -0.1928
32760ION     NA49234  13.654  17.628  11.012 -0.0089  0.2335 -0.0033
32761ION     NA49235   4.105  17.524  12.139 -0.1324 -0.2303 -0.1419
32762ION     NA49236   6.309  11.035  12.780 -0.0857  0.2323 -0.5319
32763ION     NA49237  14.188  15.753   9.206  0.2636  0.0362  0.0304
32764ION     NA49238   6.482  11.937   9.330 -0.1132 -0.4153  0.0940
32765ION     NA49239   1.345  11.243  10.822  0.2560 -0.1093 -0.0489
32766ION     NA49240   1.598   9.807   9.872 -0.0510 -0.2089 -0.1620
32767ION     NA49241  14.531   8.278  10.019  0.2022  0.0417  0.0046
32768ION     NA49242   0.082   7.731  10.293  0.0276 -0.0509  0.0968
32769ION     NA49243   1.410   7.540  14.112 -0.4415 -0.2603  0.3119
32770ION     NA49244   5.842  19.330   1.170 -0.1172 -0.0342 -0.3344
32771ION     NA49245   6.465  17.190   9.191  0.0118  0.0743 -0.3131
32772ION     NA49246  16.902  11.007   9.541  0.1887 -0.0704 -0.1262
32773ION     NA49247   2.176   0.769   9.088 -0.6882 -0.3036 -0.1773
32774ION     NA49248  10.663   8.258  13.307  0.0887 -0.1089 -0.0849
32775ION     NA49249  10.404   0.852   9.833 -0.1103  0.1882  0.1374
32776ION     NA49250  17.291   2.317   9.696 -0.0872 -0.1812  0.1935
32777ION     NA49251   5.329  17.775   4.381  0.1265 -0.2030  0.0491
32778ION     NA49252  12.517   1.112   5.271  0.1050 -0.0797  0.1089
32779ION     NA49253   6.264  17.202   4.760  0.2752  0.1271 -0.3488
32780ION     NA49254  13.726   1.023   3.347 -0.3207  0.1413  0.1821
32781ION     NA49255  15.004   3.487   9.653 -0.0231  0.0564 -0.1354
32782ION     NA49256   8.336   3.897  10.242 -0.0347  0.3121  0.2449
32783ION     NA49257  17.855  18.245   5.219 -0.4936 -0.0463  0.0373
32784ION     NA49258   0.451   4.498   1.422 -0.0486 -0.2752 -0.0007
32785ION     NA49259  10.896   2.255   3.655 -0.0081 -0.2347 -0.0458
32786ION     NA49260  17.398  10.907  13.246  0.0294 -0.1450 -0.0466
32787ION     NA49261  18.156   3.154   9.305 -0.2061 -0.2015  0.2523
32788ION     NA49262  13.923   1.786   9.837  0.0550 -0.1560  0.0798
32789ION     NA49263  11.726  12.454   9.738  0.3150  0.1720  0.0248
32790ION     NA49264   1.626   2.047   9.219  0.0388  0.0114  0.2572
32791ION     NA49265  15.664  12.936   1.577 -0.1827 -0.1626  0.1202
32792ION     NA49266  13.126   1.295   9.327  0.2359 -0.2715 -0.0844
32793ION     NA49267   1.693  13.816   9.159 -0.1870 -0.2462 -0.0482
32794ION     NA49268   6.045  15.525   9.333  0.0106  0.0459  0.0284
32795ION     NA49269   9.933   9.968   5.249  0.1072  0.0466 -0.2576
32796ION     NA49270   7.348   1.365   9.271  0.0728 -0.2248  0.0539
32797ION     NA49271  15.768  11.641   9.640  0.0147  0.0858  0.1588
32798ION     NA49272   8.494   9.994   2.912  0.0729  0.0963 -0.2048
32799ION     NA49273  14.268   3.194   5.246 -0.0279  0.0748  0.0845
32800ION     NA49274  12.360   7.440   1.839 -0.3096 -0.2369  0.1436
32801ION     NA49275   6.637   0.315   1.672 -0.0990 -0.0708 -0.1214
32802ION     NA49276   7.254   7.867   5.247 -0.0916 -0.2847 -0.0879
32803ION     NA49277   9.501  18.636   1.537  0.1993 -0.1001  0.0420
32804ION     NA49278   3.842  11.440   9.578  0.0715 -0.1986 -0.0653
32805ION     NA49279  19.498   5.948   1.145  0.0235  0.2350  0.3725
32806ION     NA49280   9.782  17.945   5.654 -0.0020  0.0434  0.0559
32807ION     NA49281  17.395  16.631   1.808 -0.2442  0.0915 -0.0389
32808ION     NA49282   4.219   1.114  12.033 -0.4557 -0.0159 -0.2117
32809ION     NA49283  19.372   6.999   1.982  0.2690  0.1439 -0.0125
32810ION     NA49284  18.030   2.310   5.235 -0.4950  0.1666 -0.3414
32811ION     NA49285   3.628   5.839   5.208 -0.0211  0.2061 -0.1160
32812ION     NA49286  13.477   7.421  14.009  0.1260  0.2851 -0.3041
32813ION     NA49287  10.760  12.227   9.740 -0.1666 -0.2108  0.1018
32814ION     NA49288  14.896  15.611   1.779  0.0304 -0.1187  0.1942
32815ION     NA49289   3.660  18.950   9.213  0.0934  0.2360 -0.0015
32816ION     NA49290  10.912   8.997   2.959 -0.3864  0.0453  0.0368
32817ION     NA49291   7.037   4.605   9.680 -0.3108 -0.3669 -0.3473
32818ION     NA49292   9.411  13.290  12.509 -0.0238 -0.2757 -0.1300
32819ION     NA49293  12.281   1.621   9.666  0.0186  0.0982 -0.2325
32820ION     NA49294   1.901   4.887  12.235 -0.1474  0.1383 -0.2891
32821ION     NA49295  15.277  19.186   9.374  0.0781 -0.0318 -0.1777
32822ION     NA49296  12.643   5.780  12.951  0.1849  0.0869  0.1321
32823ION     NA49297  12.653   6.267   5.402 -0.1786  0.2670 -0.2268
32824ION     NA49298  10.922   1.020  14.511  0.1099  0.0506 -0.0289
32825ION     NA49299   0.283   0.734   1.955  0.1865  0.2277 -0.1075
32826ION     NA49300   7.085  13.740   2.912  0.2864  0.2027 -0.3012
32827ION     NA49301   6.181   1.468   9.343 -0.0195  0.0154 -0.1013
32828ION     NA49302   9.508   8.203   5.820 -0.0235  0.2836 -0.1098
32829ION     NA49303  13.666   2.388   5.185  0.3357  0.2103  0.1275
32830ION     NA49304  13.707   1.954   9.242 -0.0992  0.0992  0.0287
32831ION     NA49305  14.214   8.912   3.386 -0.3207 -0.1533  0.1696
32832ION     NA49306  15.245   9.812   9.964  0.1591  0.1501 -0.0043
32833ION     NA49307   8.872  12.789   9.249 -0.2609  0.0649  0.1198
32834ION     NA49308   4.603  12.573   9.106 -0.2253 -0.1483 -0.2137
32835ION     NA49309  17.212   8.212  10.850 -0.0922 -0.2002 -0.2148
32836ION     NA49310  18.295   2.669  11.857  0.1336  0.1841 -0.0705
32837ION     NA49311   3.020   6.232   4.672 -0.1433 -0.3812 -0.2253
32838ION     NA49312   9.345   0.853   2.397 -0.0283  0.1728  0.4533
32839ION     NA49313  14.486  13.199   2.757  0.1465 -0.0032 -0.0250
32840ION     NA49314   0.834  17.648  12.314 -0.1331  0.2038 -0.2446
32841ION     NA49315  12.614   2.814  13.806 -0.2607 -0.2294  0.1115
32842ION     NA49316   1.555  11.389  14.135  0.0238 -0.0472  0.1715
32843ION     NA49317  11.106  10.672   4.396  0.2174  0.0681  0.1927
32844ION     NA49318   4.297   3.812   2.821 -0.1809 -0.0992  0.4569
32845ION     NA49319  13.700   5.502   2.947 -0.1063  0.2958  0.0771
32846ION     NA49320  14.807   9.742   5.458  0.0911  0.0828  0.4067
32847ION     NA49321   4.737  10.844   4.043  0.1544 -0.0034 -0.0307
32848ION     NA49322  13.062  14.031   9.661 -0.1214 -0.2073  0.4134
32849ION     NA49323   0.155   5.174   9.503  0.0056  0.1698  0.0822
32850ION     NA49324  11.847  12.485   5.460 -0.1409 -0.0602 -0.0175
32851ION     NA49325   2.454  10.055   9.398  0.1062 -0.1594 -0.2610
32852ION     NA49326  10.334  10.261   2.789  0.3227 -0.1178  0.0561
32853ION     NA49327   3.070   3.009   3.870  0.0895 -0.0752 -0.0465
32854ION     NA49328  13.911  10.492   1.754 -0.1350  0.2007  0.1695
32855ION     NA49329  15.723  12.356  10.465  0.1170  0.0480 -0.0484
32856ION     NA49330  15.140   0.594   9.310 -0.0280  0.3735 -0.0655
32857ION     NA49331   7.960  11.023   1.468  0.0968  0.2994 -0.0604
32858ION     NA49332  17.095  13.701   9.532  0.0451 -0.1347 -0.0376
32859ION     NA49333   3.004  17.940  11.313  0.5183 -0.1806 -0.1502
32860ION     NA49334  14.198   5.925   1.182  0.1793  0.2308  0.3677
32861ION     NA49335  18.254   0.495   5.330  0.2252  0.1438  0.0760
32862ION     NA49336  10.870   4.269   9.744 -0.0325 -0.0176  0.0906
32863ION     NA49337   6.714  12.941  12.695  0.0215 -0.0927 -0.0778
32864ION     NA49338   4.077  10.424   5.013 -0.0139  0.0153  0.3743
32865ION     NA49339  16.084  16.672   5.084 -0.1861  0.1702  0.0027
32866ION     NA49340   9.769  12.254  14.102  0.5497  0.0559 -0.2004
32867ION     NA49341   0.946  12.301   2.627 -0.1133  0.0192  0.2438
32868ION     NA49342  15.130  18.456   9.787 -0.1078  0.0926 -0.0031
32869ION     NA49343   0.267  16.776  12.944 -0.0550 -0.1398  0.2811
32870ION     NA49344   1.954   3.203   9.692  0.0462 -0.2782  0.0631
32871ION     NA49345  14.570  13.632   9.436 -0.0547  0.0105  0.3145
32872ION     NA49346  17.507  13.017   9.277  0.1951  0.0537  0.1819
32873ION     NA49347  18.651  11.069  14.381 -0.1745  0.1363 -0.0681
32874ION     NA49348   5.510   5.936   9.544  0.1625 -0.1175  0.0796
32875ION     NA49349  10.982   4.196   2.999  0.0336  0.2797  0.0586
32876ION     NA49350   3.781   0.920   9.258 -0.0228  0.0175 -0.2253
32877ION     NA49351  10.413  12.212  11.627 -0.1124 -0.1444 -0.1225
32878ION     NA49352  15.783   2.898  10.647  0.1036  0.1211 -0.1494
32879ION     NA49353  16.269   1.440   2.023 -0.1698 -0.3467 -0.1126
32880ION     NA49354  16.009   9.705  12.234  0.0491  0.1124 -0.0714
32881ION     NA49355   0.263  17.149   5.103 -0.1603 -0.2492  0.1673
32882ION     NA49356   9.026   7.104  10.918 -0.1296 -0.2047  0.1250
32883ION     NA49357   1.053  14.775   4.965  0.1320 -0.4484 -0.0644
32884ION     NA49358  10.804   8.301   1.889 -0.2018 -0.0690 -0.3203
32885ION     NA49359  12.757   7.048  10.103  0.3346  0.2008  0.1568
32886ION     NA49360  12.558   1.710   1.878 -0.1214  0.3396 -0.1240
32887ION     NA49361   4.492  19.025   8.924  0.0036 -0.1194  0.3340
32888ION     NA49362  16.845  19.519   9.253 -0.2247  0.3299  0.1347
32889ION     NA49363   0.794  17.693   0.964  0.1324  0.2245 -0.0161
32890ION     NA49364   7.616   6.263  11.946 -0.2065  0.2305 -0.1486
32891ION     NA49365   5.424   1.023   4.886 -0.1287  0.0209 -0.3622
32892ION     NA49366  12.597   4.143   5.399 -0.0625 -0.0450  0.2007
32893ION     NA49367  19.264   3.877   9.434 -0.4018 -0.0010  0.0894
32894ION     NA49368  15.206  15.601   5.271  0.2682 -0.0112  0.0198
32895ION     NA49369  11.907   0.169   1.226 -0.2944 -0.4315 -0.1807
32896ION     NA49370  12.108  19.228   0.270 -0.2694 -0.2311  0.1852
32897ION     NA49371   7.311  19.276   0.396  0.1757  0.1141  0.0300
32898ION     NA49372   3.700   9.962  10.873  0.2389  0.3102 -0.0763
32899ION     NA49373  13.914   4.083   5.786  0.2470 -0.1907 -0.1729
32900ION     NA49374  11.115  15.256   5.023 -0.0897 -0.5745 -0.2853
32901ION     NA49375  12.077  16.456   5.156  0.0774 -0.0400 -0.0042
32902ION     NA49376  13.077   3.772   9.340 -0.1332  0.0494 -0.0670
32903ION     NA49377  16.595  14.372   4.238 -0.1761  0.0481 -0.0852
32904ION     NA49378  13.770   3.396   9.496  0.2240 -0.0528 -0.0076
32905ION     NA49379   1.390  17.652   9.141 -0.1906  0.1213 -0.0279
32906ION     NA49380   3.883  11.119   4.334  0.0631  0.2339 -0.2932
32907ION     NA49381   4.019   0.661  14.015  0.2376  0.2063  0.1049
32908ION     NA49382  17.019   4.183   2.194  0.2289 -0.2159  0.2035
32909ION     NA49383  14.962  14.983   3.974 -0.3145  0.0641 -0.5467
32910ION     NA49384   4.680  14.616  11.501 -0.2044 -0.0052  0.3136
32911ION     NA49385  14.355   6.392  10.031 -0.1342  0.1201  0.1497
32912ION     NA49386  18.191  18.972  14.242  0.1406  0.0270  0.2007
32913ION     NA49387  14.855  12.002   3.758  0.1103  0.0623 -0.0787
32914ION     NA49388  16.073  19.005   9.581  0.1784  0.1130 -0.3758
32915ION     NA49389  17.027   3.136   2.697 -0.1357  0.0595  0.2253
32916ION     NA49390  12.157  15.489   5.282 -0.2023 -0.1975  0.1658
32917ION     NA49391   5.362   4.090   5.402 -0.2191  0.0085  0.0903
32918ION     NA49392  15.226  14.888  10.683  0.2732 -0.0922  0.1026
32919ION     NA49393   2.621  11.460   3.760  0.3248 -0.0343  0.1234
32920ION     NA49394   6.831   2.466   9.784 -0.1916 -0.0451  0.1933
32921ION     NA49395  11.651   1.337  11.524 -0.0035  0.2593 -0.0965
32922ION     NA49396   1.190   1.311   9.374 -0.2931  0.0354 -0.1507
32923ION     NA49397  16.299   3.713   4.883  0.1934 -0.0715 -0.1413
32924ION     NA49398  13.796   7.906   0.927  0.1346 -0.1800  0.1305
32925ION     NA49399  12.733  13.518  13.660 -0.2041  0.2234 -0.1298
32926ION     NA49400   5.864  15.181   0.681 -0.0575  0.0629 -0.0124
32927ION     NA49401  18.740   0.848  12.822 -0.0188  0.2842 -0.1156
32928ION     NA49402  19.105  10.526   9.824 -0.4710 -0.2305  0.3060
32929ION     NA49403  10.218   6.529   5.831  0.0235  0.1262  0.0093
32930ION     NA49404   6.252   7.338   5.492 -0.0640  0.1768 -0.0639
32931ION     NA49405   7.067   2.127   5.029 -0.3311 -0.4974  0.0403
32932ION     NA49406   8.667  19.545   9.247 -0.0600  0.1706  0.0279
32933ION     NA49407  13.611   1.889  13.878 -0.0213 -0.1003  0.1813
32934ION     NA49408  14.391  18.071  11.361  0.2070  0.1582 -0.1756
32935ION     NA49409   6.704   6.934  13.859  0.0478 -0.2731  0.1861
32936ION     NA49410  14.301   7.236   2.659 -0.0076 -0.2120  0.2632
32937ION     NA49411   2.303  16.930  13.572  0.0241  0.3632 -0.2004
32938ION     NA49412   8.379   1.995  11.043  0.1332  0.2342  0.0048
32939ION     NA49413   9.418   2.496  12.429  0.0095  0.1627 -0.4047
32940ION     NA49414   7.631   6.025   9.777 -0.0899 -0.1516  0.0870
32941ION     NA49415   5.492   9.351   2.327 -0.0829  0.1036  0.0947
32942ION     NA49416  19.451  13.817   2.453 -0.0104  0.4030 -0.0954
32943ION     NA49417  14.267  13.413   9.783 -0.3110  0.1668  0.0332
32944ION     NA49418  17.470   7.828   9.571 -0.0499 -0.1233  0.2893
32945ION     NA49419   5.564   0.568  13.693  0.1301 -0.1564  0.1572
32946ION     NA49420  18.561   0.633   4.730 -0.3249  0.0538 -0.0257
32947ION     NA49421   3.657  16.075   0.341 -0.1043 -0.2745  0.0358
32948ION     NA49422   2.548   9.158   9.285  0.0802  0.1473  0.3057
32949ION     NA49423  18.173  15.729   1.900 -0.1800 -0.1504  0.1398
32950ION     NA49424  19.189   8.391   0.909 -0.0021 -0.2941 -0.2166
32951ION     NA49425   8.775   5.938   0.950  0.0461  0.0291 -0.3090
32952ION     NA49426  14.288  17.682   9.675 -0.0262 -0.0738 -0.1249
32953ION     NA49427   5.592  10.320   3.058 -0.1185 -0.2206 -0.0601
32954ION     NA49428  11.093   6.762   9.819 -0.0539  0.1440  0.2853
32955ION     NA49429  13.504   8.648  10.252 -0.3239  0.0186 -0.2823
32956ION     NA49430   3.569   3.535   9.521  0.3170 -0.1124 -0.1250
32957ION     NA49431  19.173  14.645   5.121  0.0136 -0.0380 -0.1754
32958ION     NA49432   0.208   0.174   9.214  0.0340  0.0423 -0.0250
32959ION     NA49433   5.533  12.721   9.368  0.2719 -0.1377 -0.2429
32960ION     NA49434   4.619  11.261  10.426  0.0361 -0.1297 -0.0615
32961ION     NA49435   1.963  13.700  13.500  0.1673 -0.1631  0.0554
32962ION     NA49436   3.358   4.294   9.656  0.0163 -0.1509 -0.0642
32963ION     NA49437   7.587   6.109   5.314  0.0579  0.6024  0.0078
32964ION     NA49438   1.644   3.892   9.645  0.1300  0.0708 -0.1074
32965ION     NA49439  12.629  11.027   5.592  0.0146 -0.0662 -0.0424
32966ION     NA49440   2.608   3.676   9.538 -0.0213  0.1011  0.0864
32967ION     NA49441   8.331  15.884  13.418 -0.0333  0.3144 -0.1713
32968ION     NA49442  11.506   7.972   5.777 -0.3986  0.2777  0.0411
32969ION     NA49443  11.144  14.223   3.976 -0.0974  0.1051  0.0152
32970ION     NA49444  11.341   8.945   4.069  0.0155  0.0550 -0.2646
32971ION     NA49445  11.045  12.458   5.873 -0.1336  0.0972  0.0160
32972ION     NA49446  18.327  10.441   1.882 -0.2261 -0.0127  0.1300
32973ION     NA49447  14.107   2.587   3.195  0.1733  0.2188  0.2101
32974ION     NA49448   8.861   6.795   3.793  0.2448 -0.0899  0.0770
32975ION     NA49449   7.053   5.451   4.274  0.3520  0.1805  0.1452
32976ION     NA49450  15.509   9.664   0.186  0.4065 -0.0689 -0.1510
32977ION     NA49451  11.918   6.747   9.698 -0.2083  0.1146 -0.1510
32978ION     NA49452   5.575   1.169   0.144  0.0105  0.1619 -0.2680
32979ION     NA49453   2.710  12.670   3.631  0.0915 -0.2680 -0.0667
32980ION     NA49454  19.221   1.161   9.447 -0.0853  0.0033 -0.2473
32981ION     NA49455  15.534   7.097  14.418 -0.0134  0.0464 -0.3189
32982ION     NA49456  13.929  15.028  12.884 -0.1245 -0.1269 -0.0759
32983ION     NA49457  12.320   3.185   2.050 -0.0997  0.0084 -0.0762
32984ION     NA49458   4.368   4.032   5.591 -0.1020 -0.2731  0.0574
32985ION     NA49459  11.121   7.809   5.343  0.1919 -0.0374 -0.2476
32986ION     NA49460  17.970  13.724   9.423  0.1147 -0.1058 -0.5589
32987ION     NA49461  11.002   6.513   5.180  0.2414 -0.0287  0.2519
32988ION     NA49462  13.037   8.246   5.560  0.0716 -0.2249  0.1134
32989ION     NA49463  11.394   2.155  14.278  0.1740  0.1335  0.1594
32990ION     NA49464   6.502  17.950   3.372  0.0873  0.1146 -0.2709
32991ION     NA49465  17.011   6.023  14.605  0.2595  0.1486  0.0272
32992ION     NA49466   4.128   2.304   0.092  0.0074  0.2481  0.2223
32993ION     NA49467  18.277  15.759  14.319  0.3878 -0.2038 -0.2194
32994ION     NA49468  13.167  11.561   5.390 -0.0633 -0.0336  0.2368
32995ION     NA49469   4.888   0.121   0.234  0.0092 -0.0194  0.1555
32996ION     NA49470  18.951   4.606   9.418  0.0893  0.1734  0.2547
32997ION     NA49471   1.694  15.145   0.681 -0.3428  0.0745  0.2368
32998ION     NA49472   0.926   0.930   2.475 -0.0263 -0.0602  0.0124
32999ION     NA49473  18.276   0.060   9.171 -0.1150  0.0652 -0.3037
33000ION     NA49474  19.322  11.264  12.995 -0.0166 -0.0121 -0.0159
33001ION     NA49475  14.182   7.345   9.948 -0.3129 -0.1034 -0.3507
33002ION     NA49476  14.041  15.224   2.430 -0.1447 -0.1677  0.0358
33003ION     NA49477  11.673   4.798   3.946  0.0529 -0.1634  0.2614
33004ION     NA49478  11.841   9.529   9.908  0.1613 -0.2490 -0.2817
33005ION     NA49479   8.573   5.831   1.875 -0.2266 -0.0693 -0.0235
33006ION     NA49480   1.200  12.206   9.407  0.0410 -0.2277 -0.2625
33007ION     NA49481   4.554  10.113   9.487 -0.1193  0.0215 -0.3269
33008ION     NA49482  11.000   5.792   2.134  0.1101  0.0974  0.0843
33009ION     NA49483  12.563   3.315  11.293  0.0646  0.0713 -0.2587
33010ION     NA49484   1.803  14.564   9.010  0.1009 -0.3839 -0.3171
33011ION     NA49485  18.872   2.444   5.083  0.0792 -0.1960  0.1554
33012ION     NA49486  12.194  11.845   1.952  0.0212 -0.2954 -0.4803
33013ION     NA49487  10.557  16.847   9.394  0.0281 -0.0166  0.1870
33014ION     NA49488   6.144  16.339  10.941  0.0679  0.4426  0.3768
33015ION     NA49489  19.240  16.643   4.877 -0.3091 -0.1026  0.2274
33016ION     NA49490  16.697   8.951   4.030  0.3183  0.0926  0.0796
33017ION     NA49491  13.359  15.358   9.461 -0.0133  0.0686 -0.3390
33018ION     NA49492  10.445  15.616  13.969 -0.0217  0.0141 -0.0198
33019ION     NA49493   1.693   2.166   4.620  0.2872 -0.1225  0.0258
33020ION     NA49494  16.033   0.824  11.915 -0.0122 -0.2800  0.1422
33021ION     NA49495   3.784  12.897   4.447 -0.1981 -0.1759 -0.0600
33022ION     NA49496  12.787   9.248   3.168 -0.1630  0.1556  0.1204
33023ION     NA49497   2.245   7.099   9.740  0.1660 -0.0657  0.1971
33024ION     NA49498   5.562   8.052   0.616 -0.1553  0.2060  0.1227
33025ION     NA49499   1.362   4.738  14.595  0.2707  0.2781  0.1617
33026ION     NA49500  18.933   6.846   3.960  0.1207  0.2690 -0.0223
33027ION     NA49501  18.215  15.470   9.795  0.2874  0.1183  0.0642
33028ION     NA49502   3.764  12.197   9.191 -0.1110 -0.0475  0.0730
33029ION     NA49503   5.686  10.793   0.754 -0.1802 -0.1150 -0.1470
33030ION     NA49504  16.822  18.436  13.807 -0.0338  0.0855  0.0580
33031ION     NA49505  10.269  13.858  14.235  0.0732  0.0784  0.4421
33032ION     NA49506   8.406   0.673   4.749  0.0346  0.1575  0.0654
33033ION     NA49507   8.198   5.433   9.970  0.1202 -0.3563 -0.1604
33034ION     NA49508   7.550  11.473  13.150 -0.4700  0.2408 -0.1420
33035ION     NA49509   1.389   1.990  13.206  0.0706 -0.0131 -0.3620
33036ION     NA49510  18.480   7.044   5.792 -0.0115 -0.0425  0.4911
33037ION     NA49511   4.104   2.421  11.498 -0.0725  0.0019 -0.0241
33038ION     NA49512   5.709  13.661   5.041 -0.0371 -0.2348  0.1937
33039ION     NA49513  17.692  18.824  12.319 -0.1801  0.0612  0.0597
33040ION     NA49514   4.837   6.233  14.520  0.1406 -0.1301 -0.2442
33041ION     NA49515   9.085  17.057  14.541  0.1957 -0.0353  0.0247
33042ION     NA49516   5.012   4.658   9.723  0.0030 -0.2288 -0.0539
33043ION     NA49517  15.990   6.110   9.490  0.2087  0.1039 -0.2922
33044ION     NA49518   4.052   5.161   0.667 -0.0258  0.1191 -0.2762
33045ION     NA49519   9.530  10.616   4.199 -0.3674  0.1707 -0.2736
33046ION     NA49520   4.685  17.840   3.355  0.1840  0.1454 -0.0437
33047ION     NA49521   1.321  10.704   5.386  0.0716  0.2239 -0.2572
33048ION     NA49522   9.669  17.913   2.604  0.0934 -0.0781 -0.5030
33049ION     NA49523   6.193   2.879   2.469 -0.0038  0.0388  0.0398
33050ION     NA49524   1.279  11.884  10.295 -0.0963  0.0161  0.2615
33051ION     NA49525   4.530  10.395   5.308  0.1380 -0.1024 -0.1021
33052ION     NA49526   2.698   7.849  11.783  0.4129 -0.0553  0.1833
33053ION     NA49527  11.699  17.964  13.201 -0.2566  0.2279  0.0558
33054ION     NA49528   0.102  13.711   9.186 -0.1213 -0.0164 -0.0167
33055ION     NA49529  14.715  11.323   5.396 -0.4330 -0.1311 -0.1101
33056ION     NA49530  13.676   6.941  10.443 -0.2549  0.5187 -0.0277
33057ION     NA49531  11.959   1.722   3.925 -0.4343  0.0324 -0.0513
33058ION     NA49532  11.493   8.321   0.848  0.0043  0.1968 -0.3748
33059ION     NA49533  18.802   5.731   5.433 -0.4110 -0.3161  0.3337
33060ION     NA49534   6.518   8.490  10.199  0.3241  0.0405  0.0678
33061ION     NA49535   4.731  18.118   1.035  0.1674 -0.0434 -0.0398
33062ION     NA49536  15.689  15.023   9.807 -0.0477  0.0420 -0.1574
33063ION     NA49537   7.076   6.656   5.431 -0.0189 -0.4050  0.2026
33064ION     NA49538   8.071   0.848   9.105  0.0325 -0.1422  0.2045
33065ION     NA49539  15.261   9.080  13.096  0.0446 -0.0100 -0.2910
33066ION     NA49540   1.618   6.584   0.214 -0.1548  0.0209  0.2443
33067ION     NA49541  17.592  11.525  13.796  0.0112  0.3111  0.4061
33068ION     NA49542   4.794   8.519   5.039  0.0378 -0.3338 -0.0728
33069ION     NA49543   5.467   4.195   2.587  0.2226 -0.3574 -0.0578
33070ION     NA49544   6.587  19.016   9.012  0.0775 -0.0745 -0.0609
33071ION     NA49545  16.761   2.813   1.285 -0.0275  0.2020  0.1708
33072ION     NA49546  12.663   8.433  10.426 -0.1589 -0.0646  0.0569
33073ION     NA49547   0.871   8.219   9.772 -0.0764 -0.0724 -0.2986
33074ION     NA49548  12.771  17.232   9.407 -0.1700 -0.4415 -0.1301
33075ION     NA49549  19.384  19.091   9.696  0.5131 -0.2748  0.0877
33076ION     NA49550  10.973   7.729   2.961 -0.1091 -0.2565 -0.1103
33077ION     NA49551  11.390  18.460   4.118 -0.2817  0.1280  0.0420
33078ION     NA49552  15.405  10.763  10.089  0.2024 -0.1240 -0.1987
33079ION     NA49553   9.588  16.714   1.568 -0.0855  0.1410  0.1899
33080ION     NA49554  13.530   0.542   9.179 -0.0372  0.1442  0.0980
33081ION     NA49555   2.230  13.615   9.968 -0.1737  0.1231 -0.0452
33082ION     NA49556   2.121  12.449  10.931 -0.1564  0.1211 -0.1693
33083ION     NA49557  16.052   5.966  13.129  0.0716 -0.3780  0.0492
33084ION     NA49558  11.092  10.221   1.314  0.0334  0.0877  0.4854
33085ION     NA49559  11.338   0.049   0.541 -0.0534 -0.1882 -0.0639
33086ION     NA49560  18.883   5.519   9.630  0.2822  0.0383 -0.2784
33087ION     NA49561   5.576  14.861   9.177  0.3033  0.0444  0.1911
33088ION     NA49562   6.347   5.533   9.844  0.0218 -0.1708 -0.0828
33089ION     NA49563  14.752  10.245  14.499 -0.1369 -0.1897 -0.0840
33090ION     NA49564  14.466  10.611   3.650 -0.0922  0.4458  0.1364
33091ION     NA49565   2.474   4.877   9.609 -0.1966  0.2159 -0.1292
33092ION     NA49566   4.156  10.492   0.734 -0.1533 -0.1166  0.2010
33093ION     NA49567   8.104  15.367   9.446  0.2320 -0.3462  0.2741
33094ION     NA49568  12.323   9.066   0.109  0.0061  0.0498  0.2089
33095ION     NA49569   2.188   4.837  14.020 -0.1547  0.0296  0.0569
33096ION     NA49570   3.097  18.145   8.922  0.2643  0.0260  0.2509
33097ION     NA49571  10.272  10.347   9.830 -0.1232 -0.0115  0.1562
33098ION     NA49572   4.643  15.506   2.701  0.2020  0.2669  0.0807
33099ION     NA49573   0.907  10.303   9.599 -0.2082  0.3218  0.0811
33100ION     NA49574   5.473   8.601   9.666  0.0190  0.1186  0.0649
33101ION     NA49575  11.556   7.447   0.297  0.2483  0.1452  0.0215
33102ION     NA49576   3.364   2.620   9.326  0.0447  0.1199 -0.0814
33103ION     NA49577   9.003   1.425   0.375  0.0054  0.1476 -0.1606
33104ION     NA49578   6.120   4.320   9.815  0.0899  0.3365  0.0279
33105ION     NA49579  12.216   8.533   5.397  0.0988  0.2422 -0.2069
33106ION     NA49580  12.644  15.498   9.434 -0.1773  0.0732 -0.0029
33107ION     NA49581   6.868  18.274   1.145 -0.0160  0.0885 -0.0160
33108ION     NA49582   0.156   7.123   0.716  0.0077  0.0367 -0.0214
33109ION     NA49583  13.186   9.535   0.098 -0.1049  0.1702  0.1629
33110ION     NA49584   9.656   4.449   0.531  0.0110 -0.2006 -0.2276
33111ION     NA49585   7.724  14.492   2.741 -0.1695 -0.0290 -0.2765
33112ION     NA49586   0.603   0.211  12.056 -0.0340 -0.2288  0.1439
33113ION     NA49587  10.578  11.139   9.758  0.0094  0.0425 -0.0451
33114ION     NA49588  12.569  11.274  14.516  0.1251 -0.0591  0.1039
33115ION     NA49589  17.866   8.788   9.834 -0.2605  0.3078 -0.1563
33116ION     NA49590  13.722  16.816  14.127 -0.3491 -0.0935  0.0173
33117ION     NA49591  17.161   8.730   9.715 -0.1289  0.0652  0.0445
33118ION     NA49592  11.737   3.906   9.667 -0.0773  0.0495  0.2407
33119ION     NA49593   6.988  18.234   4.535 -0.1524  0.3442  0.1401
33120ION     NA49594   6.363  11.173   9.763 -0.0147  0.5032 -0.1840
33121ION     NA49595  19.409  18.176   9.846 -0.0168 -0.0505  0.0343
33122ION     NA49596   7.369  16.065   0.931  0.3228  0.2559 -0.2439
33123ION     NA49597   2.426   5.516  10.368  0.1476  0.1500 -0.0136
33124ION     NA49598   3.855   3.164   5.397 -0.0171  0.2035 -0.1208
33125ION     NA49599  14.194  12.082   9.577  0.2528  0.0316  0.2395
33126ION     NA49600  17.319   5.707   0.532 -0.4774 -0.2284 -0.1953
33127ION     NA49601  15.870   5.277   1.647 -0.2356 -0.1009 -0.0651
33128ION     NA49602  18.600   1.813   9.220 -0.3102 -0.0541 -0.1403
33129ION     NA49603  12.201  13.347   5.306  0.1195  0.0311  0.0342
33130ION     NA49604   7.911  13.249   9.314 -0.3889 -0.1415  0.0517
33131ION     NA49605   7.967  10.839   9.864  0.1680 -0.0463 -0.3989
33132ION     NA49606  17.784  10.117  14.421 -0.2663 -0.4797 -0.0104
  19.58345  19.58345  14.71998
