INSANE! Membrane UpperLeaflet>loPI:POPI:DPPI:PYPI:ERGO=180.0:5.0:3.0:2.0:10.0 LowerLeaflet>PSPI:POPI:POPS:YOPS:POPE:YOPE:POPC:YOPC:ERGO=6.0:14.0:21.0:9.0:9.0:21.0:12.0:48.0:60.0
49606
    1loPI    C1    1  14.637   0.376  10.158  0.0731 -0.0126 -0.0898
    1loPI    C2    2  14.292   0.328   9.963 -0.1104  0.1474  0.1884
    1loPI    C3    3  14.338   0.635  10.215  0.1941  0.0594  0.2436
    1loPI   PO4    4  14.864   0.364   9.906  0.0568  0.4641 -0.1015
    1loPI   GL1    5  14.943   0.140   9.584 -0.0410  0.0864  0.3687
    1loPI   GL2    6  14.822   0.222   9.309 -0.0566  0.0507  0.0757
    1loPI   C1A    7  15.138  -0.139   9.147  0.1515  0.0520  0.1533
    1loPI   C2A    8  14.874  -0.372   8.716 -0.1707  0.1727  0.0205
    1loPI   C3A    9  15.000  -0.701   8.549 -0.0206  0.2370 -0.0926
    1loPI   C4A   10  14.832  -1.156   8.282 -0.0959  0.0920  0.1619
    1loPI   C5A   11  14.884  -1.399   7.997 -0.3851 -0.0278 -0.1641
    1loPI   C6A   12  15.081  -1.460   7.610 -0.1062  0.1499  0.2397
    1loPI   C1B   13  15.102   0.414   8.950 -0.0884  0.2135  0.2403
    1loPI   C2B   14  15.295   0.702   8.755 -0.2347 -0.2130 -0.1548
    1loPI   C3B   15  15.344   0.849   8.378 -0.1692 -0.0338 -0.1270
    1loPI   C4B   16  15.435   0.913   7.977  0.1856 -0.0877 -0.2774
    2loPI    C1   17  18.117  18.649  10.328  0.0014 -0.0863 -0.1024
    2loPI    C2   18  18.374  18.811  10.590  0.1743 -0.0834 -0.2717
    2loPI    C3   19  18.123  18.522  10.708  0.1264  0.0420 -0.0601
    2loPI   PO4   20  18.225  18.562  10.152 -0.3417 -0.1549 -0.0586
    2loPI   GL1   21  18.359  18.769   9.768  0.2542  0.3117  0.3524
    2loPI   GL2   22  18.178  18.380   9.658  0.0778 -0.0022  0.2353
    2loPI   C1A   23  18.611  18.832   9.355  0.3070  0.0919  0.0903
    2loPI   C2A   24  18.729  18.839   8.849  0.0032  0.2692 -0.2950
    2loPI   C3A   25  18.817  18.569   8.503 -0.1749 -0.1442 -0.0968
    2loPI   C4A   26  18.961  18.489   8.066  0.0364 -0.0712  0.2568
    2loPI   C5A   27  18.747  18.558   7.682  0.0678  0.0810  0.1919
    2loPI   C6A   28  18.718  18.346   7.330  0.0591  0.0213  0.0585
    2loPI   C1B   29  18.335  18.351   9.206  0.0540 -0.1552  0.0297
    2loPI   C2B   30  18.405  18.236   8.723  0.0091 -0.0118 -0.4939
    2loPI   C3B   31  18.662  18.100   8.284  0.0001  0.2594 -0.0742
    2loPI   C4B   32  18.653  18.119   7.862 -0.0552 -0.0150  0.0489
    3loPI    C1   33   5.977  10.271  10.027  0.1309 -0.0007  0.1872
    3loPI    C2   34   6.343  10.315   9.872  0.0107 -0.0226 -0.1090
    3loPI    C3   35   6.287  10.078  10.190  0.2449 -0.0584 -0.0929
    3loPI   PO4   36   5.803  10.234   9.769  0.0118  0.4470 -0.0622
    3loPI   GL1   37   5.487  10.279   9.490  0.3675  0.0256 -0.3315
    3loPI   GL2   38   5.277  10.460   9.393  0.3435 -0.0642  0.0309
    3loPI   C1A   39   5.737  10.616   9.226 -0.1661  0.0150  0.2299
    3loPI   C2A   40   5.975  10.652   9.019  0.3239 -0.1157 -0.0619
    3loPI   C3A   41   6.127  10.639   8.742  0.1978 -0.1919  0.0726
    3loPI   C4A   42   6.117  10.732   8.382 -0.3997  0.1262  0.1128
    3loPI   C5A   43   6.026  10.748   7.891 -0.0333  0.0521  0.0522
    3loPI   C6A   44   6.193  10.899   7.432  0.1073 -0.1283  0.0543
    3loPI   C1B   45   5.215  10.549   8.946 -0.2047 -0.0584 -0.0341
    3loPI   C2B   46   5.220  10.627   8.459  0.1962  0.0216  0.0407
    3loPI   C3B   47   4.937  10.727   8.055  0.1931 -0.2467  0.0252
    3loPI   C4B   48   4.808  10.678   7.588  0.0540  0.0924  0.0190
    4loPI    C1   49  15.440  18.517   9.932  0.0894  0.0327 -0.1399
    4loPI    C2   50  15.568  18.810  10.173 -0.2082  0.2129 -0.1959
    4loPI    C3   51  15.310  18.537  10.310  0.1921 -0.1259 -0.0951
    4loPI   PO4   52  15.375  18.645   9.702  0.1245 -0.1838 -0.0138
    4loPI   GL1   53  15.030  18.835   9.533 -0.2600  0.1047 -0.2241
    4loPI   GL2   54  14.857  19.058   9.547 -0.0508 -0.2467 -0.0513
    4loPI   C1A   55  14.944  18.739   9.108 -0.1753 -0.0287 -0.2689
    4loPI   C2A   56  14.632  18.517   8.878 -0.0122  0.0794 -0.4080
    4loPI   C3A   57  14.200  18.449   8.845 -0.1173 -0.3939  0.3020
    4loPI   C4A   58  14.079  18.705   8.468 -0.0100 -0.0164 -0.0748
    4loPI   C5A   59  13.963  18.593   8.043  0.0302 -0.3098 -0.1838
    4loPI   C6A   60  13.643  18.217   7.930 -0.1112  0.1137 -0.3017
    4loPI   C1B   61  14.604  19.167   9.222 -0.4186  0.0479  0.0836
    4loPI   C2B   62  14.368  19.060   8.837 -0.2859  0.1339  0.0589
    4loPI   C3B   63  14.574  18.873   8.392  0.0232  0.2128 -0.0688
    4loPI   C4B   64  14.439  18.530   8.157 -0.0746  0.3924  0.6973
    5loPI    C1   65   8.605   3.379   8.543 -0.1840 -0.0377  0.0607
    5loPI    C2   66   8.624   3.738   8.718 -0.0348 -0.0160  0.0016
    5loPI    C3   67   8.478   3.425   8.920 -0.1583  0.0758  0.0559
    5loPI   PO4   68   8.517   3.511   8.266 -0.3016  0.3230 -0.1982
    5loPI   GL1   69   8.830   3.701   7.991  0.1808  0.0647  0.1809
    5loPI   GL2   70   8.558   3.905   7.949 -0.1022  0.0403 -0.1088
    5loPI   C1A   71   9.115   3.887   7.743  0.0368  0.1710  0.1301
    5loPI   C2A   72   9.469   3.985   7.533 -0.0401 -0.0170 -0.1143
    5loPI   C3A   73   9.606   3.957   7.044  0.1086 -0.2298  0.1367
    5loPI   C4A   74   9.943   4.131   6.730  0.3687 -0.0337  0.1224
    5loPI   C5A   75  10.162   4.207   6.477  0.3327  0.1979  0.0917
    5loPI   C6A   76  10.502   4.462   6.473  0.0953 -0.0917 -0.1591
    5loPI   C1B   77   8.303   4.037   7.680 -0.1287  0.0313  0.0070
    5loPI   C2B   78   8.389   3.987   7.290  0.0516  0.1266  0.0970
    5loPI   C3B   79   8.201   4.026   6.883 -0.0813 -0.1019  0.0762
    5loPI   C4B   80   8.119   4.137   6.460 -0.2081 -0.1237 -0.0910
    6loPI    C1   81  12.898   0.355  10.405 -0.2478  0.0017 -0.0475
    6loPI    C2   82  12.638   0.534  10.651 -0.1006  0.0721  0.0586
    6loPI    C3   83  12.914   0.284  10.798 -0.0468  0.0719 -0.0413
    6loPI   PO4   84  12.747   0.193  10.113 -0.2447 -0.2794 -0.3667
    6loPI   GL1   85  12.927   0.217   9.786 -0.2705 -0.3355 -0.2158
    6loPI   GL2   86  12.963   0.410   9.614 -0.1238 -0.0272 -0.0777
    6loPI   C1A   87  13.008  -0.040   9.450 -0.1378  0.3005 -0.1785
    6loPI   C2A   88  13.316  -0.016   9.059  0.1155  0.1609 -0.0468
    6loPI   C3A   89  13.588   0.090   8.655 -0.4315 -0.1937 -0.1340
    6loPI   C4A   90  13.677   0.149   8.206  0.1179  0.1201  0.1622
    6loPI   C5A   91  13.694   0.099   7.681 -0.2884 -0.0058  0.0940
    6loPI   C6A   92  14.018   0.020   7.329  0.2396  0.0129  0.0677
    6loPI   C1B   93  13.298   0.388   9.360 -0.2324  0.2656  0.1570
    6loPI   C2B   94  13.640   0.415   9.102 -0.1674  0.2992  0.3085
    6loPI   C3B   95  13.859   0.496   8.732  0.0708 -0.0355  0.1242
    6loPI   C4B   96  13.634   0.656   8.320 -0.2017  0.0985  0.3015
    7loPI    C1   97   9.066   3.317   8.794  0.1812 -0.1377 -0.0944
    7loPI    C2   98   9.151   3.591   9.072  0.2955 -0.0812 -0.1842
    7loPI    C3   99   9.106   3.208   9.177 -0.1148  0.0068 -0.0194
    7loPI   PO4  100   9.194   3.278   8.597  0.0758 -0.1130 -0.2939
    7loPI   GL1  101   9.304   3.123   8.301  0.3100  0.0580 -0.2999
    7loPI   GL2  102   8.960   3.184   8.159 -0.2814 -0.1647  0.5350
    7loPI   C1A  103   9.395   3.274   7.929  0.0916 -0.0627  0.1463
    7loPI   C2A  104   9.075   3.402   7.679 -0.1216 -0.2502  0.0965
    7loPI   C3A  105   8.675   3.336   7.656  0.0575 -0.2610 -0.0540
    7loPI   C4A  106   8.421   3.515   7.394 -0.3864 -0.2735  0.1606
    7loPI   C5A  107   8.280   3.474   6.948 -0.0906  0.0425 -0.1900
    7loPI   C6A  108   8.525   3.538   6.677  0.1007  0.3927  0.1669
    7loPI   C1B  109   8.940   2.945   7.841  0.4451 -0.4082  0.3910
    7loPI   C2B  110   9.003   2.993   7.416  0.2665  0.1145 -0.1396
    7loPI   C3B  111   9.138   2.880   6.936 -0.0561 -0.2192  0.1279
    7loPI   C4B  112   9.300   3.109   6.558  0.0512 -0.2506  0.1440
    8loPI    C1  113   6.070  10.792  10.026 -0.0398 -0.2303  0.0192
    8loPI    C2  114   6.323  10.609  10.277  0.1814  0.0892  0.0350
    8loPI    C3  115   6.371  10.997  10.192 -0.1584  0.0928 -0.1574
    8loPI   PO4  116   6.115  10.767   9.775 -0.3570 -0.1441 -0.1725
    8loPI   GL1  117   6.283  10.510   9.437  0.0247 -0.1284 -0.1819
    8loPI   GL2  118   6.451  10.286   9.238  0.1642 -0.1625  0.2729
    8loPI   C1A  119   6.563  10.710   9.028 -0.1140  0.1421 -0.5023
    8loPI   C2A  120   6.567  10.900   8.689 -0.0803 -0.0937 -0.2211
    8loPI   C3A  121   6.460  11.172   8.519  0.2861  0.1969 -0.0417
    8loPI   C4A  122   6.182  11.180   8.119 -0.2577  0.1430  0.2874
    8loPI   C5A  123   6.185  11.226   7.773  0.0820 -0.0487 -0.0462
    8loPI   C6A  124   6.008  11.470   7.456  0.2988 -0.1179 -0.0063
    8loPI   C1B  125   6.451  10.228   8.713  0.3747 -0.3961  0.1581
    8loPI   C2B  126   6.460  10.194   8.263 -0.1994  0.3423 -0.0776
    8loPI   C3B  127   6.267  10.330   7.885 -0.1300 -0.0630 -0.0983
    8loPI   C4B  128   6.424  10.412   7.508 -0.1591  0.0928 -0.3174
    9loPI    C1  129   0.438   8.484   9.948  0.0091 -0.0954 -0.0356
    9loPI    C2  130   0.182   8.224  10.112 -0.0200 -0.0968 -0.0832
    9loPI    C3  131   0.244   8.580  10.284 -0.2519  0.0086 -0.2125
    9loPI   PO4  132   0.346   8.460   9.669 -0.4418 -0.0997 -0.0780
    9loPI   GL1  133   0.433   8.676   9.309  0.1377  0.1839 -0.3897
    9loPI   GL2  134   0.601   9.029   9.245 -0.1072 -0.0433 -0.1614
    9loPI   C1A  135   0.272   8.683   8.936 -0.0057  0.1896 -0.3875
    9loPI   C2A  136   0.386   8.587   8.537 -0.0115 -0.2868 -0.0643
    9loPI   C3A  137   0.417   8.668   8.156  0.0617  0.0388  0.5115
    9loPI   C4A  138   0.701   8.731   7.801  0.5679 -0.0377 -0.0148
    9loPI   C5A  139   1.027   8.954   7.757 -0.1499  0.0476 -0.2833
    9loPI   C6A  140   1.310   9.298   7.764  0.0272  0.3942  0.1172
    9loPI   C1B  141   0.691   8.918   8.747  0.1899 -0.0016 -0.1362
    9loPI   C2B  142   0.829   9.000   8.259  0.3073  0.1207 -0.0563
    9loPI   C3B  143   0.853   9.330   7.951  0.1103  0.0917 -0.0448
    9loPI   C4B  144   0.552   9.481   7.674 -0.0901 -0.1530 -0.1706
   10loPI    C1  145  18.144   6.687   9.987 -0.0766  0.1094  0.0728
   10loPI    C2  146  17.950   6.686  10.338 -0.1612 -0.1191  0.0275
   10loPI    C3  147  18.139   6.357  10.213 -0.0451 -0.0072 -0.0960
   10loPI   PO4  148  18.040   6.808   9.873 -0.3621  0.0600 -0.0984
   10loPI   GL1  149  17.866   6.873   9.501 -0.1511  0.2139 -0.2728
   10loPI   GL2  150  17.626   7.105   9.511  0.0607  0.1181 -0.3765
   10loPI   C1A  151  17.591   6.743   9.176  0.0967 -0.0916 -0.0052
   10loPI   C2A  152  17.511   6.605   8.779 -0.0739  0.1459  0.0190
   10loPI   C3A  153  17.699   6.540   8.304 -0.0697 -0.1775  0.1080
   10loPI   C4A  154  17.811   6.419   7.945  0.1565 -0.1043  0.2639
   10loPI   C5A  155  17.801   6.282   7.548  0.2179  0.0434  0.1420
   10loPI   C6A  156  17.989   6.193   7.059  0.0685 -0.1433 -0.2998
   10loPI   C1B  157  17.684   7.190   9.101  0.0519 -0.3819 -0.0064
   10loPI   C2B  158  17.534   7.257   8.652 -0.1254  0.1511 -0.2646
   10loPI   C3B  159  17.605   7.338   8.171  0.1846  0.3909 -0.0464
   10loPI   C4B  160  17.536   7.234   7.729  0.2912 -0.2233 -0.2427
   11loPI    C1  161  14.904  11.121   9.979 -0.2298 -0.2774  0.1448
   11loPI    C2  162  14.829  10.778  10.170 -0.1222 -0.1472  0.4268
   11loPI    C3  163  14.934  11.103  10.377 -0.1102  0.0272  0.1521
   11loPI   PO4  164  14.742  11.099   9.765  0.1514 -0.3044  0.2953
   11loPI   GL1  165  14.701  11.044   9.336 -0.0839  0.2047 -0.0083
   11loPI   GL2  166  15.055  11.215   9.287  0.1655  0.1172  0.1267
   11loPI   C1A  167  14.765  11.030   8.804 -0.1862 -0.4119  0.1420
   11loPI   C2A  168  15.105  11.031   8.553  0.0346 -0.2740  0.1195
   11loPI   C3A  169  15.265  11.173   8.197 -0.0002 -0.0898  0.1909
   11loPI   C4A  170  15.294  11.267   7.805  0.0493  0.2031  0.2174
   11loPI   C5A  171  15.189  11.427   7.380  0.0071  0.1119  0.0436
   11loPI   C6A  172  15.033  11.839   7.254 -0.3637  0.1617 -0.2759
   11loPI   C1B  173  15.151  11.440   8.934  0.0516  0.3247  0.2808
   11loPI   C2B  174  15.245  11.766   8.609 -0.0116 -0.2732  0.3762
   11loPI   C3B  175  15.269  11.702   8.224 -0.0914 -0.1479  0.1149
   11loPI   C4B  176  15.335  11.743   7.753  0.0289  0.0007 -0.0644
   12loPI    C1  177   9.019   8.518   9.187  0.0274  0.2180 -0.1216
   12loPI    C2  178   8.621   8.540   9.214  0.0218 -0.2092  0.2684
   12loPI    C3  179   8.850   8.701   9.500  0.1420  0.1978 -0.0473
   12loPI   PO4  180   9.035   8.440   8.946  0.0469 -0.0890 -0.2419
   12loPI   GL1  181   9.369   8.271   8.697  0.0480  0.0936  0.0881
   12loPI   GL2  182   9.516   8.542   8.662  0.0307 -0.0069  0.3763
   12loPI   C1A  183   9.215   8.057   8.361  0.0157 -0.1428  0.2597
   12loPI   C2A  184   9.004   7.828   7.960 -0.3136 -0.2260  0.3743
   12loPI   C3A  185   8.689   7.879   7.689 -0.1932  0.2676  0.2392
   12loPI   C4A  186   8.644   7.796   7.295 -0.0699  0.2206 -0.2900
   12loPI   C5A  187   8.655   7.695   6.843  0.2508 -0.0548  0.2031
   12loPI   C6A  188   8.607   7.632   6.479 -0.0949  0.0433  0.0997
   12loPI   C1B  189   9.497   8.441   8.268 -0.0625  0.1627 -0.1357
   12loPI   C2B  190   9.513   8.717   7.907 -0.0288  0.0942  0.1107
   12loPI   C3B  191   9.454   8.739   7.426 -0.1399 -0.0120  0.1341
   12loPI   C4B  192   9.405   8.372   7.162 -0.3713  0.0792 -0.0272
   13loPI    C1  193  14.343   6.749   9.998 -0.3277 -0.0351  0.0486
   13loPI    C2  194  14.296   6.439   9.749  0.3224 -0.0471 -0.0783
   13loPI    C3  195  14.367   6.375  10.137 -0.0295 -0.0405 -0.0095
   13loPI   PO4  196  14.499   6.908   9.847  0.0584 -0.1644  0.1209
   13loPI   GL1  197  14.620   6.927   9.496  0.2970 -0.1193 -0.1671
   13loPI   GL2  198  14.838   7.232   9.398  0.0244 -0.0764  0.0887
   13loPI   C1A  199  14.465   6.929   9.089 -0.1184 -0.0501 -0.1824
   13loPI   C2A  200  14.631   7.094   8.736  0.1670  0.2224 -0.1030
   13loPI   C3A  201  14.839   6.779   8.526 -0.0491 -0.0860 -0.0107
   13loPI   C4A  202  14.807   6.579   8.157  0.1246  0.2235  0.0040
   13loPI   C5A  203  14.499   6.440   7.839  0.1292  0.1645  0.1915
   13loPI   C6A  204  14.880   6.143   7.545  0.1726 -0.1696 -0.1640
   13loPI   C1B  205  15.046   7.226   8.941  0.1451 -0.4371 -0.0775
   13loPI   C2B  206  15.241   7.036   8.605  0.0871 -0.1076 -0.1248
   13loPI   C3B  207  15.271   6.848   8.197  0.1234 -0.0377 -0.4086
   13loPI   C4B  208  15.030   6.663   7.760 -0.1797  0.1858  0.0179
   14loPI    C1  209  17.413   3.534  10.028  0.1357 -0.1033 -0.0009
   14loPI    C2  210  17.442   3.177  10.206 -0.0395 -0.1300 -0.0240
   14loPI    C3  211  17.161   3.437  10.323 -0.0697 -0.0951 -0.1711
   14loPI   PO4  212  17.440   3.501   9.824  0.2080  0.1030  0.1341
   14loPI   GL1  213  17.687   3.468   9.498  0.1295 -0.0564 -0.2553
   14loPI   GL2  214  17.656   3.820   9.391  0.1647  0.1485 -0.1518
   14loPI   C1A  215  17.814   3.434   9.119  0.1669  0.1832 -0.2285
   14loPI   C2A  216  17.694   3.203   8.671  0.1579 -0.0520 -0.1800
   14loPI   C3A  217  17.690   3.163   8.108 -0.0110  0.0491 -0.2272
   14loPI   C4A  218  17.586   3.619   7.848 -0.0777  0.1607  0.1130
   14loPI   C5A  219  17.433   3.919   7.574  0.3222 -0.1121  0.1307
   14loPI   C6A  220  17.811   4.175   7.299 -0.2466  0.1409 -0.3091
   14loPI   C1B  221  17.448   4.166   9.071  0.2280  0.0575  0.2344
   14loPI   C2B  222  17.515   4.232   8.688 -0.0399 -0.4465  0.2661
   14loPI   C3B  223  17.667   4.389   8.411 -0.0462 -0.1189  0.3820
   14loPI   C4B  224  17.772   4.577   8.167  0.3865  0.1535 -0.0900
   15loPI    C1  225  12.705  15.226   9.850  0.1339 -0.0521  0.0620
   15loPI    C2  226  12.848  14.999  10.147 -0.0414 -0.3600 -0.0845
   15loPI    C3  227  12.455  15.013  10.078 -0.0264 -0.0628 -0.1221
   15loPI   PO4  228  12.863  15.156   9.644  0.3959  0.3038 -0.1374
   15loPI   GL1  229  12.833  15.191   9.146 -0.0970  0.0707 -0.0060
   15loPI   GL2  230  12.538  15.387   9.048  0.1256 -0.1006  0.1494
   15loPI   C1A  231  12.891  15.014   8.703 -0.4795  0.0402  0.3128
   15loPI   C2A  232  12.881  14.911   8.364  0.1718 -0.2256 -0.1999
   15loPI   C3A  233  13.063  14.894   8.036  0.1754 -0.1371 -0.0708
   15loPI   C4A  234  13.230  14.550   7.803  0.0681  0.0623  0.0067
   15loPI   C5A  235  13.301  14.256   7.571  0.3757  0.0249  0.0514
   15loPI   C6A  236  13.191  13.929   7.130  0.0991 -0.1735 -0.0606
   15loPI   C1B  237  12.573  15.395   8.627  0.2915 -0.3301 -0.0264
   15loPI   C2B  238  12.653  15.293   8.241 -0.1275 -0.2418  0.1474
   15loPI   C3B  239  12.612  15.136   7.796 -0.0679 -0.3036 -0.0583
   15loPI   C4B  240  12.368  14.792   7.684 -0.2278 -0.4632 -0.0385
   16loPI    C1  241   8.873   7.297   9.193  0.1719 -0.1317  0.0067
   16loPI    C2  242   8.745   7.158   8.840  0.0609  0.0961 -0.0448
   16loPI    C3  243   8.886   6.905   9.116  0.2475 -0.0731 -0.2912
   16loPI   PO4  244   8.986   7.484   9.108 -0.1308  0.3256 -0.1993
   16loPI   GL1  245   9.200   7.759   8.778  0.1043  0.3064 -0.1042
   16loPI   GL2  246   8.985   7.941   8.747 -0.1474 -0.2523 -0.2833
   16loPI   C1A  247   9.495   7.630   8.458  0.1256  0.1336  0.1493
   16loPI   C2A  248   9.504   7.680   8.107 -0.0753  0.2016  0.2221
   16loPI   C3A  249   9.579   7.655   7.678 -0.2848 -0.0078  0.1189
   16loPI   C4A  250   9.498   7.397   7.276 -0.3545 -0.0230 -0.2153
   16loPI   C5A  251   9.745   7.453   6.944 -0.0471 -0.0512  0.1308
   16loPI   C6A  252   9.862   7.481   6.553  0.2269 -0.0576 -0.2585
   16loPI   C1B  253   8.869   7.640   8.377 -0.1760  0.2338 -0.2074
   16loPI   C2B  254   9.031   7.347   8.214  0.0055  0.1589  0.0769
   16loPI   C3B  255   9.106   7.371   7.792 -0.0305  0.1611  0.0773
   16loPI   C4B  256   8.891   7.337   7.475 -0.1871  0.0627  0.1958
   17loPI    C1  257   6.313  13.992  10.268  0.2469  0.2895 -0.2814
   17loPI    C2  258   6.536  14.290  10.415  0.3293  0.0661  0.0574
   17loPI    C3  259   6.494  13.950  10.622 -0.1869  0.0372 -0.0810
   17loPI   PO4  260   6.244  14.099  10.078  0.0895  0.0563  0.0565
   17loPI   GL1  261   6.166  14.237   9.757  0.0524 -0.0975 -0.1427
   17loPI   GL2  262   5.925  14.455   9.613 -0.1433 -0.0020  0.1716
   17loPI   C1A  263   6.228  14.212   9.304  0.0384  0.1012  0.0879
   17loPI   C2A  264   6.274  14.281   8.774 -0.0693 -0.0700 -0.4145
   17loPI   C3A  265   6.261  14.197   8.411 -0.1132 -0.2894  0.0612
   17loPI   C4A  266   6.051  14.086   8.047  0.0338 -0.1942  0.4319
   17loPI   C5A  267   5.928  14.182   7.693  0.0721 -0.2100 -0.1552
   17loPI   C6A  268   5.546  14.169   7.517 -0.1842 -0.2078  0.1914
   17loPI   C1B  269   5.643  14.247   9.316 -0.0414 -0.2602 -0.0755
   17loPI   C2B  270   5.587  14.046   8.968  0.1703 -0.4348  0.2642
   17loPI   C3B  271   5.562  13.702   8.539  0.0523 -0.4055 -0.0498
   17loPI   C4B  272   5.650  13.697   8.119  0.2495  0.0137  0.1036
   18loPI    C1  273  16.474   7.258   9.917  0.0445 -0.1041 -0.0999
   18loPI    C2  274  16.844   7.291  10.064  0.1687 -0.4667 -0.3181
   18loPI    C3  275  16.561   7.107  10.278  0.0195  0.1026 -0.0059
   18loPI   PO4  276  16.527   7.259   9.610  0.2498 -0.0872  0.0557
   18loPI   GL1  277  16.617   7.106   9.188  0.1100 -0.0692  0.0111
   18loPI   GL2  278  16.477   7.447   9.108 -0.0608 -0.3149  0.2495
   18loPI   C1A  279  16.643   6.864   8.819 -0.1703  0.0894  0.3666
   18loPI   C2A  280  16.741   6.975   8.382 -0.0297  0.1283  0.0799
   18loPI   C3A  281  16.870   6.898   7.988 -0.2684 -0.2358 -0.0991
   18loPI   C4A  282  17.050   6.953   7.671  0.2567  0.2166 -0.3068
   18loPI   C5A  283  17.234   7.270   7.365  0.1156  0.0555 -0.1619
   18loPI   C6A  284  17.138   7.701   7.254  0.2112 -0.0971 -0.2701
   18loPI   C1B  285  16.412   7.268   8.737 -0.0654  0.0418 -0.0591
   18loPI   C2B  286  16.164   7.036   8.372 -0.0907  0.3217  0.2450
   18loPI   C3B  287  15.962   6.692   8.435 -0.1350 -0.1069  0.0953
   18loPI   C4B  288  15.548   6.596   8.557 -0.2627  0.0703 -0.0330
   19loPI    C1  289  18.452   2.255   9.798 -0.0113  0.0532  0.2386
   19loPI    C2  290  18.247   2.296  10.139  0.0355  0.0193  0.2708
   19loPI    C3  291  18.554   2.040  10.120  0.0525  0.0441  0.2123
   19loPI   PO4  292  18.321   2.200   9.601 -0.1965  0.2758 -0.2331
   19loPI   GL1  293  18.339   2.031   9.209  0.2419  0.0037  0.1630
   19loPI   GL2  294  18.346   1.840   9.004 -0.2141 -0.1817 -0.0421
   19loPI   C1A  295  18.548   2.390   9.034  0.1263 -0.2338  0.1021
   19loPI   C2A  296  18.523   2.593   8.690  0.0344  0.0601 -0.2629
   19loPI   C3A  297  18.617   2.565   8.314 -0.0285  0.0253  0.0224
   19loPI   C4A  298  18.532   2.420   7.951 -0.0247  0.1058 -0.4218
   19loPI   C5A  299  18.330   2.431   7.563  0.2831 -0.0682  0.0416
   19loPI   C6A  300  18.100   2.627   7.312 -0.2220 -0.1645  0.3665
   19loPI   C1B  301  18.250   1.778   8.582  0.1058 -0.1029 -0.0478
   19loPI   C2B  302  18.280   1.657   8.238  0.2494 -0.0419  0.1216
   19loPI   C3B  303  18.280   1.367   7.887 -0.2357 -0.0953  0.0900
   19loPI   C4B  304  18.239   1.156   7.638  0.0591  0.2165  0.4043
   20loPI    C1  305  17.708   0.879   9.892 -0.1430 -0.1078  0.4271
   20loPI    C2  306  17.867   1.159  10.129  0.0218  0.0370  0.1505
   20loPI    C3  307  17.983   0.778  10.164  0.1245  0.0751  0.2285
   20loPI   PO4  308  17.553   0.941   9.607  0.3106 -0.2058  0.0875
   20loPI   GL1  309  17.564   1.063   9.240 -0.1001  0.0983 -0.0953
   20loPI   GL2  310  17.273   0.891   9.122  0.2378 -0.0048  0.2020
   20loPI   C1A  311  17.740   1.136   8.746 -0.3931 -0.1884  0.1365
   20loPI   C2A  312  17.920   1.347   8.365 -0.2968  0.1029  0.1622
   20loPI   C3A  313  17.794   1.545   7.971 -0.2060  0.2490  0.0477
   20loPI   C4A  314  17.811   1.516   7.615 -0.2858 -0.0140  0.0031
   20loPI   C5A  315  18.215   1.653   7.467  0.0816 -0.0899 -0.2244
   20loPI   C6A  316  18.719   1.536   7.456 -0.0229 -0.1358  0.1121
   20loPI   C1B  317  17.493   0.721   8.757 -0.0365  0.0291 -0.2254
   20loPI   C2B  318  17.759   0.586   8.443  0.1230  0.0742  0.1021
   20loPI   C3B  319  17.888   0.383   8.067  0.0004 -0.3637 -0.1646
   20loPI   C4B  320  18.136  -0.002   7.836  0.2712 -0.1317  0.2223
   21loPI    C1  321  15.537  15.206  10.376 -0.0552 -0.1637 -0.1213
   21loPI    C2  322  15.791  14.920  10.260  0.3108 -0.0039  0.2598
   21loPI    C3  323  15.638  14.913  10.629 -0.2143 -0.0727  0.0494
   21loPI   PO4  324  15.483  15.354  10.198  0.0797 -0.1752  0.0553
   21loPI   GL1  325  15.627  15.156   9.791  0.2476  0.2799 -0.2026
   21loPI   GL2  326  15.918  15.311   9.796  0.0614 -0.0603 -0.0066
   21loPI   C1A  327  15.616  15.230   9.423  0.0329  0.1418  0.2300
   21loPI   C2A  328  15.797  15.517   9.114 -0.0826 -0.0235  0.1106
   21loPI   C3A  329  16.047  15.658   8.832 -0.0121  0.0561 -0.1278
   21loPI   C4A  330  16.285  15.805   8.498 -0.1146 -0.0281 -0.1846
   21loPI   C5A  331  16.626  15.854   8.191 -0.3803  0.0477 -0.0301
   21loPI   C6A  332  16.802  15.931   7.815 -0.0178 -0.3746  0.0422
   21loPI   C1B  333  16.164  15.393   9.448 -0.0488  0.2634  0.1214
   21loPI   C2B  334  16.348  15.271   9.148 -0.0184  0.0640  0.0398
   21loPI   C3B  335  16.410  14.961   8.841  0.3070 -0.0835 -0.0446
   21loPI   C4B  336  16.528  14.664   8.672  0.0465 -0.1551 -0.2715
   22loPI    C1  337   5.936   0.293   9.257  0.0570 -0.3422  0.2148
   22loPI    C2  338   5.786   0.076   9.557  0.1358 -0.3116  0.2767
   22loPI    C3  339   6.147   0.243   9.593  0.0212 -0.0600  0.2820
   22loPI   PO4  340   5.962   0.185   9.090 -0.0540  0.0242  0.0489
   22loPI   GL1  341   5.702   0.078   8.785  0.0370 -0.0407 -0.0970
   22loPI   GL2  342   5.946  -0.182   8.705 -0.1549  0.0994 -0.3061
   22loPI   C1A  343   5.526  -0.335   8.480 -0.0791  0.0122 -0.3405
   22loPI   C2A  344   5.735  -0.591   8.185  0.1361 -0.2476  0.1311
   22loPI   C3A  345   6.046  -0.574   7.770  0.0069  0.3756 -0.1381
   22loPI   C4A  346   6.204  -0.644   7.367  0.2480  0.0844  0.1666
   22loPI   C5A  347   6.532  -0.475   7.097  0.2731 -0.1052 -0.0549
   22loPI   C6A  348   6.832  -0.200   6.777  0.1093  0.1769 -0.4157
   22loPI   C1B  349   5.954   0.074   8.320 -0.1393  0.1947 -0.2276
   22loPI   C2B  350   6.284   0.248   8.007  0.2830 -0.5021 -0.1015
   22loPI   C3B  351   6.197   0.364   7.573 -0.1207  0.1136 -0.0595
   22loPI   C4B  352   6.125   0.408   7.178 -0.0898  0.1718 -0.0723
   23loPI    C1  353   5.830   9.677   9.763 -0.1169 -0.2746 -0.1070
   23loPI    C2  354   5.815   9.771  10.151  0.0686  0.0758 -0.1800
   23loPI    C3  355   5.889   9.394  10.039 -0.2371 -0.0799  0.1222
   23loPI   PO4  356   5.599   9.778   9.659  0.0782 -0.2509  0.1436
   23loPI   GL1  357   5.467   9.818   9.289  0.0737 -0.0432  0.0025
   23loPI   GL2  358   5.847   9.857   9.259 -0.0914 -0.0622 -0.1781
   23loPI   C1A  359   5.228  10.036   8.983 -0.2505 -0.1478  0.2296
   23loPI   C2A  360   5.278  10.131   8.547 -0.1535  0.2335  0.1550
   23loPI   C3A  361   5.256  10.275   8.089 -0.0144  0.0122 -0.1456
   23loPI   C4A  362   5.181  10.402   7.746 -0.3453  0.0357  0.1554
   23loPI   C5A  363   5.362  10.514   7.412 -0.0233  0.2068 -0.0019
   23loPI   C6A  364   5.693  10.835   7.356 -0.0168 -0.0349 -0.0976
   23loPI   C1B  365   5.787  10.144   9.030 -0.1500 -0.4832 -0.0056
   23loPI   C2B  366   5.751  10.318   8.635  0.3193  0.0506 -0.3159
   23loPI   C3B  367   5.804  10.347   8.137  0.1191 -0.0138  0.0848
   23loPI   C4B  368   5.782  10.304   7.616  0.0801 -0.0276 -0.2173
   24loPI    C1  369  13.035   3.132   9.805 -0.1432 -0.0607  0.3100
   24loPI    C2  370  13.195   3.496   9.843 -0.0447 -0.0699  0.0124
   24loPI    C3  371  13.224   3.232  10.143  0.1897  0.0476  0.0963
   24loPI   PO4  372  12.839   3.140   9.712  0.1208 -0.3636 -0.0178
   24loPI   GL1  373  12.692   3.166   9.326 -0.1655 -0.0250 -0.1486
   24loPI   GL2  374  12.919   3.350   9.171  0.0718  0.1402 -0.3760
   24loPI   C1A  375  12.617   2.897   8.950  0.2465  0.0233  0.1096
   24loPI   C2A  376  12.463   2.748   8.505  0.0697  0.1581 -0.3751
   24loPI   C3A  377  12.548   2.755   7.943 -0.3630 -0.2692 -0.1805
   24loPI   C4A  378  12.806   2.824   7.518 -0.1275 -0.1184  0.0304
   24loPI   C5A  379  12.860   3.247   7.328 -0.1360  0.0718  0.4232
   24loPI   C6A  380  12.954   3.703   7.144 -0.1881  0.1990 -0.0514
   24loPI   C1B  381  13.017   3.419   8.726  0.0769 -0.0315  0.1055
   24loPI   C2B  382  13.100   3.504   8.283  0.0050 -0.5207  0.1128
   24loPI   C3B  383  13.119   3.738   7.938  0.4725 -0.1734  0.2180
   24loPI   C4B  384  13.182   3.998   7.645 -0.1050  0.3519  0.3532
   25loPI    C1  385   1.207  15.863   9.568 -0.0287 -0.3636 -0.1513
   25loPI    C2  386   0.919  15.621   9.705 -0.2482 -0.0193  0.0115
   25loPI    C3  387   1.144  15.830   9.961  0.1980 -0.3327 -0.1110
   25loPI   PO4  388   1.386  15.714   9.343 -0.0254  0.1642  0.0986
   25loPI   GL1  389   1.640  15.587   8.883  0.0078 -0.1723 -0.1316
   25loPI   GL2  390   1.875  15.690   9.099  0.0347 -0.2956  0.1456
   25loPI   C1A  391   1.946  15.927   8.683 -0.2006 -0.1848  0.0854
   25loPI   C2A  392   2.045  16.053   8.213  0.2814  0.1071 -0.1235
   25loPI   C3A  393   2.326  15.797   7.946  0.1248 -0.2670  0.1773
   25loPI   C4A  394   2.531  15.600   7.576 -0.0456  0.0985  0.1488
   25loPI   C5A  395   2.581  15.295   7.177  0.1856 -0.0628 -0.2029
   25loPI   C6A  396   2.817  15.078   6.851 -0.5120 -0.3168  0.2648
   25loPI   C1B  397   2.282  15.662   8.898 -0.1959 -0.1773 -0.1161
   25loPI   C2B  398   2.468  15.700   8.522  0.2018 -0.2035  0.0221
   25loPI   C3B  399   2.528  15.333   8.112  0.0732  0.0094  0.0928
   25loPI   C4B  400   2.640  15.109   7.821 -0.2076 -0.1836 -0.2193
   26loPI    C1  401   4.860   1.802   9.408  0.0820  0.1644  0.0505
   26loPI    C2  402   5.123   1.835   9.707  0.1123  0.0959  0.0317
   26loPI    C3  403   4.735   1.903   9.774  0.1254  0.1280  0.0756
   26loPI   PO4  404   4.877   1.914   9.199 -0.1703 -0.2103  0.1522
   26loPI   GL1  405   5.025   1.754   8.825  0.2675 -0.0255 -0.2406
   26loPI   GL2  406   5.219   1.980   8.679 -0.0669 -0.0227 -0.1409
   26loPI   C1A  407   4.778   1.923   8.449  0.0640  0.1477  0.1766
   26loPI   C2A  408   4.390   1.812   8.155 -0.0826  0.0346 -0.0040
   26loPI   C3A  409   4.370   1.705   7.726  0.0376  0.3460  0.2292
   26loPI   C4A  410   4.182   1.514   7.331  0.0202  0.0589  0.3376
   26loPI   C5A  411   4.100   1.118   7.109 -0.3043  0.0723 -0.2113
   26loPI   C6A  412   3.768   0.969   7.170  0.0768  0.1598 -0.3122
   26loPI   C1B  413   5.563   1.844   8.367  0.0698  0.3270  0.2118
   26loPI   C2B  414   5.812   1.716   8.026 -0.4776 -0.1119  0.1229
   26loPI   C3B  415   5.767   1.477   7.626 -0.2082 -0.0514 -0.0703
   26loPI   C4B  416   5.610   1.654   7.269  0.1001  0.2679 -0.2735
   27loPI    C1  417  14.306   3.654  10.010 -0.0144  0.0700 -0.0773
   27loPI    C2  418  14.685   3.773   9.967  0.0428 -0.0925 -0.0289
   27loPI    C3  419  14.603   3.387  10.031 -0.1297 -0.0547 -0.0182
   27loPI   PO4  420  14.170   3.812   9.844  0.1245 -0.1421 -0.0923
   27loPI   GL1  421  14.029   3.685   9.453  0.1325 -0.0782 -0.1922
   27loPI   GL2  422  13.826   3.443   9.420  0.2291  0.3219  0.1710
   27loPI   C1A  423  14.150   3.861   9.056  0.2521 -0.2382  0.0123
   27loPI   C2A  424  14.263   4.101   8.755 -0.2474  0.0943  0.0901
   27loPI   C3A  425  14.317   3.917   8.412 -0.0185  0.2219 -0.1417
   27loPI   C4A  426  14.402   3.972   7.978 -0.2836 -0.2625 -0.1485
   27loPI   C5A  427  14.114   3.837   7.688 -0.0271  0.0090  0.0153
   27loPI   C6A  428  14.215   3.588   7.386 -0.0609  0.0411  0.1464
   27loPI   C1B  429  13.899   3.448   8.987  0.0641  0.0619 -0.1349
   27loPI   C2B  430  13.975   3.551   8.591 -0.0778 -0.1203  0.1820
   27loPI   C3B  431  13.869   3.653   8.130  0.2199  0.1367 -0.1572
   27loPI   C4B  432  13.687   3.543   7.784 -0.1884  0.0840 -0.0698
   28loPI    C1  433  10.039   6.081   9.366  0.0226  0.1837  0.0330
   28loPI    C2  434   9.677   6.051   9.532  0.1361 -0.1339  0.2313
   28loPI    C3  435   9.972   6.236   9.728  0.1262 -0.0215  0.1413
   28loPI   PO4  436  10.037   6.143   9.096 -0.0838  0.0423  0.0053
   28loPI   GL1  437   9.986   6.067   8.701  0.0607 -0.3897  0.2231
   28loPI   GL2  438  10.288   5.900   8.627 -0.1466 -0.3830  0.0672
   28loPI   C1A  439  10.049   6.286   8.319  0.2061 -0.0790 -0.2566
   28loPI   C2A  440  10.254   6.257   7.879  0.0193  0.2447  0.1094
   28loPI   C3A  441  10.398   6.331   7.398  0.0898 -0.0567 -0.0228
   28loPI   C4A  442  10.454   6.321   6.842  0.0121 -0.0884 -0.6519
   28loPI   C5A  443  10.549   6.633   6.525 -0.1151 -0.1389  0.0802
   28loPI   C6A  444  10.527   6.861   6.135  0.2230  0.5230  0.2813
   28loPI   C1B  445  10.358   5.853   8.174  0.2069 -0.0600 -0.2027
   28loPI   C2B  446  10.233   5.689   7.753  0.1116 -0.1880 -0.1768
   28loPI   C3B  447   9.992   5.616   7.334  0.2151  0.1012  0.2077
   28loPI   C4B  448   9.630   5.464   6.943 -0.0113  0.1097 -0.0765
   29loPI    C1  449   8.701  12.696   9.808 -0.3288  0.0990  0.4536
   29loPI    C2  450   8.624  13.084   9.749  0.0020  0.0947 -0.0717
   29loPI    C3  451   8.854  12.970  10.056 -0.0182  0.3214  0.0301
   29loPI   PO4  452   8.533  12.590   9.704 -0.1747  0.1420  0.0782
   29loPI   GL1  453   8.424  12.675   9.287 -0.1364  0.1372 -0.1291
   29loPI   GL2  454   8.539  13.015   9.290  0.2631  0.0594 -0.0771
   29loPI   C1A  455   8.458  12.466   8.926 -0.1211  0.1110  0.0771
   29loPI   C2A  456   8.436  12.491   8.505  0.1328  0.3614  0.0719
   29loPI   C3A  457   8.081  12.567   8.198  0.0431 -0.0327  0.0413
   29loPI   C4A  458   8.043  12.741   7.801  0.1605  0.1013 -0.4236
   29loPI   C5A  459   8.116  12.722   7.372 -0.1595 -0.1873 -0.2662
   29loPI   C6A  460   8.524  12.730   7.127  0.2426 -0.0628  0.0822
   29loPI   C1B  461   8.683  13.154   8.829  0.1597 -0.0383  0.2612
   29loPI   C2B  462   8.622  13.313   8.406 -0.2120  0.0874 -0.1421
   29loPI   C3B  463   8.638  13.331   7.885 -0.0652  0.2836 -0.0694
   29loPI   C4B  464   8.824  13.576   7.565  0.0880  0.0805  0.0722
   30loPI    C1  465   9.551  11.640   9.550 -0.0185 -0.2870  0.0900
   30loPI    C2  466   9.716  11.612   9.913 -0.0663  0.4621  0.1866
   30loPI    C3  467   9.319  11.648   9.876 -0.0992  0.0055  0.0289
   30loPI   PO4  468   9.726  11.791   9.336  0.2403 -0.1651  0.0020
   30loPI   GL1  469   9.563  11.941   9.058  0.0528 -0.0836  0.2608
   30loPI   GL2  470   9.354  12.242   9.196 -0.2036 -0.0048 -0.0271
   30loPI   C1A  471   9.563  12.084   8.581 -0.2649  0.0956  0.0784
   30loPI   C2A  472   9.391  12.121   8.228 -0.2067 -0.0211  0.0278
   30loPI   C3A  473   9.440  12.509   7.959  0.0426  0.1764  0.0774
   30loPI   C4A  474   9.311  12.888   7.647  0.2038  0.2635 -0.1199
   30loPI   C5A  475   8.917  13.070   7.508 -0.0097  0.0955  0.1758
   30loPI   C6A  476   8.507  12.839   7.643  0.1604 -0.0546 -0.0685
   30loPI   C1B  477   9.289  12.433   8.930 -0.1456  0.1664 -0.1143
   30loPI   C2B  478   9.315  12.514   8.564  0.0787  0.2811 -0.2731
   30loPI   C3B  479   9.008  12.408   8.267 -0.0425 -0.1906 -0.0514
   30loPI   C4B  480   8.529  12.409   8.042 -0.1793 -0.2688 -0.2317
   31loPI    C1  481   0.186  16.009   9.664  0.0414  0.0156  0.0845
   31loPI    C2  482   0.053  15.702   9.883  0.0052  0.1674  0.2790
   31loPI    C3  483   0.426  15.838   9.935  0.1679 -0.1110 -0.1048
   31loPI   PO4  484   0.048  15.983   9.441  0.1403  0.0450 -0.2518
   31loPI   GL1  485   0.033  15.723   9.212 -0.2984  0.1191  0.0178
   31loPI   GL2  486  -0.180  15.533   9.187 -0.1495 -0.1015 -0.1498
   31loPI   C1A  487  -0.166  15.906   8.757 -0.0859 -0.0003 -0.0301
   31loPI   C2A  488  -0.159  15.970   8.309 -0.2089 -0.2954 -0.0734
   31loPI   C3A  489  -0.319  15.735   7.982  0.3285  0.1992  0.0426
   31loPI   C4A  490  -0.401  15.441   7.736  0.1537  0.0951 -0.2403
   31loPI   C5A  491  -0.770  15.141   7.690  0.0942 -0.4526  0.1037
   31loPI   C6A  492  -1.068  14.868   7.525  0.1065  0.1146 -0.1826
   31loPI   C1B  493   0.048  15.432   8.838  0.2015 -0.2166  0.2847
   31loPI   C2B  494   0.248  15.619   8.460 -0.0070 -0.2563  0.5234
   31loPI   C3B  495   0.335  15.686   8.107  0.0316  0.1674  0.3229
   31loPI   C4B  496   0.089  16.029   7.834  0.3316  0.2021  0.3617
   32loPI    C1  497  16.928  16.520  10.275 -0.0928  0.0795  0.1718
   32loPI    C2  498  17.262  16.698  10.403 -0.0814 -0.0866  0.3796
   32loPI    C3  499  16.917  16.900  10.397  0.0081  0.0648  0.2285
   32loPI   PO4  500  17.044  16.408  10.055  0.2565  0.1709 -0.0361
   32loPI   GL1  501  16.933  16.243   9.668 -0.1122  0.1952 -0.3145
   32loPI   GL2  502  16.816  16.493   9.491  0.4439  0.1265  0.0610
   32loPI   C1A  503  17.175  15.942   9.483  0.0250  0.1346  0.0374
   32loPI   C2A  504  17.453  15.769   9.250 -0.1817 -0.0537  0.0051
   32loPI   C3A  505  17.502  15.811   8.776  0.1565 -0.1479 -0.2421
   32loPI   C4A  506  17.594  15.821   8.312 -0.0824 -0.1372 -0.3777
   32loPI   C5A  507  17.525  15.765   7.959  0.2959 -0.1241  0.3040
   32loPI   C6A  508  17.439  15.409   7.763  0.0537 -0.1846  0.0796
   32loPI   C1B  509  17.149  16.618   9.221  0.0086  0.1149 -0.0905
   32loPI   C2B  510  17.102  16.633   8.784 -0.0702  0.3101 -0.1747
   32loPI   C3B  511  16.927  16.660   8.462  0.0372  0.2074 -0.4327
   32loPI   C4B  512  16.788  16.513   8.103  0.2460  0.4169 -0.0479
   33loPI    C1  513  16.628  17.899   9.951  0.0352  0.0034 -0.0398
   33loPI    C2  514  16.996  17.747   9.982  0.0043 -0.0922 -0.1349
   33loPI    C3  515  16.769  17.789  10.308  0.0538 -0.1475 -0.0930
   33loPI   PO4  516  16.625  18.135   9.744  0.0760 -0.0686  0.1110
   33loPI   GL1  517  16.698  18.177   9.283 -0.0564  0.0816 -0.1460
   33loPI   GL2  518  16.846  18.003   8.969 -0.1672  0.1056 -0.1710
   33loPI   C1A  519  16.325  18.434   9.089 -0.1554 -0.0917  0.2124
   33loPI   C2A  520  16.327  18.661   8.676  0.0350  0.1215 -0.1695
   33loPI   C3A  521  16.307  18.724   8.248 -0.1013 -0.2225  0.0470
   33loPI   C4A  522  16.307  18.796   7.818 -0.1071  0.0349  0.2706
   33loPI   C5A  523  16.368  18.686   7.390  0.0487 -0.0539  0.3085
   33loPI   C6A  524  16.211  18.628   6.936  0.1653 -0.5146 -0.0454
   33loPI   C1B  525  16.411  18.060   8.739  0.1596 -0.3989 -0.0083
   33loPI   C2B  526  16.264  18.273   8.346  0.1961  0.1668 -0.0864
   33loPI   C3B  527  16.352  18.296   7.912  0.2343 -0.0877 -0.0625
   33loPI   C4B  528  16.493  18.236   7.496  0.5087  0.0738 -0.3294
   34loPI    C1  529  16.410   2.261   9.884 -0.0744 -0.1638  0.0283
   34loPI    C2  530  16.273   2.233  10.259  0.2988 -0.1229  0.1714
   34loPI    C3  531  16.667   2.240  10.190  0.2331 -0.0748 -0.2194
   34loPI   PO4  532  16.328   2.495   9.832  0.2148  0.0980 -0.2200
   34loPI   GL1  533  16.300   2.944   9.641 -0.2387  0.3774 -0.0234
   34loPI   GL2  534  16.454   3.382   9.650 -0.3004  0.1184 -0.0296
   34loPI   C1A  535  16.184   2.956   9.231  0.2617 -0.1262 -0.3357
   34loPI   C2A  536  16.134   2.643   8.905 -0.0168  0.0267  0.1356
   34loPI   C3A  537  15.917   2.482   8.486 -0.0469  0.1383  0.1941
   34loPI   C4A  538  15.998   2.454   8.054 -0.2329 -0.1361 -0.0820
   34loPI   C5A  539  15.940   2.434   7.564 -0.1119  0.0603  0.1329
   34loPI   C6A  540  16.002   2.343   7.151  0.2488  0.0093  0.1108
   34loPI   C1B  541  16.182   3.446   9.324  0.0818 -0.0075  0.0963
   34loPI   C2B  542  16.112   3.366   8.916  0.3059  0.0567 -0.2081
   34loPI   C3B  543  15.933   3.117   8.641  0.0801  0.0510  0.1745
   34loPI   C4B  544  15.887   2.914   8.222 -0.0220 -0.2597 -0.1744
   35loPI    C1  545  10.786  13.231  10.192  0.2201 -0.1507  0.2803
   35loPI    C2  546  10.573  13.563  10.253  0.2338 -0.0416 -0.2191
   35loPI    C3  547  10.679  13.333  10.563 -0.0814  0.2258  0.0959
   35loPI   PO4  548  10.657  13.106   9.994  0.1155 -0.0765  0.0179
   35loPI   GL1  549  10.710  13.099   9.597 -0.1536  0.1291 -0.2161
   35loPI   GL2  550  10.388  13.017   9.510 -0.2130 -0.1753  0.1059
   35loPI   C1A  551  10.957  13.264   9.214  0.0761  0.4138 -0.2483
   35loPI   C2A  552  10.948  13.309   8.748  0.0985  0.1796  0.0552
   35loPI   C3A  553  10.928  13.257   8.249  0.1048 -0.2694  0.0107
   35loPI   C4A  554  10.727  13.046   7.977 -0.3335 -0.1092  0.1047
   35loPI   C5A  555  10.506  12.863   7.544  0.2164 -0.1839 -0.1792
   35loPI   C6A  556  10.642  13.057   7.240 -0.1343  0.2286  0.0482
   35loPI   C1B  557  10.496  13.187   9.120 -0.0103 -0.0665  0.0792
   35loPI   C2B  558  10.382  13.475   8.810 -0.6736 -0.1497 -0.0494
   35loPI   C3B  559  10.440  13.834   8.459 -0.0871 -0.3031  0.0074
   35loPI   C4B  560  10.259  14.177   8.181 -0.1357  0.0498 -0.3007
   36loPI    C1  561  13.117  17.177  10.129 -0.0662 -0.0372 -0.1206
   36loPI    C2  562  12.933  17.511  10.007  0.1047  0.0659 -0.0997
   36loPI    C3  563  12.718  17.205  10.148 -0.0579  0.1415 -0.1801
   36loPI   PO4  564  13.281  17.133   9.875  0.1241  0.0352  0.0378
   36loPI   GL1  565  13.482  17.446   9.650 -0.0424 -0.2643 -0.0342
   36loPI   GL2  566  13.779  17.346   9.600  0.1026 -0.0720 -0.2415
   36loPI   C1A  567  13.324  17.490   9.271  0.0483 -0.1034 -0.0359
   36loPI   C2A  568  13.324  17.482   8.678 -0.0914 -0.1006  0.1188
   36loPI   C3A  569  13.500  17.480   8.253 -0.0900  0.1007  0.0460
   36loPI   C4A  570  13.601  17.754   7.942 -0.1045 -0.0920  0.1894
   36loPI   C5A  571  13.857  17.772   7.593 -0.2759  0.0456  0.2100
   36loPI   C6A  572  13.967  17.625   7.249  0.3195 -0.3871  0.1161
   36loPI   C1B  573  13.775  17.525   9.095  0.0522 -0.2808 -0.0940
   36loPI   C2B  574  13.843  17.425   8.642 -0.1839 -0.3979 -0.0603
   36loPI   C3B  575  14.042  17.669   8.235  0.1409 -0.0966  0.1684
   36loPI   C4B  576  14.253  17.513   7.835  0.1001 -0.1185  0.1159
   37loPI    C1  577   5.553  12.304  10.297  0.1778  0.0543  0.2694
   37loPI    C2  578   5.630  12.109  10.638  0.0738 -0.0133  0.2548
   37loPI    C3  579   5.506  12.489  10.649 -0.0672 -0.0601  0.2989
   37loPI   PO4  580   5.635  12.162  10.148  0.1426  0.2292 -0.0318
   37loPI   GL1  581   5.542  12.157   9.756 -0.0157  0.1816 -0.2524
   37loPI   GL2  582   5.169  12.257   9.845 -0.2023 -0.3818 -0.0062
   37loPI   C1A  583   5.675  11.899   9.382 -0.0938 -0.2211  0.0082
   37loPI   C2A  584   5.519  11.953   8.962 -0.0895 -0.4318  0.0843
   37loPI   C3A  585   5.263  11.981   8.578 -0.1378  0.1173 -0.2432
   37loPI   C4A  586   5.223  12.025   8.122 -0.1137  0.1475  0.1635
   37loPI   C5A  587   5.197  11.945   7.661 -0.0803  0.0836  0.1136
   37loPI   C6A  588   5.380  11.732   7.229  0.0052 -0.2685  0.2697
   37loPI   C1B  589   5.167  12.234   9.342  0.0305  0.1456 -0.0209
   37loPI   C2B  590   5.212  12.493   9.028  0.3890 -0.1387 -0.1724
   37loPI   C3B  591   5.334  12.849   8.984 -0.0095  0.1966  0.4248
   37loPI   C4B  592   5.463  13.230   8.719  0.0170  0.2519  0.0234
   38loPI    C1  593   5.311   7.689   9.846  0.0605  0.0389 -0.3474
   38loPI    C2  594   5.589   7.431   9.975 -0.0283 -0.0299 -0.2927
   38loPI    C3  595   5.660   7.824   9.989  0.0330 -0.0440 -0.1998
   38loPI   PO4  596   5.249   7.542   9.577 -0.0604 -0.0171 -0.0397
   38loPI   GL1  597   5.151   7.367   9.063  0.2146  0.0865  0.3984
   38loPI   GL2  598   5.100   7.679   9.117 -0.1691 -0.1563  0.1793
   38loPI   C1A  599   5.358   7.118   8.854  0.1800 -0.0479 -0.0459
   38loPI   C2A  600   5.665   7.308   8.577  0.2512 -0.0229 -0.1822
   38loPI   C3A  601   5.663   7.504   8.262  0.0981  0.1428  0.0345
   38loPI   C4A  602   5.565   7.474   7.868  0.0780  0.2352  0.0124
   38loPI   C5A  603   5.570   7.469   7.394  0.0429 -0.1806 -0.1982
   38loPI   C6A  604   6.079   7.574   7.268  0.4240 -0.3205  0.2634
   38loPI   C1B  605   5.267   7.732   8.577 -0.2737 -0.2354  0.0192
   38loPI   C2B  606   5.158   7.663   8.104  0.3414 -0.5403  0.4211
   38loPI   C3B  607   5.035   7.577   7.671  0.1231 -0.0794  0.2312
   38loPI   C4B  608   4.995   7.691   7.168  0.2643  0.0264  0.3447
   39loPI    C1  609  11.251   5.950  10.119 -0.0276  0.1080  0.0961
   39loPI    C2  610  11.502   6.175  10.335 -0.2849  0.2486  0.2539
   39loPI    C3  611  11.108   6.243  10.351 -0.3314  0.0639 -0.0308
   39loPI   PO4  612  11.336   5.944   9.850 -0.1243  0.1875 -0.0288
   39loPI   GL1  613  11.568   5.694   9.590  0.1682  0.0745  0.0001
   39loPI   GL2  614  11.684   5.400   9.602 -0.0845 -0.0255  0.0092
   39loPI   C1A  615  11.659   5.780   9.167  0.1999  0.0646  0.1284
   39loPI   C2A  616  11.866   5.567   8.886  0.0027  0.0123  0.0221
   39loPI   C3A  617  11.971   5.445   8.465 -0.1465 -0.3619  0.0343
   39loPI   C4A  618  11.776   5.102   8.127 -0.0088  0.1674 -0.1536
   39loPI   C5A  619  11.970   4.929   7.835 -0.2993 -0.0027  0.1065
   39loPI   C6A  620  12.023   4.774   7.385 -0.0081  0.0701  0.1095
   39loPI   C1B  621  11.594   5.223   9.230  0.0740 -0.0706  0.0641
   39loPI   C2B  622  11.570   4.887   8.830  0.0401 -0.0465  0.1331
   39loPI   C3B  623  11.910   4.838   8.575  0.0122 -0.3887  0.1510
   39loPI   C4B  624  12.178   4.683   8.224  0.0004  0.0207  0.0773
   40loPI    C1  625   5.119   3.849   9.569  0.0853 -0.0483  0.0013
   40loPI    C2  626   5.301   4.138   9.776 -0.2356  0.2266 -0.0919
   40loPI    C3  627   4.919   4.047   9.853 -0.2063 -0.0147 -0.2228
   40loPI   PO4  628   5.192   3.768   9.341 -0.4854 -0.0983 -0.0022
   40loPI   GL1  629   5.037   3.955   8.904 -0.1461  0.0165 -0.1378
   40loPI   GL2  630   5.001   4.354   8.821  0.2911 -0.0969 -0.0274
   40loPI   C1A  631   4.995   3.754   8.485  0.0138 -0.4289 -0.2519
   40loPI   C2A  632   4.849   3.498   8.314  0.0289 -0.4652 -0.0577
   40loPI   C3A  633   4.569   3.616   7.895  0.2378 -0.2853 -0.1794
   40loPI   C4A  634   4.281   3.554   7.450 -0.0337  0.2176  0.3606
   40loPI   C5A  635   4.122   3.831   7.050  0.1028  0.1118 -0.1810
   40loPI   C6A  636   3.802   3.654   6.694 -0.0296  0.0035  0.0858
   40loPI   C1B  637   4.908   4.326   8.364 -0.0132 -0.2439 -0.0041
   40loPI   C2B  638   5.028   4.590   8.036 -0.0299 -0.1744 -0.0702
   40loPI   C3B  639   5.228   4.587   7.585 -0.3355  0.3102  0.1550
   40loPI   C4B  640   5.407   4.732   7.136 -0.1942  0.3184  0.3074
   41loPI    C1  641  18.234  16.589  10.100  0.1046 -0.2769  0.0591
   41loPI    C2  642  17.953  16.592  10.385 -0.3854 -0.1310 -0.4097
   41loPI    C3  643  18.115  16.936  10.260  0.1369 -0.2253 -0.0280
   41loPI   PO4  644  18.084  16.458   9.853  0.0476 -0.2523  0.3506
   41loPI   GL1  645  18.073  16.526   9.438 -0.0679  0.0924  0.1417
   41loPI   GL2  646  17.806  16.421   9.437 -0.2375 -0.1320  0.0481
   41loPI   C1A  647  18.139  16.711   9.015 -0.1943 -0.0764  0.4804
   41loPI   C2A  648  17.887  16.436   8.709  0.0855 -0.0189 -0.3238
   41loPI   C3A  649  17.730  16.327   8.291 -0.3046  0.0528 -0.0066
   41loPI   C4A  650  17.514  16.345   7.962  0.0900  0.2230 -0.1213
   41loPI   C5A  651  17.249  16.110   7.651  0.2631 -0.0813  0.0272
   41loPI   C6A  652  17.111  15.953   7.295  0.0470  0.0824 -0.0700
   41loPI   C1B  653  17.687  16.702   9.076  0.0493  0.1466 -0.1503
   41loPI   C2B  654  17.577  16.792   8.615  0.3663 -0.0181  0.0656
   41loPI   C3B  655  17.377  16.665   8.290 -0.1761  0.0744 -0.2965
   41loPI   C4B  656  17.205  16.749   7.962 -0.4735  0.0247  0.0721
   42loPI    C1  657   8.029  15.322   9.926  0.2329 -0.0115 -0.1275
   42loPI    C2  658   8.380  15.188  10.063  0.2018  0.0713  0.0368
   42loPI    C3  659   8.060  15.190  10.303  0.0137 -0.2827 -0.2013
   42loPI   PO4  660   8.063  15.214   9.661  0.2674 -0.0464  0.1751
   42loPI   GL1  661   8.098  15.507   9.289  0.1717  0.0819  0.2497
   42loPI   GL2  662   8.105  15.219   9.123 -0.0638  0.3072  0.2341
   42loPI   C1A  663   7.891  15.771   9.011 -0.0071  0.1856  0.2309
   42loPI   C2A  664   7.860  15.737   8.580 -0.4056  0.1614 -0.3289
   42loPI   C3A  665   7.755  16.069   8.296 -0.3622 -0.3224  0.2532
   42loPI   C4A  666   7.926  16.361   7.899 -0.0363 -0.4466  0.5731
   42loPI   C5A  667   8.348  16.307   7.647 -0.3351 -0.0511 -0.2006
   42loPI   C6A  668   8.587  16.289   7.306 -0.1937 -0.1093 -0.1539
   42loPI   C1B  669   7.914  15.069   8.907 -0.1596 -0.1188  0.0237
   42loPI   C2B  670   7.817  14.888   8.500 -0.2258  0.2375  0.3233
   42loPI   C3B  671   7.445  14.851   8.213 -0.0515 -0.2433  0.1955
   42loPI   C4B  672   6.971  14.870   8.215  0.2165 -0.2232 -0.0356
   43loPI    C1  673   2.303   7.080   9.604 -0.2108 -0.1795 -0.2115
   43loPI    C2  674   2.309   6.687   9.675  0.5256 -0.1437  0.0101
   43loPI    C3  675   2.568   6.847   9.415  0.1909  0.1921 -0.1255
   43loPI   PO4  676   2.010   7.157   9.564  0.0804 -0.1462 -0.3039
   43loPI   GL1  677   1.873   6.971   9.217 -0.2329 -0.1145  0.1859
   43loPI   GL2  678   2.184   6.986   9.028 -0.1092 -0.1104 -0.0725
   43loPI   C1A  679   1.740   6.904   8.799  0.2331 -0.1924 -0.0078
   43loPI   C2A  680   1.705   7.220   8.478 -0.0849 -0.0316 -0.0590
   43loPI   C3A  681   1.634   7.336   8.054  0.4018  0.1294 -0.0355
   43loPI   C4A  682   1.987   7.326   7.779 -0.2922  0.2043 -0.1416
   43loPI   C5A  683   1.976   7.140   7.283 -0.1077 -0.4228  0.0927
   43loPI   C6A  684   1.820   7.179   6.849  0.0772  0.3184 -0.1950
   43loPI   C1B  685   2.201   7.221   8.689  0.1883  0.0465  0.1149
   43loPI   C2B  686   2.173   7.274   8.280 -0.2211 -0.1993  0.0148
   43loPI   C3B  687   2.469   7.334   7.890 -0.1219  0.2330 -0.1343
   43loPI   C4B  688   2.513   7.237   7.468  0.0860  0.2952 -0.0990
   44loPI    C1  689   0.155   7.538  10.031 -0.4252 -0.2966 -0.0537
   44loPI    C2  690   0.314   7.268  10.280 -0.0500  0.0234  0.0639
   44loPI    C3  691   0.103   7.575  10.426  0.1705  0.2117 -0.0063
   44loPI   PO4  692   0.074   7.363   9.760 -0.1452  0.0651  0.0267
   44loPI   GL1  693   0.008   7.398   9.323  0.1211  0.1391 -0.2807
   44loPI   GL2  694  -0.301   7.480   9.425  0.1460 -0.0343 -0.0087
   44loPI   C1A  695  -0.069   7.400   8.880  0.0342 -0.0717 -0.0725
   44loPI   C2A  696  -0.076   7.355   8.467 -0.1954 -0.2064 -0.2494
   44loPI   C3A  697  -0.258   7.222   8.078  0.2130  0.3254 -0.0611
   44loPI   C4A  698  -0.460   6.825   7.901 -0.2798  0.2462 -0.2600
   44loPI   C5A  699  -0.852   6.631   7.626 -0.0358 -0.0044  0.1796
   44loPI   C6A  700  -0.937   6.314   7.409  0.0913  0.0275  0.0518
   44loPI   C1B  701  -0.381   7.752   9.035 -0.1289  0.1142  0.1499
   44loPI   C2B  702  -0.530   8.071   8.694  0.1118 -0.2470  0.0450
   44loPI   C3B  703  -0.729   8.217   8.378 -0.2144 -0.1974  0.0810
   44loPI   C4B  704  -0.926   8.551   8.058  0.0107  0.0931  0.1099
   45loPI    C1  705  10.388   9.411   9.459 -0.3062  0.2058 -0.1310
   45loPI    C2  706  10.245   9.710   9.683 -0.1250  0.0084  0.2583
   45loPI    C3  707  10.245   9.336   9.825  0.0716 -0.1090 -0.0410
   45loPI   PO4  708  10.318   9.375   9.202  0.2033  0.1213  0.2125
   45loPI   GL1  709  10.240   9.076   9.024 -0.1138 -0.1598 -0.0530
   45loPI   GL2  710  10.216   8.706   9.084  0.1949 -0.2288  0.1587
   45loPI   C1A  711  10.362   8.963   8.642  0.2368 -0.2408  0.0562
   45loPI   C2A  712  10.372   9.226   8.204  0.1284  0.3282 -0.3749
   45loPI   C3A  713  10.306   9.436   7.839  0.0452  0.0221 -0.4179
   45loPI   C4A  714  10.369   9.710   7.615 -0.1650  0.0277 -0.1574
   45loPI   C5A  715  10.298   9.829   7.209  0.1922  0.2855 -0.0372
   45loPI   C6A  716  10.089   9.697   6.898 -0.0855  0.0451 -0.1543
   45loPI   C1B  717   9.977   8.391   8.849 -0.1253  0.1650 -0.1894
   45loPI   C2B  718   9.837   8.016   8.428  0.1424 -0.1125  0.1828
   45loPI   C3B  719   9.830   8.041   7.990  0.3429 -0.1383  0.2855
   45loPI   C4B  720   9.528   8.235   7.741 -0.0827 -0.0177  0.1259
   46loPI    C1  721   7.266   1.603   9.534 -0.0803 -0.0704 -0.0650
   46loPI    C2  722   7.490   1.832   9.773  0.0275 -0.0235 -0.2092
   46loPI    C3  723   7.092   1.869   9.776  0.0314  0.0137 -0.0764
   46loPI   PO4  724   7.391   1.395   9.482  0.0633 -0.0460 -0.0071
   46loPI   GL1  725   7.478   1.260   9.064  0.3978  0.0155  0.3132
   46loPI   GL2  726   7.570   1.003   8.945 -0.0433  0.1814  0.1827
   46loPI   C1A  727   7.117   1.449   8.787  0.2232 -0.1032  0.4932
   46loPI   C2A  728   6.848   1.361   8.423 -0.0940 -0.1525  0.3524
   46loPI   C3A  729   6.700   1.509   7.938  0.0674 -0.0776  0.0711
   46loPI   C4A  730   6.535   1.944   7.814 -0.2612  0.1340  0.0372
   46loPI   C5A  731   6.564   1.989   7.342 -0.1446 -0.1536  0.0150
   46loPI   C6A  732   6.500   1.728   7.030  0.2520  0.0443 -0.0951
   46loPI   C1B  733   7.114   0.926   8.798 -0.3107 -0.2376 -0.1535
   46loPI   C2B  734   6.915   0.895   8.551 -0.2786 -0.0817  0.3316
   46loPI   C3B  735   6.738   0.586   8.344 -0.0297 -0.0752 -0.0730
   46loPI   C4B  736   6.625   0.524   7.893 -0.0489 -0.0284  0.4862
   47loPI    C1  737   6.374   9.531   9.863  0.0500 -0.2542  0.0230
   47loPI    C2  738   6.701   9.514  10.092  0.0058 -0.1563  0.0937
   47loPI    C3  739   6.352   9.626  10.251  0.0411  0.2351 -0.0911
   47loPI   PO4  740   6.572   9.546   9.585  0.1414 -0.0433  0.1145
   47loPI   GL1  741   6.564   9.644   9.166  0.3229 -0.1851  0.0554
   47loPI   GL2  742   6.713   9.904   8.931 -0.0294  0.0080  0.0379
   47loPI   C1A  743   6.239   9.811   8.861  0.3202  0.0300 -0.4229
   47loPI   C2A  744   6.109   9.964   8.558  0.2680  0.4283  0.1129
   47loPI   C3A  745   6.123   9.891   8.074 -0.2198 -0.0871 -0.2259
   47loPI   C4A  746   6.181   9.882   7.684 -0.1043  0.1674  0.0980
   47loPI   C5A  747   6.117  10.088   7.276  0.2065  0.1076 -0.0515
   47loPI   C6A  748   6.087  10.434   7.160  0.0484  0.1320 -0.0003
   47loPI   C1B  749   6.975   9.879   8.514 -0.0839  0.1421 -0.1207
   47loPI   C2B  750   7.147   9.988   8.107  0.1225  0.0018  0.0332
   47loPI   C3B  751   7.443  10.215   7.862  0.1174 -0.2289 -0.5113
   47loPI   C4B  752   7.600  10.444   7.480 -0.1579  0.1213  0.0399
   48loPI    C1  753   5.163  11.251   9.715  0.1918  0.0631 -0.2293
   48loPI    C2  754   5.024  10.890   9.610 -0.0102  0.0463  0.0833
   48loPI    C3  755   5.223  10.936   9.954  0.0519  0.2256  0.0247
   48loPI   PO4  756   5.379  11.256   9.518 -0.1746 -0.0622 -0.0352
   48loPI   GL1  757   5.337  11.282   9.030 -0.0111  0.1523 -0.0656
   48loPI   GL2  758   5.642  11.104   9.104 -0.4227 -0.0029  0.1938
   48loPI   C1A  759   5.402  11.542   8.648  0.3287 -0.0058  0.2949
   48loPI   C2A  760   5.014  11.611   8.361 -0.2003 -0.0755  0.0262
   48loPI   C3A  761   4.689  11.729   8.038 -0.1113 -0.1602 -0.0589
   48loPI   C4A  762   4.272  11.909   7.955 -0.2723  0.0401 -0.1943
   48loPI   C5A  763   3.809  12.019   7.998 -0.3037 -0.0529  0.1516
   48loPI   C6A  764   3.527  12.299   7.991 -0.2162  0.0925  0.2547
   48loPI   C1B  765   5.591  10.841   8.713 -0.1036 -0.0059  0.3303
   48loPI   C2B  766   5.641  10.844   8.357 -0.1583  0.0400  0.0965
   48loPI   C3B  767   5.465  10.850   7.861 -0.3072 -0.3289 -0.1085
   48loPI   C4B  768   5.238  11.019   7.495  0.0829  0.1331  0.0314
   49loPI    C1  769   8.763   6.438   9.352  0.0343 -0.1629  0.1043
   49loPI    C2  770   9.037   6.651   9.551  0.0301 -0.0813  0.0237
   49loPI    C3  771   8.649   6.703   9.630  0.0233  0.0268 -0.0782
   49loPI   PO4  772   8.812   6.368   9.032  0.1887 -0.0944 -0.0107
   49loPI   GL1  773   8.968   6.565   8.649 -0.3291 -0.2877 -0.1008
   49loPI   GL2  774   8.915   6.455   8.348  0.1212 -0.0893  0.2393
   49loPI   C1A  775   8.869   6.950   8.464  0.2063  0.0751  0.1654
   49loPI   C2A  776   8.669   6.874   8.106  0.0293  0.1582  0.1541
   49loPI   C3A  777   8.604   6.939   7.690 -0.0968  0.2274  0.3632
   49loPI   C4A  778   8.572   6.844   7.323  0.0747 -0.0125 -0.1335
   49loPI   C5A  779   8.805   7.185   7.003  0.1974 -0.0270 -0.4793
   49loPI   C6A  780   9.075   7.588   7.103  0.1052 -0.1353 -0.1010
   49loPI   C1B  781   9.146   6.210   8.185  0.1865 -0.1273 -0.2477
   49loPI   C2B  782   9.413   6.449   7.900  0.0166  0.0968  0.0976
   49loPI   C3B  783   9.821   6.577   7.889 -0.3689 -0.0108 -0.1165
   49loPI   C4B  784  10.058   6.599   7.561  0.3633 -0.0142  0.0861
   50loPI    C1  785  15.559  14.125  10.013  0.0851 -0.0320  0.1109
   50loPI    C2  786  15.955  14.128  10.064  0.0953  0.1243  0.0268
   50loPI    C3  787  15.747  14.469  10.088 -0.0677  0.0076  0.3197
   50loPI   PO4  788  15.583  13.957   9.769  0.3128 -0.2239 -0.0097
   50loPI   GL1  789  15.407  13.978   9.323  0.2636  0.0503  0.1854
   50loPI   GL2  790  15.084  13.960   9.380  0.1948  0.3095  0.0904
   50loPI   C1A  791  15.447  14.123   8.930 -0.3179 -0.1794  0.0993
   50loPI   C2A  792  15.416  14.513   8.781  0.1612 -0.1056  0.3444
   50loPI   C3A  793  15.370  14.528   8.275  0.0267  0.5063  0.1285
   50loPI   C4A  794  15.424  14.725   7.897  0.2165 -0.1166  0.0447
   50loPI   C5A  795  15.634  14.989   7.636  0.0880 -0.1922  0.1357
   50loPI   C6A  796  15.968  15.206   7.753 -0.4201 -0.3578 -0.1145
   50loPI   C1B  797  14.935  14.030   8.952  0.1378 -0.0748  0.0914
   50loPI   C2B  798  14.977  13.963   8.495  0.0645 -0.0593 -0.1232
   50loPI   C3B  799  14.843  14.168   8.073  0.1899  0.0139  0.1856
   50loPI   C4B  800  14.849  14.467   7.769  0.1178  0.0426  0.0729
   51loPI    C1  801   7.811  10.036   9.526 -0.1070  0.1805  0.0294
   51loPI    C2  802   7.986  10.362   9.375  0.2757  0.0281  0.1321
   51loPI    C3  803   8.208  10.045   9.477 -0.0486 -0.1187  0.3994
   51loPI   PO4  804   7.678   9.966   9.318 -0.4326 -0.0734 -0.1320
   51loPI   GL1  805   7.421  10.087   9.077  0.0735  0.1539  0.1309
   51loPI   GL2  806   7.726  10.297   8.957 -0.0672  0.4088 -0.2793
   51loPI   C1A  807   7.492  10.196   8.566 -0.1096  0.0150 -0.3525
   51loPI   C2A  808   7.254  10.452   8.268  0.5004  0.1335  0.1733
   51loPI   C3A  809   6.928  10.449   7.817  0.0651 -0.2503  0.0876
   51loPI   C4A  810   7.112  10.363   7.479 -0.1022 -0.1666  0.1156
   51loPI   C5A  811   7.238  10.564   7.102 -0.2134  0.0981 -0.0451
   51loPI   C6A  812   7.107  10.757   6.810 -0.3030 -0.0511 -0.0871
   51loPI   C1B  813   7.792  10.602   8.614 -0.2147  0.3838 -0.2570
   51loPI   C2B  814   7.759  10.619   8.103 -0.0088  0.2163 -0.2064
   51loPI   C3B  815   7.907  10.831   7.686  0.1956 -0.1410  0.1228
   51loPI   C4B  816   7.710  10.883   7.215 -0.0452  0.0607  0.2259
   52loPI    C1  817  15.589   9.846  10.010  0.0154  0.1697 -0.1241
   52loPI    C2  818  15.835  10.130   9.873 -0.0652  0.2470 -0.1096
   52loPI    C3  819  15.674  10.164  10.237  0.0623  0.0962 -0.0380
   52loPI   PO4  820  15.634   9.608   9.898 -0.2931  0.1189  0.1325
   52loPI   GL1  821  15.557   9.612   9.509  0.0930  0.1689  0.0335
   52loPI   GL2  822  15.689   9.547   9.308  0.0800 -0.1921  0.0704
   52loPI   C1A  823  15.626  10.042   9.383 -0.0095  0.0834 -0.0358
   52loPI   C2A  824  15.859  10.335   9.029  0.0170 -0.0251 -0.2019
   52loPI   C3A  825  16.062  10.401   8.665 -0.0955  0.3073 -0.1434
   52loPI   C4A  826  16.415  10.626   8.479  0.0862 -0.2060  0.0959
   52loPI   C5A  827  16.514  10.890   8.178 -0.2861 -0.2870  0.1596
   52loPI   C6A  828  16.818  11.057   7.913 -0.2351  0.1518 -0.0433
   52loPI   C1B  829  15.744   9.645   8.988  0.1667 -0.1734  0.2124
   52loPI   C2B  830  15.594   9.746   8.539 -0.0116  0.1858  0.0450
   52loPI   C3B  831  15.392   9.929   8.226 -0.0390 -0.2746 -0.2613
   52loPI   C4B  832  15.677  10.191   8.030  0.0810 -0.1499  0.2534
   53loPI    C1  833  14.713  13.569   9.650 -0.0192 -0.0091 -0.0064
   53loPI    C2  834  14.724  13.579  10.050 -0.2306  0.0729 -0.0011
   53loPI    C3  835  14.380  13.499   9.861 -0.0125 -0.5500 -0.1596
   53loPI   PO4  836  15.005  13.418   9.572  0.1052  0.1536  0.4172
   53loPI   GL1  837  15.299  13.474   9.104 -0.1319  0.2327  0.1452
   53loPI   GL2  838  15.001  13.338   9.047 -0.1995  0.0309 -0.2733
   53loPI   C1A  839  15.294  13.669   8.749 -0.3271  0.0818  0.0936
   53loPI   C2A  840  15.558  13.810   8.536 -0.0996 -0.2799 -0.1202
   53loPI   C3A  841  15.528  13.920   8.140  0.0461  0.1659  0.3119
   53loPI   C4A  842  15.286  14.276   7.823  0.0998  0.0558 -0.1160
   53loPI   C5A  843  15.105  14.228   7.420 -0.0338 -0.0739  0.1715
   53loPI   C6A  844  15.017  14.045   7.077 -0.2121  0.6438 -0.0238
   53loPI   C1B  845  14.707  13.556   8.809  0.0030 -0.3848  0.1461
   53loPI   C2B  846  14.463  13.992   8.665 -0.0300  0.0900  0.1261
   53loPI   C3B  847  14.334  14.028   8.255 -0.1545 -0.0002 -0.1901
   53loPI   C4B  848  14.348  14.191   7.782 -0.0462 -0.0611  0.2283
   54loPI    C1  849   1.531  10.734  10.075  0.0414  0.0974  0.0441
   54loPI    C2  850   1.670  10.360  10.086  0.1149  0.1188 -0.1277
   54loPI    C3  851   1.549  10.538  10.423 -0.0232 -0.0974 -0.0608
   54loPI   PO4  852   1.619  10.978   9.830  0.1725 -0.3015  0.2738
   54loPI   GL1  853   1.484  11.251   9.459  0.1883  0.0655  0.2952
   54loPI   GL2  854   1.739  11.080   9.357  0.0904  0.2011 -0.0779
   54loPI   C1A  855   1.341  11.007   9.022 -0.2183 -0.2785 -0.1598
   54loPI   C2A  856   1.315  11.267   8.651 -0.0306 -0.0133  0.1065
   54loPI   C3A  857   1.396  11.404   8.200  0.4789  0.1137  0.0205
   54loPI   C4A  858   1.148  11.256   7.782 -0.0989 -0.2141 -0.1230
   54loPI   C5A  859   1.251  11.393   7.378 -0.2198 -0.1427 -0.0042
   54loPI   C6A  860   1.663  11.274   7.282  0.2662 -0.1453  0.0609
   54loPI   C1B  861   1.636  11.417   9.032  0.3099 -0.0294  0.4367
   54loPI   C2B  862   1.522  11.761   8.761 -0.1735 -0.1669  0.0631
   54loPI   C3B  863   1.615  11.929   8.380  0.1318  0.3376 -0.3276
   54loPI   C4B  864   1.354  12.020   8.099 -0.2948 -0.1857  0.1087
   55loPI    C1  865   7.106  16.620   9.959  0.5131  0.1374 -0.0299
   55loPI    C2  866   7.176  16.566  10.349  0.1789 -0.1130  0.0003
   55loPI    C3  867   6.801  16.559  10.211  0.2804  0.1595 -0.3016
   55loPI   PO4  868   7.233  16.515   9.803  0.0453  0.0247  0.0610
   55loPI   GL1  869   7.431  16.636   9.441 -0.2366  0.1402 -0.0165
   55loPI   GL2  870   7.778  16.849   9.588  0.6307  0.1179 -0.1968
   55loPI   C1A  871   7.522  16.702   8.910 -0.0304  0.3007 -0.0531
   55loPI   C2A  872   7.209  16.793   8.629 -0.2035  0.0794  0.0762
   55loPI   C3A  873   7.099  16.682   8.125 -0.0973  0.0899 -0.1459
   55loPI   C4A  874   7.099  16.800   7.702  0.1492  0.1042  0.0421
   55loPI   C5A  875   6.839  17.059   7.364 -0.0179 -0.0127  0.6955
   55loPI   C6A  876   6.794  17.318   7.066  0.1977 -0.1696  0.0042
   55loPI   C1B  877   8.052  16.728   9.239  0.0189  0.3759  0.2979
   55loPI   C2B  878   7.968  16.925   8.839  0.3089 -0.0598  0.0165
   55loPI   C3B  879   7.726  16.985   8.488  0.0998 -0.1932  0.2257
   55loPI   C4B  880   7.367  17.076   8.264 -0.2246  0.0457 -0.0505
   56loPI    C1  881  14.953  16.054  10.182 -0.1819 -0.2328  0.1519
   56loPI    C2  882  14.740  16.340  10.363 -0.0407 -0.1540  0.1954
   56loPI    C3  883  15.120  16.276  10.469  0.0073 -0.1861  0.0079
   56loPI   PO4  884  14.880  16.121   9.930 -0.0678  0.0740 -0.2200
   56loPI   GL1  885  14.613  15.950   9.575  0.2787 -0.2141 -0.1817
   56loPI   GL2  886  14.725  16.099   9.379  0.1373 -0.1439 -0.0064
   56loPI   C1A  887  14.478  15.754   9.088  0.0867  0.1007 -0.0683
   56loPI   C2A  888  14.526  15.762   8.723  0.1127  0.1498  0.1745
   56loPI   C3A  889  14.507  15.647   8.244  0.0308  0.1770 -0.1359
   56loPI   C4A  890  14.411  15.697   7.815  0.1196  0.0373  0.0507
   56loPI   C5A  891  14.693  15.754   7.422 -0.5183 -0.2523  0.1771
   56loPI   C6A  892  14.507  15.853   7.059 -0.2346  0.0535 -0.2716
   56loPI   C1B  893  14.723  16.168   8.902 -0.1395 -0.0145  0.3677
   56loPI   C2B  894  14.715  16.191   8.395  0.1108  0.0273  0.1649
   56loPI   C3B  895  14.505  16.139   8.131  0.1186  0.2095  0.1770
   56loPI   C4B  896  14.465  16.190   7.696  0.1654  0.1566 -0.3406
   57loPI    C1  897  15.719  12.423   9.760  0.2166  0.1782 -0.0980
   57loPI    C2  898  15.948  12.139   9.595  0.1267 -0.0154  0.1060
   57loPI    C3  899  16.077  12.338   9.917  0.1053  0.0365  0.0827
   57loPI   PO4  900  15.685  12.544   9.645 -0.1276 -0.1708  0.0060
   57loPI   GL1  901  15.804  12.440   9.270 -0.0108 -0.1726  0.0212
   57loPI   GL2  902  15.534  12.486   9.151 -0.2693  0.0220 -0.0015
   57loPI   C1A  903  16.169  12.601   9.017  0.0671 -0.1000 -0.1339
   57loPI   C2A  904  16.409  12.771   8.652 -0.3358 -0.4761  0.0160
   57loPI   C3A  905  16.345  12.937   8.250  0.2762 -0.0181  0.1529
   57loPI   C4A  906  16.052  13.058   7.989  0.0865 -0.0567  0.0255
   57loPI   C5A  907  15.587  12.969   7.832  0.0151  0.0578  0.0965
   57loPI   C6A  908  15.297  12.674   7.593  0.2085  0.2416  0.0416
   57loPI   C1B  909  15.551  12.629   8.715 -0.1429 -0.0688 -0.0582
   57loPI   C2B  910  15.540  12.765   8.342 -0.0184 -0.3689 -0.0607
   57loPI   C3B  911  15.124  13.026   8.131  0.0300  0.2827 -0.0385
   57loPI   C4B  912  15.107  13.164   7.714 -0.2261 -0.2401  0.1765
   58loPI    C1  913   7.770  13.222  10.098  0.0308 -0.0640 -0.0189
   58loPI    C2  914   7.775  13.477  10.406 -0.0437 -0.0802 -0.0042
   58loPI    C3  915   7.843  13.088  10.467 -0.1358 -0.0954  0.0037
   58loPI   PO4  916   7.832  13.260   9.796  0.1537 -0.0630  0.0027
   58loPI   GL1  917   7.565  13.096   9.450  0.2514  0.1776 -0.0074
   58loPI   GL2  918   7.393  13.381   9.479  0.1497 -0.3409  0.3308
   58loPI   C1A  919   7.628  13.001   8.951  0.1176  0.1832  0.2321
   58loPI   C2A  920   7.713  12.842   8.544  0.4361 -0.1693  0.2034
   58loPI   C3A  921   7.599  12.920   8.211 -0.3141 -0.0494 -0.3416
   58loPI   C4A  922   7.394  13.116   7.949  0.0007 -0.0229  0.1044
   58loPI   C5A  923   7.096  13.440   7.711 -0.0046 -0.1129  0.1233
   58loPI   C6A  924   7.279  13.695   7.433 -0.0423  0.2985 -0.1724
   58loPI   C1B  925   7.140  13.342   9.106  0.2321  0.3229  0.0216
   58loPI   C2B  926   7.387  13.311   8.675  0.0679 -0.1390  0.2758
   58loPI   C3B  927   7.428  13.539   8.245  0.0806  0.0024  0.0167
   58loPI   C4B  928   7.401  13.888   7.938  0.0436  0.1206 -0.3526
   59loPI    C1  929  15.410  11.972  10.107  0.0128  0.2477  0.0459
   59loPI    C2  930  15.751  12.126  10.249  0.2154 -0.1511  0.0066
   59loPI    C3  931  15.531  11.883  10.478  0.0438 -0.0295 -0.0277
   59loPI   PO4  932  15.519  11.914   9.830 -0.0402 -0.1870  0.0132
   59loPI   GL1  933  15.515  11.933   9.350 -0.0850 -0.2153  0.1844
   59loPI   GL2  934  15.166  11.841   9.226 -0.2572  0.1164  0.0786
   59loPI   C1A  935  15.425  12.105   8.907 -0.1317 -0.1689 -0.3142
   59loPI   C2A  936  15.493  12.168   8.418 -0.2214 -0.1794  0.1607
   59loPI   C3A  937  15.403  12.218   7.976  0.2180 -0.0180 -0.4924
   59loPI   C4A  938  15.317  12.187   7.493  0.0223  0.3700 -0.2550
   59loPI   C5A  939  15.490  12.181   7.198 -0.0615  0.3068  0.1347
   59loPI   C6A  940  15.859  12.265   7.103  0.0780  0.0215 -0.0195
   59loPI   C1B  941  14.872  11.952   8.936  0.1711  0.2601  0.1201
   59loPI   C2B  942  14.815  11.948   8.482 -0.0111 -0.0495  0.1831
   59loPI   C3B  943  14.956  12.095   8.141 -0.1786  0.2726  0.6051
   59loPI   C4B  944  14.866  12.041   7.712  0.2156  0.1205  0.2949
   60loPI    C1  945  10.928   6.279   9.903  0.2814 -0.0657 -0.0612
   60loPI    C2  946  10.551   6.255   9.774  0.2643  0.3001 -0.0904
   60loPI    C3  947  10.673   6.028  10.080  0.0294  0.1602 -0.0981
   60loPI   PO4  948  11.027   6.407   9.570 -0.0463  0.0023  0.0038
   60loPI   GL1  949  10.956   6.352   8.995 -0.1047 -0.1228  0.0360
   60loPI   GL2  950  11.195   6.526   9.066  0.0434 -0.2103  0.2378
   60loPI   C1A  951  10.934   6.173   8.640 -0.1229  0.1448 -0.1805
   60loPI   C2A  952  10.714   6.144   8.311 -0.0643  0.2535 -0.0333
   60loPI   C3A  953  10.719   5.895   7.857  0.1291 -0.2323 -0.1922
   60loPI   C4A  954  10.586   5.824   7.445  0.2180 -0.0358 -0.0661
   60loPI   C5A  955  10.759   6.011   7.033 -0.0853 -0.0291  0.2162
   60loPI   C6A  956  10.539   5.872   6.649 -0.2426 -0.4222  0.1131
   60loPI   C1B  957  11.305   6.647   8.676 -0.1003 -0.2535  0.0516
   60loPI   C2B  958  11.427   6.978   8.332  0.3654 -0.0512 -0.1136
   60loPI   C3B  959  11.267   7.004   7.953  0.3847 -0.3399 -0.3781
   60loPI   C4B  960  10.943   6.871   7.708  0.5217  0.3356  0.0344
   61loPI    C1  961  18.374  14.811  10.637 -0.0239 -0.0189 -0.1898
   61loPI    C2  962  18.700  14.629  10.780 -0.1059 -0.1076 -0.1141
   61loPI    C3  963  18.541  14.939  10.977 -0.1565 -0.1619 -0.0692
   61loPI   PO4  964  18.456  14.912  10.405 -0.0933  0.0456 -0.3524
   61loPI   GL1  965  18.452  14.862   9.931  0.0461 -0.3716  0.0337
   61loPI   GL2  966  18.766  14.700   9.925  0.0180  0.0449  0.4736
   61loPI   C1A  967  18.400  14.824   9.550 -0.1665 -0.1777  0.1302
   61loPI   C2A  968  18.372  14.664   9.199 -0.0911 -0.0119 -0.1753
   61loPI   C3A  969  18.393  14.695   8.747  0.1302  0.0198 -0.0906
   61loPI   C4A  970  18.497  14.448   8.432  0.3174  0.1364 -0.1835
   61loPI   C5A  971  18.195  14.286   8.042  0.3487  0.0461 -0.2363
   61loPI   C6A  972  17.961  13.929   7.821 -0.0435  0.0604 -0.1898
   61loPI   C1B  973  18.927  14.300   9.660 -0.1273  0.0658 -0.0961
   61loPI   C2B  974  18.671  14.113   9.454  0.0044 -0.1278  0.0684
   61loPI   C3B  975  18.216  14.182   9.380  0.1061 -0.2558 -0.1508
   61loPI   C4B  976  17.993  14.333   9.012 -0.3168 -0.0480 -0.4546
   62loPI    C1  977   8.121  15.841   9.730 -0.0893  0.2807  0.2520
   62loPI    C2  978   8.298  15.735  10.072  0.0343  0.2353  0.1746
   62loPI    C3  979   8.489  15.684   9.724 -0.3086 -0.2490  0.0480
   62loPI   PO4  980   7.835  15.794   9.681 -0.0548  0.1979 -0.5190
   62loPI   GL1  981   7.574  15.459   9.581 -0.2060  0.1653 -0.1392
   62loPI   GL2  982   7.314  15.587   9.491 -0.1204  0.1699  0.1144
   62loPI   C1A  983   7.492  15.229   9.131 -0.1367 -0.0759 -0.0333
   62loPI   C2A  984   7.411  15.068   8.731 -0.1819 -0.4055  0.0748
   62loPI   C3A  985   7.336  14.548   8.572 -0.0841 -0.0039 -0.3386
   62loPI   C4A  986   6.918  14.337   8.522 -0.1183  0.3699  0.0919
   62loPI   C5A  987   6.739  14.478   8.087 -0.2207  0.2527  0.2315
   62loPI   C6A  988   6.420  14.402   7.786 -0.2782  0.0371 -0.1800
   62loPI   C1B  989   7.332  15.692   9.116  0.0100  0.1383  0.1399
   62loPI   C2B  990   7.315  15.743   8.705 -0.2198  0.1796 -0.2077
   62loPI   C3B  991   7.260  16.045   8.266  0.2756 -0.1596 -0.0900
   62loPI   C4B  992   7.406  16.306   7.917  0.4349  0.4308 -0.0771
   63loPI    C1  993  15.473  10.807   9.652  0.0029  0.0015  0.0791
   63loPI    C2  994  15.734  10.586   9.444  0.0896  0.1722  0.0044
   63loPI    C3  995  15.443  10.408   9.653  0.0590 -0.0054 -0.1859
   63loPI   PO4  996  15.416  10.949   9.474  0.1487  0.0123 -0.0816
   63loPI   GL1  997  15.567  11.374   9.300  0.4676  0.3193 -0.1272
   63loPI   GL2  998  15.860  11.494   9.387 -0.1821 -0.6131  0.1824
   63loPI   C1A  999  15.670  11.627   8.954 -0.1945 -0.0842 -0.0032
   63loPI   C2A 1000  15.871  11.784   8.552 -0.0373 -0.0277  0.3226
   63loPI   C3A 1001  15.879  12.058   8.096 -0.1501 -0.0402 -0.0334
   63loPI   C4A 1002  15.853  11.956   7.602 -0.1666 -0.1277  0.3250
   63loPI   C5A 1003  16.087  11.741   7.202 -0.0882 -0.0145  0.1711
   63loPI   C6A 1004  16.114  11.351   7.081 -0.1369  0.2018 -0.2673
   63loPI   C1B 1005  16.155  11.524   9.046  0.1801  0.0607  0.1968
   63loPI   C2B 1006  16.382  11.630   8.709 -0.1274 -0.1121 -0.0041
   63loPI   C3B 1007  16.313  12.008   8.335  0.1120  0.2511  0.2228
   63loPI   C4B 1008  16.464  12.437   8.304 -0.1703  0.1316 -0.0265
   64loPI    C1 1009   0.110  14.760  10.302 -0.0790 -0.1066  0.1197
   64loPI    C2 1010   0.304  14.573  10.597 -0.2249 -0.0212  0.2717
   64loPI    C3 1011   0.267  14.971  10.604 -0.0021  0.0072  0.0011
   64loPI   PO4 1012   0.269  14.629  10.069  0.0137  0.1707 -0.0553
   64loPI   GL1 1013   0.051  14.463   9.711  0.2205 -0.2664 -0.0641
   64loPI   GL2 1014  -0.142  14.742   9.694 -0.1769  0.2192 -0.0136
   64loPI   C1A 1015   0.046  14.510   9.316 -0.0354 -0.0066  0.1138
   64loPI   C2A 1016   0.019  14.583   8.909 -0.0291 -0.1901 -0.0289
   64loPI   C3A 1017   0.051  14.609   8.453 -0.0479 -0.1088  0.1973
   64loPI   C4A 1018   0.086  14.590   7.978 -0.2310  0.3968 -0.1391
   64loPI   C5A 1019   0.143  14.540   7.590  0.2934  0.2779 -0.0022
   64loPI   C6A 1020   0.363  14.580   7.220  0.0766  0.3654  0.0135
   64loPI   C1B 1021  -0.395  14.792   9.457  0.1557  0.1640 -0.0678
   64loPI   C2B 1022  -0.549  14.547   9.111 -0.3719  0.0880  0.0109
   64loPI   C3B 1023  -0.477  14.578   8.714  0.2488  0.0801 -0.1908
   64loPI   C4B 1024  -0.409  14.697   8.217 -0.0315  0.2868 -0.1191
   65loPI    C1 1025   9.260   2.622   8.753 -0.0080 -0.0806 -0.0897
   65loPI    C2 1026   9.434   2.957   8.885 -0.1651 -0.0041 -0.0737
   65loPI    C3 1027   9.534   2.603   9.043 -0.2577  0.0730  0.1615
   65loPI   PO4 1028   9.308   2.564   8.553  0.0591 -0.5693 -0.1396
   65loPI   GL1 1029   9.099   2.684   8.167 -0.0752 -0.1169  0.3185
   65loPI   GL2 1030   8.796   2.518   8.235 -0.2173  0.2534 -0.0752
   65loPI   C1A 1031   9.404   2.813   7.838 -0.0518 -0.5761 -0.2203
   65loPI   C2A 1032   9.499   2.978   7.501 -0.0127 -0.0444  0.2525
   65loPI   C3A 1033   9.559   3.041   7.047  0.3084  0.0869  0.0841
   65loPI   C4A 1034   9.714   2.872   6.662 -0.3921  0.1503  0.0932
   65loPI   C5A 1035   9.805   2.496   6.640 -0.1688  0.0898 -0.1871
   65loPI   C6A 1036   9.791   2.192   6.368 -0.1786 -0.1049  0.1367
   65loPI   C1B 1037   8.583   2.588   7.903 -0.0968 -0.0112  0.0742
   65loPI   C2B 1038   8.661   2.598   7.407  0.1274 -0.3938 -0.2362
   65loPI   C3B 1039   8.701   2.302   7.090 -0.0233  0.0556 -0.2005
   65loPI   C4B 1040   8.782   2.154   6.632 -0.0428 -0.0260  0.0460
   66loPI    C1 1041   5.348  13.834  10.551  0.2086 -0.1284 -0.2160
   66loPI    C2 1042   5.523  13.475  10.537  0.0085 -0.2250 -0.2898
   66loPI    C3 1043   5.154  13.512  10.687  0.0876 -0.0245 -0.1388
   66loPI   PO4 1044   5.331  13.952  10.306 -0.0732 -0.0443  0.0729
   66loPI   GL1 1045   5.293  13.927   9.847  0.2545 -0.2164 -0.0390
   66loPI   GL2 1046   5.594  13.914   9.750  0.2229  0.1271  0.0444
   66loPI   C1A 1047   5.099  13.892   9.396  0.2031 -0.2229 -0.0904
   66loPI   C2A 1048   5.256  13.694   8.998  0.1649  0.0716 -0.0061
   66loPI   C3A 1049   5.021  13.592   8.585 -0.0131 -0.0773 -0.0181
   66loPI   C4A 1050   5.176  13.486   8.170 -0.1992 -0.0761  0.3331
   66loPI   C5A 1051   5.500  13.240   7.946  0.0050 -0.0423 -0.0616
   66loPI   C6A 1052   5.392  12.868   7.716  0.3339 -0.1581  0.0862
   66loPI   C1B 1053   5.592  13.677   9.379 -0.3604 -0.1765 -0.0091
   66loPI   C2B 1054   5.739  13.427   9.076 -0.2387 -0.3511 -0.1633
   66loPI   C3B 1055   6.006  13.328   8.761 -0.0002 -0.0427  0.0076
   66loPI   C4B 1056   5.896  13.278   8.326 -0.1094  0.1472 -0.0016
   67loPI    C1 1057  14.055   1.752   9.578  0.0516  0.2162  0.1063
   67loPI    C2 1058  13.685   1.718   9.726 -0.0478  0.2346 -0.1332
   67loPI    C3 1059  13.992   1.545   9.915 -0.1770  0.2215  0.0685
   67loPI   PO4 1060  14.109   2.000   9.537 -0.2155 -0.3465 -0.3180
   67loPI   GL1 1061  14.318   2.089   9.084 -0.1935  0.2343  0.0453
   67loPI   GL2 1062  14.618   2.317   9.123  0.0897 -0.1351  0.0973
   67loPI   C1A 1063  14.617   1.965   8.704  0.0156 -0.0670 -0.1699
   67loPI   C2A 1064  14.872   1.982   8.396 -0.1571 -0.0608 -0.1729
   67loPI   C3A 1065  14.695   2.189   8.021 -0.1299 -0.1167 -0.1894
   67loPI   C4A 1066  14.398   2.308   7.798 -0.0672  0.3057  0.0797
   67loPI   C5A 1067  14.163   2.448   7.529  0.0119  0.0630 -0.3193
   67loPI   C6A 1068  13.827   2.631   7.328  0.2190  0.1485 -0.0328
   67loPI   C1B 1069  14.465   2.443   8.814 -0.0501 -0.1668  0.2568
   67loPI   C2B 1070  14.428   2.437   8.408  0.0940 -0.1957  0.2483
   67loPI   C3B 1071  13.990   2.508   8.214 -0.0288 -0.0536 -0.1441
   67loPI   C4B 1072  13.581   2.857   8.252 -0.1132 -0.0807  0.4123
   68loPI    C1 1073  14.060   8.738   9.870  0.0248  0.0246  0.1777
   68loPI    C2 1074  14.265   8.828  10.201 -0.1427  0.0700  0.2703
   68loPI    C3 1075  14.154   8.451  10.132  0.3464 -0.0330  0.0035
   68loPI   PO4 1076  14.138   8.841   9.710 -0.0327 -0.1682  0.4448
   68loPI   GL1 1077  14.285   9.174   9.366  0.1881 -0.0255  0.1446
   68loPI   GL2 1078  14.425   9.399   9.492  0.2616  0.2139  0.1789
   68loPI   C1A 1079  14.303   9.382   8.977  0.1479  0.0091 -0.0026
   68loPI   C2A 1080  14.446   9.666   8.734  0.1541 -0.4072 -0.0020
   68loPI   C3A 1081  14.505  10.025   8.479  0.0287  0.1598  0.0565
   68loPI   C4A 1082  14.340  10.080   8.081  0.2708 -0.2886  0.3469
   68loPI   C5A 1083  14.368   9.917   7.584 -0.0181  0.1332  0.0866
   68loPI   C6A 1084  14.156   9.608   7.290 -0.0657  0.0921 -0.1186
   68loPI   C1B 1085  14.718   9.716   9.174 -0.0655  0.0011 -0.0451
   68loPI   C2B 1086  14.915  10.032   8.859  0.3490  0.1777 -0.3334
   68loPI   C3B 1087  15.052   9.772   8.643  0.1496  0.0269  0.1178
   68loPI   C4B 1088  14.939   9.682   8.251  0.2210  0.1864  0.0062
   69loPI    C1 1089  11.816   2.944   9.617  0.2508 -0.0288 -0.1441
   69loPI    C2 1090  12.032   3.019   9.945 -0.0433  0.2291 -0.0050
   69loPI    C3 1091  11.678   2.835   9.976 -0.0996  0.3076 -0.1702
   69loPI   PO4 1092  11.762   3.191   9.549 -0.3833 -0.3647 -0.0215
   69loPI   GL1 1093  11.819   3.628   9.315  0.2090 -0.3844 -0.1471
   69loPI   GL2 1094  11.821   3.373   8.955 -0.0312 -0.1991  0.1997
   69loPI   C1A 1095  12.057   3.887   8.907  0.1379 -0.0110 -0.1132
   69loPI   C2A 1096  11.949   3.999   8.514 -0.2210  0.1252  0.0198
   69loPI   C3A 1097  12.165   4.172   8.205 -0.2767 -0.0123  0.1353
   69loPI   C4A 1098  12.154   4.356   7.841  0.1776  0.0226 -0.0401
   69loPI   C5A 1099  11.740   4.483   7.748 -0.1503  0.1252  0.1031
   69loPI   C6A 1100  11.287   4.561   7.967 -0.1000  0.2609  0.3489
   69loPI   C1B 1101  12.041   3.382   8.600 -0.1270 -0.1264 -0.0532
   69loPI   C2B 1102  11.907   3.423   8.138 -0.2273  0.1107 -0.1533
   69loPI   C3B 1103  11.792   3.549   7.659  0.0727 -0.0672  0.1900
   69loPI   C4B 1104  11.563   3.482   7.316  0.0183  0.1383  0.1806
   70loPI    C1 1105   7.247   8.151   9.125  0.2369  0.3537 -0.1504
   70loPI    C2 1106   7.593   7.950   9.125  0.0895  0.0948 -0.2155
   70loPI    C3 1107   7.303   7.848   8.870 -0.1812  0.0543  0.1016
   70loPI   PO4 1108   7.261   8.344   9.100 -0.3017  0.0473 -0.1666
   70loPI   GL1 1109   7.136   8.505   8.616 -0.0744 -0.1373  0.4489
   70loPI   GL2 1110   6.998   8.215   8.678  0.1051 -0.0004 -0.4173
   70loPI   C1A 1111   7.358   8.440   8.266 -0.1937 -0.0414  0.2526
   70loPI   C2A 1112   7.655   8.725   8.061  0.1167 -0.0928  0.0414
   70loPI   C3A 1113   7.972   9.043   8.014  0.0974  0.0540  0.0123
   70loPI   C4A 1114   8.063   9.290   7.788 -0.2442  0.1362 -0.0073
   70loPI   C5A 1115   7.890   9.445   7.403  0.2435  0.0228  0.0182
   70loPI   C6A 1116   7.727   9.631   7.026  0.1860  0.0344 -0.1574
   70loPI   C1B 1117   7.181   8.018   8.315  0.2251  0.4419 -0.2853
   70loPI   C2B 1118   7.227   8.083   7.952 -0.0218  0.1613  0.1784
   70loPI   C3B 1119   7.308   7.998   7.477 -0.2697  0.2714 -0.0082
   70loPI   C4B 1120   7.318   8.211   7.251 -0.1163 -0.3008  0.0718
   71loPI    C1 1121   1.412   0.549   9.904  0.0094  0.0396 -0.0178
   71loPI    C2 1122   1.767   0.491  10.079 -0.1189  0.2172  0.3099
   71loPI    C3 1123   1.535   0.178   9.989  0.0975  0.1035  0.1384
   71loPI   PO4 1124   1.530   0.794   9.743  0.0525 -0.1913  0.0114
   71loPI   GL1 1125   1.495   0.967   9.321 -0.0060  0.0654 -0.2426
   71loPI   GL2 1126   1.226   0.998   9.073  0.0877 -0.1155  0.5134
   71loPI   C1A 1127   1.725   1.001   8.990  0.3128  0.0788  0.0122
   71loPI   C2A 1128   1.841   1.206   8.628  0.1980 -0.3845 -0.1192
   71loPI   C3A 1129   1.920   1.475   8.348 -0.1061  0.0447  0.1657
   71loPI   C4A 1130   1.796   1.612   7.970  0.1021  0.0131  0.1352
   71loPI   C5A 1131   1.700   1.850   7.675 -0.0746 -0.3759 -0.3248
   71loPI   C6A 1132   1.752   1.703   7.269  0.2188  0.0666  0.3099
   71loPI   C1B 1133   1.363   0.821   8.732  0.1212 -0.3466  0.5005
   71loPI   C2B 1134   1.520   0.910   8.400 -0.1673 -0.0667 -0.0724
   71loPI   C3B 1135   1.790   0.945   7.998  0.0356 -0.2747  0.1036
   71loPI   C4B 1136   1.847   0.782   7.665 -0.0710  0.0306  0.3544
   72loPI    C1 1137   5.611   9.138   9.645 -0.1373  0.1205  0.1433
   72loPI    C2 1138   5.548   8.743   9.641 -0.1832  0.1282  0.0881
   72loPI    C3 1139   5.818   8.900   9.891  0.1222  0.0194 -0.1659
   72loPI   PO4 1140   5.696   9.274   9.464  0.0574 -0.2049  0.1122
   72loPI   GL1 1141   5.662   9.409   9.039  0.0101  0.0270 -0.1089
   72loPI   GL2 1142   5.870   9.466   8.885  0.2189  0.0440 -0.1538
   72loPI   C1A 1143   5.291   9.458   8.804 -0.3449 -0.1281 -0.1519
   72loPI   C2A 1144   5.186   9.656   8.433  0.1542 -0.0301  0.1029
   72loPI   C3A 1145   5.022   9.823   8.026  0.0822 -0.3048 -0.2127
   72loPI   C4A 1146   4.792   9.383   7.716 -0.1313 -0.0635 -0.0413
   72loPI   C5A 1147   5.006   9.039   7.597 -0.2285  0.0083 -0.2987
   72loPI   C6A 1148   5.278   8.911   7.323  0.2521 -0.1609  0.3867
   72loPI   C1B 1149   5.687   9.773   8.704 -0.1549  0.2575  0.0245
   72loPI   C2B 1150   5.582   9.867   8.202  0.0194  0.0582 -0.0075
   72loPI   C3B 1151   5.463   9.942   7.790  0.0801  0.0935 -0.0108
   72loPI   C4B 1152   5.663   9.765   7.401  0.2134 -0.1053 -0.2120
   73loPI    C1 1153  17.101   0.036  10.034 -0.0278  0.0548  0.1344
   73loPI    C2 1154  16.895   0.372  10.099 -0.1195 -0.0318  0.2988
   73loPI    C3 1155  17.185   0.264  10.352 -0.0704 -0.0613  0.2299
   73loPI   PO4 1156  17.198   0.046   9.777  0.3264 -0.1800 -0.0459
   73loPI   GL1 1157  17.111  -0.157   9.431 -0.1352 -0.3244  0.0265
   73loPI   GL2 1158  17.155  -0.254   9.081  0.1247 -0.3162 -0.1737
   73loPI   C1A 1159  17.498   0.141   9.171 -0.0766 -0.1175 -0.3113
   73loPI   C2A 1160  17.512   0.165   8.738  0.5594  0.1767  0.0195
   73loPI   C3A 1161  17.463   0.233   8.332 -0.0675  0.1313  0.1302
   73loPI   C4A 1162  17.247   0.321   7.930 -0.0678  0.5499 -0.1585
   73loPI   C5A 1163  17.383   0.436   7.557 -0.1858  0.0111  0.0321
   73loPI   C6A 1164  17.689   0.558   7.423 -0.0521  0.4934  0.1004
   73loPI   C1B 1165  17.115  -0.124   8.615  0.0900 -0.1995 -0.0975
   73loPI   C2B 1166  17.192  -0.252   8.156 -0.0526 -0.1087  0.0323
   73loPI   C3B 1167  17.300  -0.518   7.816  0.4325  0.3663 -0.1377
   73loPI   C4B 1168  16.984  -0.796   7.570 -0.1477 -0.0644 -0.3495
   74loPI    C1 1169   8.284   0.956   9.435 -0.0068  0.0332 -0.2807
   74loPI    C2 1170   8.194   1.309   9.602  0.0355 -0.0864  0.0003
   74loPI    C3 1171   8.533   1.121   9.701 -0.1211 -0.3391  0.0672
   74loPI   PO4 1172   8.270   1.036   9.174 -0.0831  0.0219  0.0462
   74loPI   GL1 1173   8.561   0.909   8.953  0.1102  0.0030 -0.0221
   74loPI   GL2 1174   8.628   0.522   8.862  0.1476  0.1327 -0.0327
   74loPI   C1A 1175   8.521   0.882   8.502  0.1686 -0.2674 -0.4121
   74loPI   C2A 1176   8.609   1.096   8.137 -0.0953 -0.2275 -0.1278
   74loPI   C3A 1177   8.704   1.207   7.730 -0.0864  0.0549  0.0522
   74loPI   C4A 1178   9.052   1.064   7.446 -0.0783 -0.2810  0.1386
   74loPI   C5A 1179   9.409   1.007   7.239 -0.1595  0.0902  0.0406
   74loPI   C6A 1180   9.745   1.014   7.115 -0.2634 -0.1112 -0.4460
   74loPI   C1B 1181   8.543   0.354   8.424  0.0811  0.2528 -0.2555
   74loPI   C2B 1182   8.380   0.448   8.056  0.1604 -0.2815  0.0318
   74loPI   C3B 1183   8.437   0.367   7.585  0.0585 -0.4180  0.0315
   74loPI   C4B 1184   8.489   0.298   7.171 -0.0889 -0.1599  0.0510
   75loPI    C1 1185  14.452  10.743   9.836 -0.1777  0.0752  0.0129
   75loPI    C2 1186  14.361  10.531  10.163 -0.0756  0.1059  0.0615
   75loPI    C3 1187  14.341  10.930  10.172  0.0713  0.1134  0.0752
   75loPI   PO4 1188  14.470  10.634   9.660 -0.1232  0.2125 -0.1915
   75loPI   GL1 1189  14.532  10.482   9.390  0.0349  0.1909  0.4656
   75loPI   GL2 1190  14.268  10.631   9.090  0.2061  0.0170  0.0459
   75loPI   C1A 1191  14.780  10.491   9.076  0.1974 -0.1837 -0.3423
   75loPI   C2A 1192  15.076  10.564   8.740 -0.3695  0.2487  0.5597
   75loPI   C3A 1193  15.030  10.256   8.410  0.0674 -0.0422 -0.2281
   75loPI   C4A 1194  14.890  10.163   7.999  0.0057  0.2381  0.2244
   75loPI   C5A 1195  14.715  10.379   7.716  0.2550  0.1337  0.1908
   75loPI   C6A 1196  14.479  10.650   7.454  0.1145 -0.1619  0.2664
   75loPI   C1B 1197  13.956  10.466   8.823  0.0447 -0.1561  0.2068
   75loPI   C2B 1198  14.014  10.458   8.347  0.1724 -0.0929 -0.0125
   75loPI   C3B 1199  13.926  10.453   7.957  0.0528 -0.0586 -0.2891
   75loPI   C4B 1200  14.081  10.375   7.654  0.2212 -0.0776  0.2521
   76loPI    C1 1201  12.277  18.806  10.550 -0.3592 -0.0026  0.1123
   76loPI    C2 1202  12.229  18.416  10.478 -0.0655 -0.0084 -0.0669
   76loPI    C3 1203  12.198  18.555  10.852 -0.3490 -0.1734 -0.0258
   76loPI   PO4 1204  12.212  18.965  10.329 -0.2552 -0.0134 -0.0990
   76loPI   GL1 1205  12.195  19.045   9.832 -0.0854  0.2136  0.3647
   76loPI   GL2 1206  12.536  19.124   9.918  0.0050 -0.1333  0.2369
   76loPI   C1A 1207  12.022  18.966   9.349 -0.1576 -0.2666  0.0104
   76loPI   C2A 1208  11.926  18.881   8.864 -0.1755 -0.1800 -0.0176
   76loPI   C3A 1209  11.930  18.878   8.402 -0.2361  0.3245  0.1809
   76loPI   C4A 1210  12.190  18.799   8.060 -0.2621 -0.0500 -0.1213
   76loPI   C5A 1211  12.239  18.526   7.638 -0.1693  0.0857 -0.3492
   76loPI   C6A 1212  12.238  18.679   7.185 -0.1176 -0.0149 -0.0153
   76loPI   C1B 1213  12.530  19.168   9.478 -0.0289  0.2488 -0.3578
   76loPI   C2B 1214  12.662  19.377   9.050 -0.2965  0.0392  0.3369
   76loPI   C3B 1215  12.909  19.779   9.049 -0.0587  0.0142  0.0340
   76loPI   C4B 1216  12.953  20.104   9.169 -0.0383 -0.4484 -0.1216
   77loPI    C1 1217   9.302  12.573   9.693  0.0504 -0.1335 -0.1194
   77loPI    C2 1218   9.344  12.915   9.897 -0.0529 -0.1674 -0.0402
   77loPI    C3 1219   9.297  12.570  10.093  0.0354 -0.2255 -0.1202
   77loPI   PO4 1220   9.497  12.678   9.494 -0.1242  0.2415  0.1857
   77loPI   GL1 1221   9.572  12.892   9.030 -0.0050 -0.0407  0.2254
   77loPI   GL2 1222   9.214  12.933   9.020  0.1411 -0.4355  0.0946
   77loPI   C1A 1223   9.525  12.944   8.617  0.1171  0.0147  0.1836
   77loPI   C2A 1224   9.525  13.067   8.235 -0.1684 -0.0329 -0.1628
   77loPI   C3A 1225   9.703  13.236   7.908 -0.2569  0.1418 -0.1201
   77loPI   C4A 1226   9.853  13.643   7.680 -0.2356  0.0248  0.2406
   77loPI   C5A 1227  10.003  14.025   7.799 -0.0912  0.0011 -0.0116
   77loPI   C6A 1228  10.056  14.503   7.865 -0.0119 -0.0372 -0.2215
   77loPI   C1B 1229   9.060  13.002   8.491  0.1000  0.0638  0.3583
   77loPI   C2B 1230   8.919  12.960   8.056  0.3572 -0.3462 -0.0751
   77loPI   C3B 1231   8.933  12.618   7.776  0.1176  0.0622 -0.1546
   77loPI   C4B 1232   8.971  12.107   7.885  0.0946  0.0306  0.2254
   78loPI    C1 1233   6.951  18.991   9.460  0.0250  0.0038 -0.1249
   78loPI    C2 1234   7.304  18.803   9.466 -0.0567 -0.1492 -0.0387
   78loPI    C3 1235   7.145  18.940   9.806  0.0298  0.1314 -0.1084
   78loPI   PO4 1236   6.898  18.907   9.275  0.2489 -0.1357 -0.0143
   78loPI   GL1 1237   7.084  18.947   8.922 -0.1855  0.0033 -0.2948
   78loPI   GL2 1238   6.944  18.782   8.705 -0.0158 -0.2285 -0.2434
   78loPI   C1A 1239   7.400  19.089   8.720 -0.0859 -0.2083  0.1471
   78loPI   C2A 1240   7.316  19.200   8.296  0.2665  0.4547  0.1886
   78loPI   C3A 1241   7.398  19.399   7.986 -0.3154  0.0437  0.3730
   78loPI   C4A 1242   7.400  19.363   7.575 -0.1763  0.1147 -0.1379
   78loPI   C5A 1243   7.647  19.286   7.209  0.0877  0.0436  0.1724
   78loPI   C6A 1244   7.877  19.198   6.795 -0.0328 -0.4820  0.1419
   78loPI   C1B 1245   6.987  18.795   8.176  0.0076  0.1346 -0.3977
   78loPI   C2B 1246   7.136  18.950   7.866 -0.2848 -0.0444  0.0918
   78loPI   C3B 1247   7.175  18.879   7.461 -0.1401  0.3616 -0.0357
   78loPI   C4B 1248   7.089  18.806   6.983  0.0342  0.1685  0.3462
   79loPI    C1 1249   0.578   5.154  10.060 -0.0049 -0.0120 -0.0016
   79loPI    C2 1250   0.507   5.513  10.221  0.2698 -0.0584  0.2308
   79loPI    C3 1251   0.568   5.196  10.457 -0.0712 -0.2821  0.0274
   79loPI   PO4 1252   0.524   5.146   9.805  0.1935  0.0399  0.0686
   79loPI   GL1 1253   0.636   5.355   9.479 -0.0292  0.0113  0.0130
   79loPI   GL2 1254   0.760   5.244   9.255 -0.3422  0.2357  0.0801
   79loPI   C1A 1255   0.475   5.507   9.016 -0.2891 -0.0894 -0.2388
   79loPI   C2A 1256   0.541   5.536   8.671  0.1847  0.2646  0.0644
   79loPI   C3A 1257   0.774   5.602   8.223 -0.2449 -0.0665  0.0484
   79loPI   C4A 1258   0.783   5.495   7.787 -0.4763 -0.0798  0.0525
   79loPI   C5A 1259   0.896   5.477   7.442 -0.0538  0.1008  0.0456
   79loPI   C6A 1260   1.235   5.310   7.204 -0.2942 -0.0253  0.3328
   79loPI   C1B 1261   0.946   5.195   8.829 -0.0112  0.2491  0.3434
   79loPI   C2B 1262   0.747   5.128   8.397  0.0761 -0.0180  0.1470
   79loPI   C3B 1263   0.995   5.090   8.009 -0.0668  0.2956  0.0516
   79loPI   C4B 1264   1.227   5.119   7.656  0.2032  0.0743 -0.2267
   80loPI    C1 1265   1.259   3.044   9.845 -0.1120  0.1821  0.0374
   80loPI    C2 1266   1.291   3.320  10.133 -0.1159  0.0477  0.1672
   80loPI    C3 1267   0.966   3.087  10.114 -0.1018  0.0355  0.0721
   80loPI   PO4 1268   1.270   3.031   9.647 -0.0148  0.2670 -0.1979
   80loPI   GL1 1269   1.282   3.218   9.383  0.1482 -0.0563 -0.1017
   80loPI   GL2 1270   1.015   3.396   9.228  0.0550  0.2587 -0.2967
   80loPI   C1A 1271   1.329   3.059   8.946  0.4161 -0.2724 -0.0443
   80loPI   C2A 1272   1.370   3.165   8.571 -0.1251  0.2573  0.1620
   80loPI   C3A 1273   1.491   3.220   8.178 -0.1010 -0.1543 -0.2898
   80loPI   C4A 1274   1.435   3.290   7.771 -0.0739  0.0670 -0.4015
   80loPI   C5A 1275   1.322   3.308   7.345  0.0297 -0.4591 -0.0421
   80loPI   C6A 1276   1.182   3.270   6.980  0.0344  0.0177 -0.2418
   80loPI   C1B 1277   0.911   3.347   8.805 -0.1799  0.0190 -0.0983
   80loPI   C2B 1278   0.832   3.510   8.416  0.5310 -0.0463 -0.0868
   80loPI   C3B 1279   0.663   3.585   8.005  0.3104  0.0987  0.3213
   80loPI   C4B 1280   0.438   3.791   7.630  0.1105  0.1937  0.0257
   81loPI    C1 1281   9.740  17.582   9.876  0.0927  0.2011  0.2088
   81loPI    C2 1282   9.909  17.497  10.228  0.1322  0.0897  0.1632
   81loPI    C3 1283   9.515  17.565  10.206  0.0703 -0.2487  0.1757
   81loPI   PO4 1284   9.944  17.822   9.747  0.0332 -0.1224 -0.0043
   81loPI   GL1 1285  10.020  17.822   9.294 -0.1802 -0.3891 -0.0357
   81loPI   GL2 1286  10.243  17.609   9.430 -0.0171  0.0596  0.2454
   81loPI   C1A 1287  10.320  17.912   8.942 -0.0127 -0.0337 -0.2381
   81loPI   C2A 1288  10.245  17.989   8.502  0.0772  0.1361  0.1463
   81loPI   C3A 1289  10.187  17.890   8.107 -0.2108  0.1619  0.0558
   81loPI   C4A 1290  10.177  17.889   7.718 -0.0711  0.0751 -0.0555
   81loPI   C5A 1291  10.280  17.573   7.506 -0.0173  0.0135 -0.1115
   81loPI   C6A 1292  10.120  17.182   7.307  0.0139 -0.4249  0.1685
   81loPI   C1B 1293  10.438  17.414   9.029  0.1097 -0.4289  0.1312
   81loPI   C2B 1294  10.550  17.467   8.636 -0.5322  0.1030 -0.2390
   81loPI   C3B 1295  10.339  17.420   8.242 -0.2378  0.0851  0.1537
   81loPI   C4B 1296  10.467  17.231   7.837 -0.0839 -0.2177  0.0127
   82loPI    C1 1297  10.047   4.588   9.668 -0.4167 -0.1405 -0.0786
   82loPI    C2 1298   9.919   4.282   9.892 -0.1326 -0.1667  0.0511
   82loPI    C3 1299  10.100   4.595  10.064  0.0017 -0.1430 -0.1303
   82loPI   PO4 1300  10.229   4.516   9.481  0.4702 -0.0277  0.2807
   82loPI   GL1 1301  10.453   4.730   9.052 -0.2115 -0.0638  0.3851
   82loPI   GL2 1302  10.695   4.784   9.301  0.1035 -0.0206  0.0370
   82loPI   C1A 1303  10.586   4.675   8.577 -0.1785  0.3736  0.0895
   82loPI   C2A 1304  10.846   4.575   8.231 -0.0841 -0.4824  0.0241
   82loPI   C3A 1305  10.714   4.479   7.843  0.0054  0.2276 -0.1365
   82loPI   C4A 1306  10.319   4.319   7.680  0.0261  0.0886 -0.0546
   82loPI   C5A 1307  10.186   4.327   7.299 -0.0963  0.1232 -0.1875
   82loPI   C6A 1308  10.355   4.261   6.953  0.0360 -0.1027 -0.0741
   82loPI   C1B 1309  10.979   5.119   8.905 -0.0128  0.2158 -0.0299
   82loPI   C2B 1310  10.910   5.166   8.444 -0.0632 -0.1126  0.1091
   82loPI   C3B 1311  10.975   5.446   8.063  0.0169 -0.0777 -0.2705
   82loPI   C4B 1312  11.027   5.440   7.686 -0.2189 -0.0462  0.0517
   83loPI    C1 1313  14.127   9.684   9.955 -0.0357 -0.0050 -0.1311
   83loPI    C2 1314  14.373   9.433  10.147  0.1248 -0.0295 -0.3647
   83loPI    C3 1315  14.107   9.291   9.884 -0.0043  0.0163 -0.2600
   83loPI   PO4 1316  14.281   9.875   9.845  0.3608 -0.0355 -0.0290
   83loPI   GL1 1317  14.407   9.951   9.410 -0.2076 -0.0742 -0.0163
   83loPI   GL2 1318  14.142   9.769   9.237 -0.0364 -0.1560  0.0959
   83loPI   C1A 1319  14.395  10.154   8.993  0.1669  0.0548 -0.2255
   83loPI   C2A 1320  14.479  10.449   8.689 -0.3455 -0.0465 -0.1722
   83loPI   C3A 1321  14.610  10.475   8.282  0.1354  0.3082 -0.1032
   83loPI   C4A 1322  14.395  10.653   8.011 -0.1448  0.3839 -0.0091
   83loPI   C5A 1323  14.064  10.937   8.069 -0.3503 -0.3529 -0.1303
   83loPI   C6A 1324  13.701  10.840   8.158  0.0137  0.0882  0.1875
   83loPI   C1B 1325  13.938   9.776   8.794  0.0452  0.1384  0.2380
   83loPI   C2B 1326  13.987   9.858   8.340  0.0556  0.3156  0.1498
   83loPI   C3B 1327  13.814   9.691   7.922 -0.0864  0.2391  0.0532
   83loPI   C4B 1328  13.843   9.905   7.543 -0.0604 -0.1061 -0.0943
   84loPI    C1 1329   2.325  18.039   9.792  0.0792 -0.0686 -0.0136
   84loPI    C2 1330   2.260  18.372   9.580 -0.2676 -0.0833  0.0634
   84loPI    C3 1331   2.264  18.387   9.979 -0.4292 -0.1941  0.0704
   84loPI   PO4 1332   2.220  17.905   9.600 -0.1424 -0.1950  0.0429
   84loPI   GL1 1333   1.884  18.060   9.444 -0.3245 -0.0131 -0.0107
   84loPI   GL2 1334   1.595  18.214   9.386  0.0365 -0.0971  0.3159
   84loPI   C1A 1335   1.733  18.044   8.932  0.1392 -0.3158  0.0506
   84loPI   C2A 1336   1.649  18.308   8.536 -0.1903 -0.0699 -0.2005
   84loPI   C3A 1337   1.718  18.183   8.054  0.2172 -0.1574  0.0453
   84loPI   C4A 1338   1.724  18.172   7.615  0.0833  0.0135  0.0469
   84loPI   C5A 1339   1.553  18.249   7.275 -0.0418  0.1464  0.0339
   84loPI   C6A 1340   1.149  18.177   7.063  0.1548 -0.4025 -0.4374
   84loPI   C1B 1341   1.486  18.471   9.036 -0.0642  0.0069  0.1829
   84loPI   C2B 1342   1.383  18.802   8.726 -0.2644  0.0763 -0.0532
   84loPI   C3B 1343   1.432  18.732   8.312  0.0094  0.1875 -0.0364
   84loPI   C4B 1344   1.473  18.594   7.861 -0.0900  0.2493  0.0622
   85loPI    C1 1345   7.978   0.613   9.425  0.1142  0.0602  0.1801
   85loPI    C2 1346   7.994   0.217   9.478 -0.4801  0.0083  0.0359
   85loPI    C3 1347   7.915   0.458   9.788 -0.3480 -0.0028  0.0787
   85loPI   PO4 1348   7.915   0.608   9.104  0.1047 -0.1750 -0.3039
   85loPI   GL1 1349   8.095   0.657   8.639 -0.0660 -0.0854 -0.1714
   85loPI   GL2 1350   8.022   0.981   8.728  0.0103 -0.1539  0.3340
   85loPI   C1A 1351   8.102   0.863   8.270  0.0381  0.4329 -0.0727
   85loPI   C2A 1352   8.191   0.806   7.752  0.3179 -0.3211 -0.1678
   85loPI   C3A 1353   8.307   0.767   7.277 -0.0528  0.1898 -0.0905
   85loPI   C4A 1354   8.202   0.782   6.796 -0.2266 -0.0581  0.0635
   85loPI   C5A 1355   8.121   0.514   6.603 -0.0524 -0.2014  0.1905
   85loPI   C6A 1356   8.238   0.413   6.283 -0.2259 -0.0794 -0.0823
   85loPI   C1B 1357   7.693   1.200   8.510 -0.2133 -0.3142 -0.0228
   85loPI   C2B 1358   7.339   1.209   8.289  0.1467 -0.0510 -0.3736
   85loPI   C3B 1359   7.002   1.023   8.029  0.0879  0.1008  0.0776
   85loPI   C4B 1360   6.996   0.759   7.661 -0.0453 -0.1660  0.1131
   86loPI    C1 1361   4.786   0.446   9.452  0.2243  0.0618  0.1852
   86loPI    C2 1362   4.448   0.592   9.295  0.2039 -0.0386  0.1347
   86loPI    C3 1363   4.493   0.574   9.692  0.0901 -0.1611  0.1427
   86loPI   PO4 1364   4.966   0.467   9.265  0.3451 -0.0003 -0.1257
   86loPI   GL1 1365   4.877   0.551   8.835  0.1823  0.2579  0.2339
   86loPI   GL2 1366   4.553   0.454   8.886  0.1030  0.0304  0.0128
   86loPI   C1A 1367   4.993   0.579   8.318  0.1666  0.0227 -0.3339
   86loPI   C2A 1368   5.228   0.586   7.927 -0.1324 -0.4474 -0.1937
   86loPI   C3A 1369   5.262   0.504   7.449 -0.4286 -0.3327 -0.0087
   86loPI   C4A 1370   5.257   0.851   7.308 -0.3579  0.2056 -0.1072
   86loPI   C5A 1371   5.618   1.133   7.197 -0.1255  0.1010 -0.4486
   86loPI   C6A 1372   5.982   1.428   7.035  0.1848  0.0121  0.4413
   86loPI   C1B 1373   4.465   0.466   8.418 -0.2832  0.1622 -0.1749
   86loPI   C2B 1374   4.492   0.313   7.971 -0.0049  0.8248  0.0539
   86loPI   C3B 1375   4.266   0.172   7.651  0.1201  0.1831  0.0028
   86loPI   C4B 1376   3.907   0.031   7.372  0.0827 -0.3285 -0.3154
   87loPI    C1 1377  10.823  10.251   9.904  0.1264 -0.0502  0.2428
   87loPI    C2 1378  11.026  10.058  10.190  0.1979  0.1249  0.3116
   87loPI    C3 1379  10.849  10.408  10.271  0.3073  0.2272  0.1145
   87loPI   PO4 1380  10.965  10.212   9.705 -0.1582 -0.1022  0.1898
   87loPI   GL1 1381  10.910  10.225   9.239 -0.1167  0.2581 -0.2141
   87loPI   GL2 1382  11.258  10.316   9.105  0.3420  0.2325 -0.2003
   87loPI   C1A 1383  10.856  10.511   8.742 -0.1720 -0.1286  0.0037
   87loPI   C2A 1384  10.758  10.532   8.334 -0.0485  0.0840  0.0707
   87loPI   C3A 1385  10.861  10.606   7.962 -0.2400 -0.0386  0.0446
   87loPI   C4A 1386  10.894  11.025   7.705  0.0097 -0.2029  0.2101
   87loPI   C5A 1387  10.782  11.170   7.340 -0.1856 -0.1070  0.1219
   87loPI   C6A 1388  10.531  11.493   7.061 -0.1468 -0.1711  0.0415
   87loPI   C1B 1389  11.372  10.504   8.658  0.1754  0.2066  0.0135
   87loPI   C2B 1390  11.332  10.443   8.259 -0.0114 -0.1754  0.1073
   87loPI   C3B 1391  11.293  10.031   7.984  0.1648  0.0614  0.1522
   87loPI   C4B 1392  11.330   9.839   7.571 -0.3655  0.1732  0.2590
   88loPI    C1 1393   4.775  14.839  10.049  0.0290 -0.1756 -0.0295
   88loPI    C2 1394   4.991  14.948  10.367  0.2253 -0.0785 -0.1938
   88loPI    C3 1395   4.713  14.663  10.403 -0.1558  0.3259  0.1967
   88loPI   PO4 1396   5.047  14.864   9.877 -0.1287 -0.1229 -0.2368
   88loPI   GL1 1397   5.154  14.974   9.403  0.1947  0.2528  0.0267
   88loPI   GL2 1398   5.388  14.693   9.293  0.1485  0.0460 -0.2239
   88loPI   C1A 1399   4.906  14.708   9.073 -0.1823 -0.3911  0.1856
   88loPI   C2A 1400   4.616  14.884   8.802  0.1593 -0.0197 -0.3210
   88loPI   C3A 1401   4.569  14.771   8.356  0.1919  0.0809  0.0095
   88loPI   C4A 1402   4.703  14.929   7.904  0.1445 -0.3387 -0.5324
   88loPI   C5A 1403   4.440  15.070   7.601  0.2025  0.0145  0.4651
   88loPI   C6A 1404   4.010  15.016   7.429 -0.0109  0.1071  0.0462
   88loPI   C1B 1405   5.184  14.325   9.129 -0.1019 -0.0865  0.0948
   88loPI   C2B 1406   5.032  14.118   8.820  0.2072 -0.2599 -0.1107
   88loPI   C3B 1407   5.244  14.043   8.377 -0.0052  0.0486  0.1098
   88loPI   C4B 1408   5.235  13.921   7.938 -0.1188 -0.2888  0.0679
   89loPI    C1 1409   1.020  13.550  10.110 -0.2045 -0.3222 -0.2644
   89loPI    C2 1410   0.825  13.413  10.431 -0.1155  0.0503 -0.0460
   89loPI    C3 1411   1.220  13.358  10.398 -0.1429 -0.0884 -0.1486
   89loPI   PO4 1412   0.963  13.487   9.956  0.0641 -0.3379 -0.3474
   89loPI   GL1 1413   0.985  13.363   9.582  0.6096 -0.0495 -0.1113
   89loPI   GL2 1414   0.733  13.097   9.673  0.1137  0.1385  0.0149
   89loPI   C1A 1415   1.063  13.585   9.244 -0.0295 -0.1267 -0.1354
   89loPI   C2A 1416   1.255  13.724   8.838 -0.2249  0.0529  0.2277
   89loPI   C3A 1417   1.369  13.569   8.341 -0.0471  0.2438  0.4589
   89loPI   C4A 1418   1.369  13.653   7.857 -0.0774  0.1751  0.0787
   89loPI   C5A 1419   1.538  13.483   7.478 -0.1513 -0.4679  0.2397
   89loPI   C6A 1420   1.567  13.686   7.078 -0.1473  0.0303  0.0768
   89loPI   C1B 1421   0.713  13.186   9.223 -0.3871  0.0350 -0.0162
   89loPI   C2B 1422   0.706  13.429   8.810  0.1633  0.1342 -0.0504
   89loPI   C3B 1423   0.542  13.500   8.486  0.0593  0.1059  0.0304
   89loPI   C4B 1424   0.590  13.228   8.100 -0.0091  0.1752 -0.1038
   90loPI    C1 1425  16.004   5.954   9.877 -0.1067  0.1055 -0.2761
   90loPI    C2 1426  15.780   6.281   9.931 -0.0833  0.0314  0.3485
   90loPI    C3 1427  16.164   6.282  10.040  0.0730 -0.0327 -0.1710
   90loPI   PO4 1428  16.017   5.854   9.548 -0.3119 -0.0442  0.0558
   90loPI   GL1 1429  15.871   5.798   9.077  0.0807 -0.0338 -0.3158
   90loPI   GL2 1430  15.544   5.792   9.036  0.1960  0.0259 -0.0962
   90loPI   C1A 1431  15.860   6.179   8.908  0.2379 -0.2740  0.2946
   90loPI   C2A 1432  16.039   6.087   8.547  0.0554  0.3870 -0.1717
   90loPI   C3A 1433  16.148   6.346   8.130 -0.1434  0.1502 -0.1092
   90loPI   C4A 1434  16.125   6.366   7.707 -0.2459 -0.1392 -0.0902
   90loPI   C5A 1435  15.927   6.428   7.461  0.0653  0.3764  0.1416
   90loPI   C6A 1436  15.567   6.703   7.491  0.1434  0.2300 -0.1160
   90loPI   C1B 1437  15.208   5.737   8.875  0.3541  0.0285 -0.2528
   90loPI   C2B 1438  14.708   5.692   8.933  0.0730  0.1254 -0.2036
   90loPI   C3B 1439  14.384   5.445   8.722  0.0178  0.0197  0.0901
   90loPI   C4B 1440  14.476   5.039   8.507 -0.2771  0.0053  0.0157
   91loPI    C1 1441  10.200  17.137   9.993 -0.1733  0.2101 -0.1462
   91loPI    C2 1442  10.590  17.221   9.964 -0.0686 -0.1082  0.2355
   91loPI    C3 1443  10.392  17.305  10.301 -0.3526  0.1175  0.0185
   91loPI   PO4 1444  10.093  17.200   9.795 -0.2764  0.0347 -0.3548
   91loPI   GL1 1445  10.090  17.060   9.368 -0.0331  0.3160  0.1252
   91loPI   GL2 1446   9.794  17.324   9.325  0.1691 -0.1434 -0.1771
   91loPI   C1A 1447  10.045  16.941   9.017  0.2047 -0.0533  0.3086
   91loPI   C2A 1448  10.262  16.950   8.620  0.2538  0.2641  0.0540
   91loPI   C3A 1449  10.089  16.959   8.117  0.1979  0.2174  0.1778
   91loPI   C4A 1450  10.200  16.849   7.675  0.0130 -0.0233 -0.0831
   91loPI   C5A 1451  10.410  16.749   7.375  0.2619 -0.1343  0.0333
   91loPI   C6A 1452  10.678  17.108   7.442 -0.1460 -0.0424  0.2890
   91loPI   C1B 1453   9.948  17.441   8.905  0.1620  0.0459  0.4064
   91loPI   C2B 1454   9.873  17.457   8.461  0.1339 -0.0877 -0.1035
   91loPI   C3B 1455   9.913  17.392   7.999 -0.0942 -0.1438 -0.2096
   91loPI   C4B 1456   9.918  17.243   7.728 -0.3556 -0.2382 -0.1520
   92loPI    C1 1457   2.726   5.695   9.969 -0.0894 -0.0362 -0.0473
   92loPI    C2 1458   2.611   5.483   9.649 -0.2943  0.0759 -0.0496
   92loPI    C3 1459   2.480   5.383  10.014 -0.2145  0.0647 -0.0239
   92loPI   PO4 1460   2.840   5.971   9.814 -0.1057 -0.4427  0.1005
   92loPI   GL1 1461   2.616   6.022   9.465  0.1585  0.2396 -0.0941
   92loPI   GL2 1462   2.940   5.787   9.399 -0.1768  0.0635  0.4258
   92loPI   C1A 1463   2.552   6.111   8.947  0.0472 -0.0341  0.0082
   92loPI   C2A 1464   2.388   6.052   8.561  0.2448 -0.2680  0.1162
   92loPI   C3A 1465   2.123   6.281   8.240 -0.2306  0.1331 -0.2109
   92loPI   C4A 1466   1.947   6.339   7.934  0.1840 -0.0589  0.0103
   92loPI   C5A 1467   2.028   6.426   7.501  0.0080 -0.1249 -0.5454
   92loPI   C6A 1468   2.117   6.694   7.067  0.0533  0.2227 -0.1525
   92loPI   C1B 1469   3.018   6.066   8.952 -0.1513 -0.1535 -0.1528
   92loPI   C2B 1470   2.831   6.201   8.523  0.0154 -0.0256 -0.1995
   92loPI   C3B 1471   2.570   6.215   8.141 -0.0250  0.1715  0.2080
   92loPI   C4B 1472   2.525   6.183   7.643 -0.0493 -0.2153  0.0115
   93loPI    C1 1473  13.523   9.457   9.557  0.0239  0.1889  0.0089
   93loPI    C2 1474  13.264   9.186   9.416  0.2258 -0.0898  0.1629
   93loPI    C3 1475  13.221   9.331   9.787  0.2088 -0.0283  0.1371
   93loPI   PO4 1476  13.763   9.357   9.451 -0.0460  0.1051 -0.1978
   93loPI   GL1 1477  13.762   9.120   9.132  0.2114  0.0563 -0.0113
   93loPI   GL2 1478  13.953   8.730   9.294  0.0215 -0.1498  0.1501
   93loPI   C1A 1479  13.859   9.188   8.717  0.1142 -0.0040 -0.0104
   93loPI   C2A 1480  14.076   9.373   8.469  0.1193  0.2090  0.0084
   93loPI   C3A 1481  14.351   9.508   8.260  0.0351 -0.3989 -0.1576
   93loPI   C4A 1482  14.622   9.488   7.865  0.0875  0.0925 -0.0409
   93loPI   C5A 1483  14.905   9.485   7.570  0.0020  0.1471 -0.5598
   93loPI   C6A 1484  15.036   9.726   7.168 -0.0760  0.2792  0.0082
   93loPI   C1B 1485  14.175   8.836   8.900  0.1843  0.2770 -0.1773
   93loPI   C2B 1486  14.431   8.980   8.573 -0.0075  0.1277  0.1282
   93loPI   C3B 1487  14.317   9.035   8.102 -0.1034 -0.0974  0.2388
   93loPI   C4B 1488  14.267   9.221   7.739  0.2574 -0.0073  0.0999
   94loPI    C1 1489   1.834   7.986   9.937 -0.0234  0.0503  0.1458
   94loPI    C2 1490   2.228   8.011  10.002  0.0065 -0.0984  0.0282
   94loPI    C3 1491   1.997   7.799  10.250  0.0148 -0.0900  0.0430
   94loPI   PO4 1492   1.833   7.886   9.670  0.2522  0.0361 -0.2521
   94loPI   GL1 1493   1.869   7.605   9.345  0.1222 -0.0513 -0.3633
   94loPI   GL2 1494   1.710   8.020   9.140 -0.0811  0.1572  0.0296
   94loPI   C1A 1495   1.828   7.614   8.897 -0.2284  0.2299 -0.0284
   94loPI   C2A 1496   1.886   7.667   8.441  0.3054 -0.1392 -0.0877
   94loPI   C3A 1497   1.794   7.796   8.113  0.0824 -0.1408  0.0500
   94loPI   C4A 1498   1.989   7.964   7.702  0.2318  0.0576 -0.0853
   94loPI   C5A 1499   2.297   7.748   7.386  0.2100  0.6064  0.1990
   94loPI   C6A 1500   2.598   7.514   7.044 -0.1420 -0.1160 -0.1115
   94loPI   C1B 1501   1.226   7.949   9.107 -0.0538 -0.0717  0.2380
   94loPI   C2B 1502   0.857   7.835   8.751 -0.0007  0.0367 -0.2730
   94loPI   C3B 1503   0.794   7.696   8.400  0.0244 -0.2843  0.2111
   94loPI   C4B 1504   0.587   7.850   8.080  0.3129 -0.0768  0.1624
   95loPI    C1 1505   3.564   8.693   9.761  0.1234  0.2031  0.0254
   95loPI    C2 1506   3.298   8.416   9.874  0.1738  0.0715 -0.1730
   95loPI    C3 1507   3.512   8.613  10.149  0.2024 -0.1516 -0.0336
   95loPI   PO4 1508   3.661   8.631   9.604  0.1287 -0.1680 -0.3083
   95loPI   GL1 1509   3.547   8.467   9.234  0.2548 -0.1884 -0.2249
   95loPI   GL2 1510   3.203   8.431   9.245  0.1460 -0.1140  0.0373
   95loPI   C1A 1511   3.537   8.340   8.816 -0.0682  0.1706 -0.1535
   95loPI   C2A 1512   3.567   8.193   8.450  0.1806  0.0923  0.0005
   95loPI   C3A 1513   3.466   8.103   7.908 -0.1098 -0.0838 -0.0028
   95loPI   C4A 1514   3.363   8.190   7.513 -0.0747  0.2627  0.1539
   95loPI   C5A 1515   3.209   7.941   7.133  0.2859  0.0643 -0.3447
   95loPI   C6A 1516   3.030   7.684   6.937  0.0024 -0.1649 -0.0268
   95loPI   C1B 1517   3.125   8.574   8.743 -0.1170 -0.0464  0.2861
   95loPI   C2B 1518   3.106   8.561   8.354  0.1963  0.1307 -0.4020
   95loPI   C3B 1519   3.283   8.590   8.019 -0.0420 -0.0797  0.1847
   95loPI   C4B 1520   3.217   8.748   7.522 -0.0060 -0.2329 -0.1323
   96loPI    C1 1521  15.782   5.342   9.842  0.0970 -0.1819  0.0637
   96loPI    C2 1522  16.169   5.421   9.907  0.0910 -0.2390  0.1717
   96loPI    C3 1523  16.009   5.080  10.042  0.0346 -0.2776  0.0102
   96loPI   PO4 1524  15.670   5.383   9.508  0.1833 -0.0463  0.1304
   96loPI   GL1 1525  15.729   5.330   9.010  0.2825 -0.0582 -0.0516
   96loPI   GL2 1526  15.909   5.120   8.848  0.0766  0.0233  0.0307
   96loPI   C1A 1527  15.713   5.591   8.628  0.0586  0.1091  0.3846
   96loPI   C2A 1528  15.711   5.440   8.194 -0.2203 -0.0311 -0.2294
   96loPI   C3A 1529  15.650   5.151   7.794  0.0231 -0.1635  0.2859
   96loPI   C4A 1530  15.968   4.895   7.613 -0.1550  0.1059 -0.0068
   96loPI   C5A 1531  16.441   4.765   7.803 -0.0301 -0.0377 -0.1267
   96loPI   C6A 1532  16.841   4.604   7.520 -0.0222  0.0045 -0.2238
   96loPI   C1B 1533  15.892   5.007   8.390 -0.2949 -0.3549  0.1819
   96loPI   C2B 1534  15.878   4.697   8.155  0.3224 -0.1137 -0.1969
   96loPI   C3B 1535  15.929   4.494   7.868  0.1159  0.1701 -0.0080
   96loPI   C4B 1536  16.091   4.186   7.569 -0.1157  0.1723 -0.4336
   97loPI    C1 1537  10.125  14.601   9.939 -0.0598 -0.2596  0.0136
   97loPI    C2 1538  10.254  14.392  10.255  0.0262 -0.1103  0.0781
   97loPI    C3 1539  10.159  14.779  10.296  0.1088 -0.0708 -0.0942
   97loPI   PO4 1540  10.216  14.489   9.719 -0.2874 -0.2915 -0.0800
   97loPI   GL1 1541  10.524  14.595   9.357 -0.0326  0.0636 -0.1883
   97loPI   GL2 1542  10.476  14.389   9.198 -0.0413 -0.1349  0.0493
   97loPI   C1A 1543  10.539  14.868   9.091 -0.0966  0.1440  0.1413
   97loPI   C2A 1544  10.669  14.840   8.747 -0.2484  0.0620  0.0952
   97loPI   C3A 1545  10.521  14.947   8.318  0.1803  0.1127  0.0549
   97loPI   C4A 1546  10.327  15.047   7.922 -0.0870  0.2461  0.1251
   97loPI   C5A 1547  10.205  14.996   7.468  0.1059  0.4043  0.1240
   97loPI   C6A 1548   9.888  14.664   7.433  0.0374  0.0120  0.0154
   97loPI   C1B 1549  10.587  14.327   8.793 -0.1466  0.0775  0.4245
   97loPI   C2B 1550  10.552  14.486   8.374 -0.0636  0.0413  0.0765
   97loPI   C3B 1551  10.525  14.603   7.906 -0.0906 -0.3898 -0.0583
   97loPI   C4B 1552  10.569  14.711   7.397 -0.0631  0.0743  0.1203
   98loPI    C1 1553   4.476   9.370   9.626 -0.1363  0.0638  0.0208
   98loPI    C2 1554   4.519   8.977   9.683 -0.0580  0.0462 -0.1511
   98loPI    C3 1555   4.452   9.218   9.995  0.3742 -0.0430  0.0183
   98loPI   PO4 1556   4.720   9.450   9.459 -0.1134  0.1467 -0.0650
   98loPI   GL1 1557   4.813   9.511   9.146 -0.0370  0.0337  0.0657
   98loPI   GL2 1558   4.655   9.914   9.326 -0.1294 -0.2022  0.1257
   98loPI   C1A 1559   4.783   9.409   8.713 -0.1068  0.1916 -0.1453
   98loPI   C2A 1560   4.654   9.481   8.271 -0.1241 -0.0708 -0.1074
   98loPI   C3A 1561   4.564   9.915   8.089  0.3933 -0.0901  0.0647
   98loPI   C4A 1562   4.729  10.089   7.758  0.2203  0.0412  0.1788
   98loPI   C5A 1563   5.083   9.999   7.465  0.1284 -0.1648 -0.2677
   98loPI   C6A 1564   5.393  10.131   7.070  0.0090  0.0572 -0.2447
   98loPI   C1B 1565   4.673   9.951   8.899  0.2253  0.0182  0.0451
   98loPI   C2B 1566   4.771   9.977   8.563 -0.2980 -0.1651  0.1862
   98loPI   C3B 1567   4.758  10.290   8.301  0.0557  0.1723  0.0411
   98loPI   C4B 1568   4.560  10.438   8.049 -0.1873  0.0954 -0.0870
   99loPI    C1 1569   6.536  11.781  10.138  0.0353 -0.0727 -0.1066
   99loPI    C2 1570   6.610  11.853  10.525  0.0125 -0.0722 -0.1023
   99loPI    C3 1571   6.611  11.478  10.388 -0.1076 -0.0828 -0.0753
   99loPI   PO4 1572   6.527  11.983  10.051 -0.1871 -0.0692  0.0334
   99loPI   GL1 1573   6.380  11.998   9.676 -0.0457 -0.3197 -0.2441
   99loPI   GL2 1574   6.162  12.120   9.469  0.1344 -0.1426  0.3024
   99loPI   C1A 1575   6.571  12.060   9.143 -0.0868  0.0001  0.3290
   99loPI   C2A 1576   6.548  12.135   8.704 -0.3417  0.2048  0.2772
   99loPI   C3A 1577   6.494  12.186   8.256  0.1333  0.3397  0.0944
   99loPI   C4A 1578   6.717  12.139   7.803  0.1367 -0.0780 -0.2068
   99loPI   C5A 1579   6.602  12.022   7.401 -0.0538 -0.0193  0.1102
   99loPI   C6A 1580   6.676  12.341   7.035  0.1423  0.0413 -0.0247
   99loPI   C1B 1581   6.072  11.955   9.060  0.0050 -0.0063  0.0688
   99loPI   C2B 1582   6.056  12.101   8.709 -0.0623 -0.1520 -0.1060
   99loPI   C3B 1583   5.728  12.284   8.544  0.0042  0.1351  0.4495
   99loPI   C4B 1584   5.564  12.352   8.243  0.2983  0.1648  0.3432
  100loPI    C1 1585  13.740   8.062  10.122 -0.0305 -0.0190 -0.1386
  100loPI    C2 1586  13.429   8.140  10.360  0.0207  0.1748 -0.1333
  100loPI    C3 1587  13.801   8.213  10.487  0.0793 -0.1818 -0.0887
  100loPI   PO4 1588  13.739   8.116   9.905 -0.0664 -0.3470  0.4292
  100loPI   GL1 1589  13.831   7.860   9.560  0.0992 -0.1686 -0.2015
  100loPI   GL2 1590  13.604   8.034   9.353 -0.2942  0.1040 -0.1852
  100loPI   C1A 1591  13.735   7.583   9.191  0.0788 -0.3327  0.1031
  100loPI   C2A 1592  13.543   7.560   8.768 -0.3263 -0.1573 -0.3266
  100loPI   C3A 1593  13.482   7.655   8.364 -0.0760 -0.2163 -0.1994
  100loPI   C4A 1594  13.543   8.014   7.991 -0.2712  0.0159 -0.1147
  100loPI   C5A 1595  13.902   7.951   7.751 -0.1078  0.3745 -0.1442
  100loPI   C6A 1596  14.373   7.836   7.667  0.0778 -0.1239  0.1887
  100loPI   C1B 1597  13.614   8.093   8.985 -0.1799 -0.1897  0.1258
  100loPI   C2B 1598  13.641   8.233   8.592  0.2019  0.0714 -0.2521
  100loPI   C3B 1599  13.875   8.270   8.316 -0.3891  0.0985 -0.2910
  100loPI   C4B 1600  14.286   8.129   8.112 -0.0130  0.0107 -0.0625
  101loPI    C1 1601  14.827   4.931   9.653 -0.0696 -0.4113 -0.1054
  101loPI    C2 1602  14.748   4.781  10.016  0.1907 -0.1250  0.0749
  101loPI    C3 1603  15.127   4.826   9.896  0.1081 -0.0916 -0.1814
  101loPI   PO4 1604  14.527   5.129   9.640 -0.1257 -0.2143 -0.0493
  101loPI   GL1 1605  14.459   5.090   9.266 -0.1596  0.1997  0.3802
  101loPI   GL2 1606  14.526   4.808   9.294  0.1124  0.0480 -0.1245
  101loPI   C1A 1607  14.782   5.151   8.877 -0.0004  0.1036 -0.1985
  101loPI   C2A 1608  14.892   5.358   8.497  0.1649 -0.1078 -0.1868
  101loPI   C3A 1609  14.943   5.745   8.428 -0.0623 -0.0811  0.0880
  101loPI   C4A 1610  14.746   6.019   8.098 -0.1132 -0.3018 -0.0994
  101loPI   C5A 1611  14.548   6.343   8.456 -0.3052 -0.3095 -0.2267
  101loPI   C6A 1612  14.452   6.543   8.802  0.0444  0.1866  0.0416
  101loPI   C1B 1613  14.394   4.716   8.867 -0.0503  0.0312  0.1670
  101loPI   C2B 1614  14.057   4.603   8.558 -0.0206 -0.1424  0.3364
  101loPI   C3B 1615  13.588   4.408   8.400  0.2132 -0.2238  0.1271
  101loPI   C4B 1616  13.262   4.388   8.045 -0.2102  0.0200  0.3549
  102loPI    C1 1617   5.692  18.892   9.668 -0.2635 -0.0662  0.2070
  102loPI    C2 1618   5.979  18.623   9.597  0.1477  0.4517 -0.1737
  102loPI    C3 1619   5.903  18.740   9.971  0.1645  0.0335 -0.0335
  102loPI   PO4 1620   5.596  18.847   9.425  0.0235  0.0923 -0.0413
  102loPI   GL1 1621   5.644  18.503   9.211  0.0963 -0.1199 -0.0674
  102loPI   GL2 1622   5.926  18.576   9.052 -0.2730  0.2049 -0.0552
  102loPI   C1A 1623   5.572  18.444   8.776  0.2276 -0.0558  0.0522
  102loPI   C2A 1624   5.652  18.262   8.336 -0.1491 -0.1042  0.1128
  102loPI   C3A 1625   5.743  18.303   7.951 -0.3231  0.2733  0.2020
  102loPI   C4A 1626   5.726  18.317   7.562 -0.0606  0.0061  0.1986
  102loPI   C5A 1627   6.031  18.193   7.218 -0.1515  0.3499  0.0846
  102loPI   C6A 1628   6.059  17.820   6.946 -0.0070 -0.0696 -0.1343
  102loPI   C1B 1629   6.008  18.634   8.600  0.0858 -0.0459  0.1449
  102loPI   C2B 1630   6.204  18.646   8.252  0.0666 -0.0393 -0.0688
  102loPI   C3B 1631   6.518  18.670   7.941  0.1555 -0.2590  0.1680
  102loPI   C4B 1632   6.679  18.830   7.628 -0.3778 -0.1605  0.1498
  103loPI    C1 1633  12.261   2.028   9.376  0.0799 -0.1046  0.0932
  103loPI    C2 1634  12.024   2.017   9.698 -0.1934 -0.1044 -0.1053
  103loPI    C3 1635  11.883   2.156   9.350  0.2505  0.3857 -0.1017
  103loPI   PO4 1636  12.393   1.770   9.396 -0.1370 -0.2881  0.1352
  103loPI   GL1 1637  12.473   1.507   9.096 -0.2544  0.0899 -0.0342
  103loPI   GL2 1638  12.198   1.404   9.081  0.2340  0.2126  0.1368
  103loPI   C1A 1639  12.692   1.140   8.865  0.4193  0.0661  0.1745
  103loPI   C2A 1640  12.671   0.909   8.431  0.0183 -0.0202 -0.1939
  103loPI   C3A 1641  12.734   0.613   8.209 -0.2375 -0.2722 -0.0628
  103loPI   C4A 1642  12.801   0.406   7.778 -0.1373 -0.3388  0.0796
  103loPI   C5A 1643  12.667   0.146   7.436  0.2612 -0.0826 -0.0514
  103loPI   C6A 1644  12.516  -0.101   7.094 -0.0426 -0.0087  0.0979
  103loPI   C1B 1645  12.320   1.332   8.623  0.0133 -0.2558  0.0110
  103loPI   C2B 1646  12.220   1.081   8.262  0.2595 -0.0138 -0.0076
  103loPI   C3B 1647  12.276   0.879   7.861 -0.0513  0.2072 -0.0249
  103loPI   C4B 1648  12.000   0.651   7.737  0.1780 -0.1452 -0.2384
  104loPI    C1 1649  19.113   0.792  10.106 -0.0323  0.2879 -0.0068
  104loPI    C2 1650  18.937   0.857  10.459 -0.2255  0.0869 -0.0641
  104loPI    C3 1651  19.210   0.568  10.423  0.0455  0.3305 -0.0001
  104loPI   PO4 1652  18.942   0.703   9.851 -0.1645  0.0619 -0.0846
  104loPI   GL1 1653  19.034   0.692   9.396  0.1035 -0.0603  0.0336
  104loPI   GL2 1654  18.873   0.322   9.498 -0.0023  0.2411  0.1753
  104loPI   C1A 1655  19.097   0.761   8.930  0.0486 -0.2686  0.1012
  104loPI   C2A 1656  19.031   0.638   8.514 -0.2017 -0.3400 -0.2485
  104loPI   C3A 1657  18.900   0.530   8.111  0.0514 -0.0417  0.0148
  104loPI   C4A 1658  18.811   0.311   7.614  0.0000 -0.1671  0.0280
  104loPI   C5A 1659  18.975   0.003   7.283  0.2487  0.0584  0.1274
  104loPI   C6A 1660  19.251  -0.274   7.325  0.0040 -0.2068 -0.2642
  104loPI   C1B 1661  18.634   0.526   9.113 -0.1611 -0.1137  0.0137
  104loPI   C2B 1662  18.724   0.305   8.788  0.3080 -0.0656 -0.0885
  104loPI   C3B 1663  18.757   0.096   8.398 -0.0326  0.4369 -0.1643
  104loPI   C4B 1664  18.573   0.068   8.018 -0.0956 -0.1089  0.1818
  105loPI    C1 1665   3.999   8.039   9.792  0.0720 -0.0235  0.1715
  105loPI    C2 1666   3.873   8.366   9.985 -0.3350 -0.0240 -0.0826
  105loPI    C3 1667   3.676   8.020  10.028 -0.0028 -0.2000  0.0565
  105loPI   PO4 1668   4.007   8.102   9.571 -0.0044  0.2056  0.2997
  105loPI   GL1 1669   3.957   8.081   9.214 -0.2414  0.0138  0.0468
  105loPI   GL2 1670   4.186   8.231   9.114 -0.3667 -0.1962  0.0564
  105loPI   C1A 1671   3.822   7.952   8.799 -0.2016  0.1592  0.0219
  105loPI   C2A 1672   4.001   7.874   8.460 -0.1078  0.1039 -0.2483
  105loPI   C3A 1673   3.980   7.807   7.944 -0.1093  0.2512 -0.2605
  105loPI   C4A 1674   3.987   8.132   7.588 -0.1608 -0.2666  0.0732
  105loPI   C5A 1675   4.139   8.111   7.175 -0.0488  0.2416  0.1726
  105loPI   C6A 1676   4.211   8.163   6.799 -0.0821  0.1619  0.1742
  105loPI   C1B 1677   4.385   8.102   8.778  0.0665  0.2567 -0.2932
  105loPI   C2B 1678   4.795   8.212   8.455 -0.1035 -0.0412 -0.1850
  105loPI   C3B 1679   4.876   8.150   7.968  0.2017  0.1634 -0.1933
  105loPI   C4B 1680   5.085   8.020   7.524  0.1794  0.1835 -0.2047
  106loPI    C1 1681   9.326   0.501   9.674  0.0196 -0.0714 -0.0215
  106loPI    C2 1682   9.158   0.443  10.033  0.2506 -0.4662  0.0279
  106loPI    C3 1683   9.418   0.743   9.980 -0.0777 -0.1658  0.0832
  106loPI   PO4 1684   9.201   0.485   9.400  0.1160 -0.2286  0.1666
  106loPI   GL1 1685   9.189   0.283   8.967 -0.1044  0.0410 -0.0959
  106loPI   GL2 1686   9.479   0.196   8.893 -0.0044  0.0304 -0.0989
  106loPI   C1A 1687   9.058   0.242   8.582  0.0142 -0.0880 -0.3536
  106loPI   C2A 1688   8.774  -0.117   8.277  0.1611  0.1064 -0.2351
  106loPI   C3A 1689   8.762  -0.353   7.945  0.2184 -0.3016 -0.0124
  106loPI   C4A 1690   8.804  -0.666   7.619 -0.0386 -0.1718  0.1706
  106loPI   C5A 1691   9.132  -0.944   7.558 -0.2855  0.1223 -0.0027
  106loPI   C6A 1692   9.207  -1.422   7.523 -0.1123 -0.3322  0.5972
  106loPI   C1B 1693   9.532   0.041   8.483 -0.2569  0.0278 -0.1849
  106loPI   C2B 1694   9.504   0.292   8.096 -0.1063 -0.0217 -0.0089
  106loPI   C3B 1695   9.111   0.266   7.911 -0.1522 -0.2414  0.0459
  106loPI   C4B 1696   8.747   0.175   7.895  0.0465  0.2133  0.1616
  107loPI    C1 1697   2.790   2.050   9.848 -0.0503  0.0399 -0.0678
  107loPI    C2 1698   3.190   2.059   9.850 -0.0535  0.2539  0.2914
  107loPI    C3 1699   2.991   1.931  10.173 -0.2761  0.0790  0.0883
  107loPI   PO4 1700   2.694   1.934   9.630  0.0025  0.1425 -0.1427
  107loPI   GL1 1701   2.566   1.987   9.238  0.1425  0.0366 -0.0425
  107loPI   GL2 1702   2.257   1.828   9.290 -0.1314  0.3002  0.0991
  107loPI   C1A 1703   2.665   2.220   8.839  0.0185 -0.3996 -0.2848
  107loPI   C2A 1704   2.758   2.502   8.635  0.1276  0.1661  0.2113
  107loPI   C3A 1705   2.771   2.599   8.196 -0.4190  0.1768  0.0895
  107loPI   C4A 1706   2.601   2.543   7.810 -0.2909  0.1408 -0.0075
  107loPI   C5A 1707   2.378   2.463   7.390  0.1163  0.2783 -0.0327
  107loPI   C6A 1708   1.967   2.234   7.361  0.0667  0.3035 -0.0236
  107loPI   C1B 1709   2.228   1.826   8.842 -0.0464 -0.1452 -0.1786
  107loPI   C2B 1710   2.160   1.904   8.430  0.2304  0.0014  0.1952
  107loPI   C3B 1711   2.319   1.766   8.072  0.1009 -0.0850  0.2051
  107loPI   C4B 1712   2.347   1.907   7.742 -0.5010 -0.1701  0.3927
  108loPI    C1 1713   7.902   6.170   9.319  0.1625 -0.1481 -0.0013
  108loPI    C2 1714   7.604   5.932   9.438 -0.0427  0.0609 -0.0910
  108loPI    C3 1715   7.914   5.999   9.681 -0.1770  0.0208  0.0939
  108loPI   PO4 1716   8.067   6.089   9.063 -0.0807 -0.2333 -0.1063
  108loPI   GL1 1717   8.376   6.265   8.802 -0.0637  0.1015 -0.4621
  108loPI   GL2 1718   8.607   6.062   8.708 -0.1889  0.0167  0.2248
  108loPI   C1A 1719   8.432   6.521   8.425  0.0310 -0.1802 -0.0107
  108loPI   C2A 1720   8.579   6.375   8.004 -0.0298 -0.3441  0.0303
  108loPI   C3A 1721   8.934   6.464   7.757  0.0168 -0.1701 -0.2218
  108loPI   C4A 1722   9.035   6.480   7.403 -0.0293  0.1550  0.3462
  108loPI   C5A 1723   9.279   6.439   7.043  0.3302 -0.2751 -0.0817
  108loPI   C6A 1724   9.673   6.403   6.956  0.0893  0.0473  0.1412
  108loPI   C1B 1725   8.336   5.953   8.389  0.0471  0.0718 -0.1261
  108loPI   C2B 1726   8.306   5.945   7.955  0.2110  0.0560  0.1335
  108loPI   C3B 1727   8.189   6.008   7.554  0.0773 -0.0897 -0.0855
  108loPI   C4B 1728   8.356   5.999   7.179  0.0859  0.1214 -0.1075
  109loPI    C1 1729  19.122   6.703  10.033  0.0759 -0.1395  0.2855
  109loPI    C2 1730  19.518   6.747  10.064  0.0884 -0.0476  0.0228
  109loPI    C3 1731  19.275   7.054  10.146  0.0784 -0.0618  0.0467
  109loPI   PO4 1732  19.052   6.696   9.811 -0.1173 -0.1309  0.3642
  109loPI   GL1 1733  19.336   6.941   9.578  0.0818 -0.0619  0.1928
  109loPI   GL2 1734  19.489   6.647   9.536  0.1582  0.2179  0.0632
  109loPI   C1A 1735  19.181   6.997   9.205  0.0215 -0.0835  0.1734
  109loPI   C2A 1736  19.082   6.918   8.737  0.0049 -0.0452 -0.1476
  109loPI   C3A 1737  19.107   6.723   8.353  0.2210  0.0843 -0.1987
  109loPI   C4A 1738  19.309   6.422   8.167 -0.2144 -0.0926  0.0385
  109loPI   C5A 1739  19.474   6.296   7.832  0.0418  0.4472  0.0252
  109loPI   C6A 1740  19.900   6.351   7.751 -0.4030  0.1817 -0.1693
  109loPI   C1B 1741  19.468   6.642   9.147  0.1965  0.1111  0.1868
  109loPI   C2B 1742  19.428   6.490   8.661  0.2974 -0.1544  0.2346
  109loPI   C3B 1743  19.805   6.329   8.304  0.1090  0.1826 -0.2406
  109loPI   C4B 1744  20.120   6.146   8.424 -0.1065 -0.2461 -0.1818
  110loPI    C1 1745   0.535  18.696  10.010  0.1672  0.2606 -0.0562
  110loPI    C2 1746   0.170  18.757  10.162  0.1935  0.0688  0.0878
  110loPI    C3 1747   0.492  18.780  10.399  0.2297 -0.2968  0.0791
  110loPI   PO4 1748   0.574  18.698   9.715 -0.0681  0.1006  0.2204
  110loPI   GL1 1749   0.761  18.412   9.376  0.0538 -0.4183  0.1373
  110loPI   GL2 1750   1.064  18.475   9.382  0.2082 -0.1557 -0.1423
  110loPI   C1A 1751   0.487  18.605   9.072 -0.0212 -0.0221  0.1198
  110loPI   C2A 1752   0.358  18.694   8.673 -0.0524  0.1755 -0.1163
  110loPI   C3A 1753   0.506  18.689   8.273  0.1368 -0.0147 -0.2439
  110loPI   C4A 1754   0.519  18.716   7.872  0.0367 -0.0945 -0.1931
  110loPI   C5A 1755   0.295  18.460   7.621 -0.1767 -0.1085 -0.3921
  110loPI   C6A 1756   0.252  18.030   7.355 -0.2749  0.0423  0.1665
  110loPI   C1B 1757   0.960  18.594   8.946 -0.0441 -0.1483  0.1249
  110loPI   C2B 1758   0.936  18.631   8.538 -0.3140  0.0404 -0.1359
  110loPI   C3B 1759   1.036  18.659   8.057  0.0857 -0.0455 -0.1087
  110loPI   C4B 1760   0.920  18.655   7.586 -0.2490  0.2579  0.1666
  111loPI    C1 1761   9.784   8.766   9.441 -0.0070  0.2788 -0.2990
  111loPI    C2 1762   9.608   8.506   9.194  0.1668  0.0193 -0.1543
  111loPI    C3 1763   9.946   8.404   9.383  0.0385  0.2145  0.1879
  111loPI   PO4 1764   9.770   8.986   9.325 -0.4313 -0.1865 -0.1640
  111loPI   GL1 1765   9.783   8.888   8.902  0.1355 -0.2154  0.0104
  111loPI   GL2 1766   9.895   9.128   8.689 -0.2778 -0.4407  0.3618
  111loPI   C1A 1767   9.982   8.713   8.459 -0.0492 -0.0350  0.0638
  111loPI   C2A 1768  10.044   8.520   7.972 -0.1879 -0.0925 -0.0894
  111loPI   C3A 1769   9.926   8.543   7.551  0.1896  0.2071 -0.0287
  111loPI   C4A 1770   9.846   8.629   7.078  0.1192  0.0718 -0.2127
  111loPI   C5A 1771   9.683   8.962   7.071 -0.2976  0.0232  0.0262
  111loPI   C6A 1772   9.428   8.934   6.786 -0.2668  0.1689  0.0126
  111loPI   C1B 1773  10.077   9.478   8.539  0.1436 -0.3846 -0.1168
  111loPI   C2B 1774  10.175   9.835   8.187  0.0286 -0.0297  0.2609
  111loPI   C3B 1775  10.197  10.081   7.834 -0.0266 -0.0862  0.1955
  111loPI   C4B 1776  10.089  10.443   7.567 -0.1125  0.4043  0.0796
  112loPI    C1 1777   9.698   7.537   9.224  0.2613  0.0661  0.1964
  112loPI    C2 1778   9.789   7.246   9.483  0.1868 -0.2796 -0.1560
  112loPI    C3 1779  10.030   7.320   9.172  0.0672 -0.1431 -0.2174
  112loPI   PO4 1780   9.492   7.440   9.075 -0.1061 -0.0394  0.3766
  112loPI   GL1 1781   9.496   7.256   8.801 -0.0982  0.0991  0.4748
  112loPI   GL2 1782   9.251   7.212   8.658  0.1827 -0.1755 -0.0179
  112loPI   C1A 1783   9.933   7.076   8.721  0.0151  0.1008  0.1984
  112loPI   C2A 1784  10.282   6.868   8.452  0.1055 -0.1294  0.0786
  112loPI   C3A 1785  10.462   6.559   8.268  0.1571  0.0508  0.0672
  112loPI   C4A 1786  10.774   6.441   7.808  0.3562  0.1296  0.0126
  112loPI   C5A 1787  10.885   6.472   7.352 -0.2839 -0.0713  0.2157
  112loPI   C6A 1788  10.987   6.819   7.130 -0.0557  0.0681  0.1991
  112loPI   C1B 1789   9.514   7.175   8.229  0.1539  0.1484  0.1861
  112loPI   C2B 1790   9.606   7.140   7.851 -0.1183 -0.0242  0.0658
  112loPI   C3B 1791   9.810   7.030   7.455 -0.0890  0.1071  0.4459
  112loPI   C4B 1792   9.627   6.917   7.112 -0.2755 -0.0035  0.0410
  113loPI    C1 1793   0.969   0.177   9.558  0.5742  0.4998 -0.1224
  113loPI    C2 1794   1.090  -0.113   9.806 -0.3204  0.0766 -0.1409
  113loPI    C3 1795   0.958   0.235   9.954 -0.2699  0.0610 -0.0587
  113loPI   PO4 1796   1.105   0.125   9.357 -0.0056 -0.1387 -0.0902
  113loPI   GL1 1797   1.248  -0.084   9.016 -0.0067 -0.2098  0.2347
  113loPI   GL2 1798   1.167  -0.355   9.073 -0.0115  0.0928 -0.0196
  113loPI   C1A 1799   1.208  -0.153   8.575 -0.0993 -0.0371  0.3312
  113loPI   C2A 1800   1.339  -0.081   8.166  0.5966 -0.4253 -0.1261
  113loPI   C3A 1801   1.620   0.105   7.916 -0.1636  0.1177 -0.0136
  113loPI   C4A 1802   1.697   0.224   7.552  0.1703  0.0462  0.1693
  113loPI   C5A 1803   1.968   0.335   7.265  0.0834  0.0792 -0.1134
  113loPI   C6A 1804   2.032   0.226   6.854 -0.1459  0.2787 -0.3232
  113loPI   C1B 1805   0.726  -0.331   8.668  0.1693  0.1089  0.1739
  113loPI   C2B 1806   0.694  -0.257   8.316  0.1030  0.3194  0.0197
  113loPI   C3B 1807   0.762  -0.196   7.900 -0.4248  0.0922  0.1755
  113loPI   C4B 1808   0.734  -0.259   7.534 -0.0653  0.0487 -0.1197
  114loPI    C1 1809  13.034   8.018   9.673  0.1728 -0.1611 -0.0338
  114loPI    C2 1810  13.258   8.293   9.859 -0.1580  0.2321 -0.2016
  114loPI    C3 1811  12.930   8.147  10.037  0.0039 -0.0422 -0.1227
  114loPI   PO4 1812  13.002   8.088   9.447  0.0911 -0.0669  0.0471
  114loPI   GL1 1813  12.916   8.106   9.095  0.0334  0.2813  0.4942
  114loPI   GL2 1814  13.218   7.868   9.050  0.2831 -0.2413  0.1327
  114loPI   C1A 1815  12.585   8.314   8.790  0.0263  0.0021  0.0390
  114loPI   C2A 1816  12.628   8.362   8.379 -0.0555 -0.1864 -0.0838
  114loPI   C3A 1817  12.528   8.138   7.966  0.0411 -0.0312  0.0455
  114loPI   C4A 1818  12.347   8.275   7.604  0.1313 -0.0901 -0.3730
  114loPI   C5A 1819  11.849   8.337   7.435  0.0350  0.0461 -0.1156
  114loPI   C6A 1820  11.520   8.386   7.690  0.2616  0.1474  0.3066
  114loPI   C1B 1821  13.088   7.909   8.643  0.1128  0.0135  0.0075
  114loPI   C2B 1822  13.039   7.901   8.172 -0.0913 -0.1633  0.2326
  114loPI   C3B 1823  13.027   8.053   7.790  0.0653  0.0673  0.0750
  114loPI   C4B 1824  13.151   8.160   7.455  0.0581  0.1604 -0.1520
  115loPI    C1 1825   8.105  13.798  10.039 -0.1344  0.1844 -0.1623
  115loPI    C2 1826   8.387  14.061  10.147  0.1182 -0.1870  0.1080
  115loPI    C3 1827   8.101  13.956  10.407 -0.0887 -0.0475 -0.0602
  115loPI   PO4 1828   8.050  13.945   9.713  0.1178 -0.4145 -0.1022
  115loPI   GL1 1829   7.757  13.774   9.405  0.5331  0.1534 -0.3109
  115loPI   GL2 1830   7.647  14.083   9.233  0.3464  0.2589  0.1133
  115loPI   C1A 1831   7.710  13.521   9.035  0.3963  0.3242 -0.0831
  115loPI   C2A 1832   7.951  13.381   8.738  0.1796 -0.1347 -0.0719
  115loPI   C3A 1833   7.957  13.336   8.333 -0.3672 -0.3206  0.0160
  115loPI   C4A 1834   8.012  13.229   7.912 -0.1807  0.2944  0.1214
  115loPI   C5A 1835   8.169  13.258   7.540  0.1530 -0.3618 -0.3336
  115loPI   C6A 1836   8.419  13.226   7.151  0.5517  0.0926 -0.1546
  115loPI   C1B 1837   7.862  14.059   8.837 -0.1041  0.1308  0.0361
  115loPI   C2B 1838   7.887  13.822   8.530  0.2531 -0.0183  0.0850
  115loPI   C3B 1839   8.012  13.850   8.016 -0.0456  0.3149  0.0078
  115loPI   C4B 1840   8.299  13.739   7.664  0.1701  0.0640  0.1228
  116loPI    C1 1841  13.244  12.613   9.768 -0.0325  0.4033 -0.2091
  116loPI    C2 1842  13.023  12.461  10.065  0.1185  0.1731 -0.2114
  116loPI    C3 1843  13.141  12.843  10.078  0.1736  0.1490  0.0548
  116loPI   PO4 1844  13.134  12.431   9.545  0.0691  0.0942 -0.2797
  116loPI   GL1 1845  13.448  12.139   9.349 -0.0767 -0.2484  0.1521
  116loPI   GL2 1846  13.634  12.036   9.293 -0.1707 -0.0302  0.3303
  116loPI   C1A 1847  13.453  12.213   8.828 -0.3091 -0.2293 -0.1534
  116loPI   C2A 1848  13.602  12.096   8.308  0.1342  0.0432  0.1977
  116loPI   C3A 1849  13.608  11.928   7.864 -0.0081  0.1109 -0.0528
  116loPI   C4A 1850  13.515  12.112   7.574 -0.1218  0.1962 -0.1313
  116loPI   C5A 1851  13.118  12.309   7.359 -0.0757 -0.2874 -0.0136
  116loPI   C6A 1852  12.897  12.378   7.030 -0.0206 -0.1467  0.0526
  116loPI   C1B 1853  13.798  11.726   9.150 -0.5169 -0.0384 -0.0139
  116loPI   C2B 1854  13.881  11.784   8.638 -0.2167 -0.0258 -0.4791
  116loPI   C3B 1855  13.920  11.731   8.184  0.0189  0.3111 -0.3007
  116loPI   C4B 1856  14.052  11.453   7.814  0.2789  0.2028 -0.0056
  117loPI    C1 1857  15.172   3.599  10.226  0.2184  0.0126  0.0941
  117loPI    C2 1858  14.839   3.500  10.425  0.0849  0.0421 -0.1122
  117loPI    C3 1859  15.157   3.637  10.624  0.0156 -0.0989  0.0990
  117loPI   PO4 1860  15.110   3.467   9.995 -0.2970 -0.2175  0.1055
  117loPI   GL1 1861  15.390   3.378   9.803 -0.2399  0.0612  0.1159
  117loPI   GL2 1862  15.586   3.207   9.977 -0.1254 -0.0855 -0.0624
  117loPI   C1A 1863  15.226   3.481   9.371  0.1280 -0.1440  0.0727
  117loPI   C2A 1864  15.220   3.735   9.021 -0.0951 -0.0579  0.0250
  117loPI   C3A 1865  15.237   3.774   8.478  0.1262 -0.0949 -0.1141
  117loPI   C4A 1866  15.309   3.752   8.130 -0.2288 -0.1520 -0.1939
  117loPI   C5A 1867  15.216   3.473   7.794  0.0825  0.0746  0.1313
  117loPI   C6A 1868  14.938   3.270   7.486 -0.4241  0.0762  0.0366
  117loPI   C1B 1869  15.778   3.250   9.506  0.1611  0.3960 -0.2781
  117loPI   C2B 1870  15.627   3.239   9.074  0.0628  0.0581  0.0784
  117loPI   C3B 1871  15.479   3.337   8.763  0.4340  0.0834  0.1853
  117loPI   C4B 1872  15.462   3.280   8.322 -0.2606  0.1200  0.1523
  118loPI    C1 1873   2.975   7.153   9.441  0.1398 -0.1773  0.0642
  118loPI    C2 1874   2.869   6.995   9.793 -0.1642  0.0772  0.0916
  118loPI    C3 1875   3.113   7.311   9.781 -0.1531  0.0681  0.0740
  118loPI   PO4 1876   3.031   6.886   9.327  0.0133 -0.0900 -0.1665
  118loPI   GL1 1877   3.234   6.668   8.964  0.0279  0.3142  0.1476
  118loPI   GL2 1878   2.998   6.585   8.728 -0.0955 -0.1545 -0.2050
  118loPI   C1A 1879   3.498   6.721   8.619 -0.0352  0.1619 -0.2891
  118loPI   C2A 1880   3.669   6.706   8.233 -0.0306  0.0866  0.0782
  118loPI   C3A 1881   3.594   6.456   7.855 -0.1910 -0.4060  0.1886
  118loPI   C4A 1882   3.405   6.368   7.374 -0.2469 -0.4533 -0.0189
  118loPI   C5A 1883   3.395   6.373   6.973  0.0682  0.1334  0.0914
  118loPI   C6A 1884   3.253   6.310   6.608  0.0563  0.2206  0.2026
  118loPI   C1B 1885   2.868   6.741   8.311 -0.0049  0.0217 -0.1217
  118loPI   C2B 1886   2.824   6.939   7.985  0.1845  0.0732 -0.2302
  118loPI   C3B 1887   2.941   7.216   7.635  0.3126 -0.2868  0.4902
  118loPI   C4B 1888   2.914   7.548   7.413 -0.0264  0.0625 -0.1514
  119loPI    C1 1889   0.766  16.253   9.758 -0.3309  0.2568 -0.1340
  119loPI    C2 1890   0.827  16.623   9.898 -0.1136  0.1228  0.1363
  119loPI    C3 1891   0.856  16.309  10.144  0.2505 -0.1192 -0.2017
  119loPI   PO4 1892   0.853  16.337   9.443 -0.1553  0.0514 -0.1060
  119loPI   GL1 1893   1.020  16.143   9.220 -0.0901 -0.1967 -0.1098
  119loPI   GL2 1894   0.890  15.825   9.085  0.0435 -0.0837  0.0498
  119loPI   C1A 1895   0.979  16.197   8.781 -0.3123  0.1477  0.0623
  119loPI   C2A 1896   0.864  16.418   8.347 -0.0728 -0.0902 -0.2138
  119loPI   C3A 1897   0.668  16.763   8.173  0.0600  0.3943  0.1878
  119loPI   C4A 1898   0.319  16.913   8.112  0.5088  0.1026  0.1115
  119loPI   C5A 1899   0.007  17.154   7.942  0.0611 -0.0490 -0.0488
  119loPI   C6A 1900  -0.294  17.401   7.745  0.5555 -0.2791  0.1089
  119loPI   C1B 1901   1.172  15.651   8.740 -0.0119  0.1436 -0.0730
  119loPI   C2B 1902   1.506  15.689   8.419 -0.1808  0.3264  0.3260
  119loPI   C3B 1903   1.463  15.960   8.103  0.2452  0.3526  0.0772
  119loPI   C4B 1904   1.558  16.058   7.693  0.1152  0.2346  0.0537
  120loPI    C1 1905   9.609  18.786   9.134 -0.1830 -0.0602  0.1090
  120loPI    C2 1906   9.706  18.984   9.468  0.0009  0.1122 -0.0438
  120loPI    C3 1907   9.990  18.884   9.204 -0.1570  0.0734 -0.2011
  120loPI   PO4 1908   9.354  18.655   9.223  0.0043  0.0515 -0.0211
  120loPI   GL1 1909   9.195  18.250   8.970  0.0278 -0.1015  0.0171
  120loPI   GL2 1910   9.423  18.443   8.712  0.0306  0.0527 -0.0860
  120loPI   C1A 1911   8.969  18.282   8.585 -0.1434 -0.2992  0.1351
  120loPI   C2A 1912   8.935  17.970   8.325  0.0474  0.3084 -0.0105
  120loPI   C3A 1913   9.073  17.763   7.959  0.0022  0.1364  0.2375
  120loPI   C4A 1914   9.086  17.496   7.624 -0.0342 -0.0335 -0.1733
  120loPI   C5A 1915   9.304  17.431   7.281 -0.1682  0.1536 -0.0088
  120loPI   C6A 1916   9.276  17.512   6.781 -0.0126  0.0974 -0.0486
  120loPI   C1B 1917   9.370  18.574   8.308  0.0049 -0.2124  0.3397
  120loPI   C2B 1918   9.404  18.659   7.895 -0.2144  0.0142 -0.1198
  120loPI   C3B 1919   9.584  18.748   7.527 -0.0309 -0.3437 -0.2188
  120loPI   C4B 1920   9.755  19.139   7.444 -0.4047  0.0464 -0.0761
  121loPI    C1 1921  10.492   2.838   9.092 -0.0500 -0.0693 -0.0976
  121loPI    C2 1922  10.398   3.225   9.132  0.0240 -0.0527 -0.0818
  121loPI    C3 1923  10.463   3.000   9.456  0.2488 -0.0115 -0.0965
  121loPI   PO4 1924  10.643   2.778   8.963  0.0976 -0.2573 -0.0968
  121loPI   GL1 1925  10.886   2.992   8.768 -0.2354  0.0832 -0.0785
  121loPI   GL2 1926  10.795   3.214   8.776  0.0012 -0.0875 -0.2734
  121loPI   C1A 1927  11.081   2.726   8.379 -0.0277 -0.0927 -0.2352
  121loPI   C2A 1928  10.963   2.458   8.068  0.1052  0.2465  0.2295
  121loPI   C3A 1929  10.700   2.279   7.740  0.0057 -0.0783 -0.0276
  121loPI   C4A 1930  10.495   2.397   7.277 -0.0084 -0.1987 -0.3808
  121loPI   C5A 1931  10.601   2.512   6.841 -0.0346 -0.0722  0.0626
  121loPI   C6A 1932  10.867   2.493   6.626 -0.1774  0.3262  0.3150
  121loPI   C1B 1933  10.982   3.212   8.354 -0.1904  0.0473  0.2616
  121loPI   C2B 1934  10.974   3.146   7.972 -0.2739 -0.1802 -0.0715
  121loPI   C3B 1935  11.250   2.827   7.796  0.0812  0.0151  0.0756
  121loPI   C4B 1936  11.195   2.411   7.607  0.0913  0.0762 -0.0595
  122loPI    C1 1937  15.499   4.321  10.030  0.2553  0.0116  0.2697
  122loPI    C2 1938  15.189   4.069  10.005  0.1579  0.1452  0.1104
  122loPI    C3 1939  15.410   4.082  10.339  0.0834 -0.0563  0.1690
  122loPI   PO4 1940  15.427   4.445   9.807  0.0034  0.1530  0.2160
  122loPI   GL1 1941  15.354   4.417   9.408 -0.1758  0.0967  0.1513
  122loPI   GL2 1942  15.163   4.624   9.373 -0.3041 -0.0112  0.0134
  122loPI   C1A 1943  15.440   4.268   9.110  0.2380  0.0093 -0.0270
  122loPI   C2A 1944  15.201   4.198   8.738 -0.0903  0.0443  0.3072
  122loPI   C3A 1945  15.041   4.203   8.363 -0.0004 -0.2810  0.2641
  122loPI   C4A 1946  15.022   4.487   8.014 -0.2070  0.2468 -0.0182
  122loPI   C5A 1947  14.714   4.718   7.771 -0.0735 -0.1986 -0.1068
  122loPI   C6A 1948  14.439   5.130   7.736 -0.1091 -0.1217  0.0979
  122loPI   C1B 1949  15.084   4.680   8.986 -0.1562  0.1656 -0.1445
  122loPI   C2B 1950  14.989   4.708   8.548 -0.2409  0.0347 -0.0009
  122loPI   C3B 1951  14.938   4.971   8.178  0.0468 -0.0789 -0.0834
  122loPI   C4B 1952  15.044   5.128   7.759  0.2021  0.1257  0.2238
  123loPI    C1 1953  13.342   6.315  10.175 -0.0695  0.1441  0.0779
  123loPI    C2 1954  13.548   6.551  10.424 -0.1326  0.0410  0.2293
  123loPI    C3 1955  13.472   6.172  10.526  0.0974 -0.0916 -0.0772
  123loPI   PO4 1956  13.416   6.365   9.896  0.1942  0.0979  0.1061
  123loPI   GL1 1957  13.533   6.304   9.448 -0.0479  0.0987  0.1615
  123loPI   GL2 1958  13.873   6.336   9.489 -0.2098 -0.2022 -0.0433
  123loPI   C1A 1959  13.365   6.047   9.109 -0.2190 -0.0920  0.2300
  123loPI   C2A 1960  13.160   6.189   8.755  0.2011 -0.2812  0.0896
  123loPI   C3A 1961  13.183   6.180   8.241 -0.2583  0.0363 -0.0861
  123loPI   C4A 1962  13.191   6.092   7.865 -0.1471 -0.0073  0.0774
  123loPI   C5A 1963  13.225   6.266   7.455  0.6031 -0.1724  0.0997
  123loPI   C6A 1964  12.962   6.560   7.314 -0.1722 -0.1163  0.2253
  123loPI   C1B 1965  13.985   6.595   9.072 -0.3711  0.2220  0.1458
  123loPI   C2B 1966  13.972   6.809   8.732 -0.0665  0.0051  0.0944
  123loPI   C3B 1967  14.217   6.976   8.467 -0.2259 -0.1745 -0.0722
  123loPI   C4B 1968  14.398   6.872   8.158  0.0994 -0.1475  0.1512
  124loPI    C1 1969   3.641  15.119   9.927 -0.1424  0.0063 -0.1313
  124loPI    C2 1970   3.377  15.012  10.207  0.0391  0.0189  0.0476
  124loPI    C3 1971   3.636  15.308  10.280 -0.0119  0.1250 -0.1916
  124loPI   PO4 1972   3.534  14.946   9.706 -0.0163  0.1025 -0.2064
  124loPI   GL1 1973   3.417  14.851   9.380  0.2211 -0.1450 -0.0573
  124loPI   GL2 1974   3.665  14.563   9.450  0.0343  0.1500 -0.2501
  124loPI   C1A 1975   3.336  14.974   8.897 -0.1538 -0.1585 -0.1187
  124loPI   C2A 1976   3.244  15.005   8.508  0.2208  0.0990  0.3251
  124loPI   C3A 1977   3.072  14.965   8.051 -0.0129 -0.0344 -0.2058
  124loPI   C4A 1978   3.047  14.659   7.651  0.2458 -0.1427 -0.0889
  124loPI   C5A 1979   3.126  14.799   7.222 -0.0823  0.1559  0.1075
  124loPI   C6A 1980   3.102  14.514   6.887 -0.1858  0.0154  0.2326
  124loPI   C1B 1981   3.733  14.384   8.944 -0.2362 -0.2140  0.2404
  124loPI   C2B 1982   3.770  14.315   8.537  0.2062  0.1985  0.1409
  124loPI   C3B 1983   3.824  14.311   8.026 -0.0383  0.0743 -0.0541
  124loPI   C4B 1984   3.662  14.725   7.774  0.1093  0.2188  0.1084
  125loPI    C1 1985  12.296  17.797  10.527 -0.1199  0.1182  0.1443
  125loPI    C2 1986  12.653  17.713  10.367 -0.2632 -0.0283 -0.1055
  125loPI    C3 1987  12.553  17.563  10.725 -0.1658 -0.1816 -0.1419
  125loPI   PO4 1988  12.139  17.710  10.359  0.2718  0.1872 -0.0108
  125loPI   GL1 1989  11.820  17.829   9.940 -0.0519 -0.0599  0.0217
  125loPI   GL2 1990  11.633  17.674   9.658 -0.0974 -0.0921  0.0465
  125loPI   C1A 1991  12.107  17.815   9.519 -0.0874  0.0550  0.1398
  125loPI   C2A 1992  12.370  18.017   9.217  0.0690 -0.1831  0.3961
  125loPI   C3A 1993  12.642  18.179   9.000  0.0510  0.0497  0.1143
  125loPI   C4A 1994  12.610  18.289   8.578 -0.1879 -0.1201 -0.1727
  125loPI   C5A 1995  12.714  18.335   8.089 -0.1003  0.1955  0.1807
  125loPI   C6A 1996  12.857  18.377   7.674  0.0980  0.0889  0.1099
  125loPI   C1B 1997  11.648  17.698   9.242  0.1209 -0.0744  0.2323
  125loPI   C2B 1998  12.054  17.695   9.039  0.0336 -0.1485  0.1027
  125loPI   C3B 1999  12.220  17.930   8.709  0.1317 -0.2187  0.1541
  125loPI   C4B 2000  12.554  17.884   8.308 -0.1295 -0.2232  0.2417
  126loPI    C1 2001  13.162   5.417  10.098 -0.0452  0.0056 -0.0343
  126loPI    C2 2002  13.221   5.812  10.098  0.3901 -0.0512 -0.3364
  126loPI    C3 2003  13.254   5.604  10.439 -0.3712  0.2335 -0.0679
  126loPI   PO4 2004  12.954   5.354   9.949  0.1651  0.0454 -0.2323
  126loPI   GL1 2005  12.822   5.303   9.570 -0.0852  0.0111 -0.1922
  126loPI   GL2 2006  12.559   5.368   9.464  0.1268  0.0580  0.2872
  126loPI   C1A 2007  13.080   5.176   9.292  0.0881 -0.0546  0.0547
  126loPI   C2A 2008  13.212   5.113   8.816  0.2017  0.2803 -0.1820
  126loPI   C3A 2009  13.350   5.320   8.434 -0.2212 -0.0195  0.1768
  126loPI   C4A 2010  13.559   5.631   8.116 -0.0815  0.0684  0.0689
  126loPI   C5A 2011  13.647   5.755   7.762  0.1980  0.1235 -0.0636
  126loPI   C6A 2012  13.890   5.988   7.523  0.1322 -0.0268  0.2408
  126loPI   C1B 2013  12.463   5.628   9.082  0.0284  0.0466  0.1298
  126loPI   C2B 2014  12.457   5.655   8.585  0.0627  0.0367  0.1740
  126loPI   C3B 2015  12.318   5.688   8.152  0.0484  0.1456 -0.6089
  126loPI   C4B 2016  12.041   5.557   7.859  0.1545  0.2566 -0.1683
  127loPI    C1 2017  12.455   3.343   9.994 -0.0627  0.0108  0.2538
  127loPI    C2 2018  12.738   3.522  10.212  0.0006 -0.1607  0.3145
  127loPI    C3 2019  12.689   3.126  10.235  0.1071 -0.2021 -0.0941
  127loPI   PO4 2020  12.436   3.455   9.788 -0.0348  0.1682  0.1508
  127loPI   GL1 2021  12.284   3.350   9.452  0.1444 -0.1171  0.1331
  127loPI   GL2 2022  12.172   3.082   9.231  0.0382  0.2241 -0.1827
  127loPI   C1A 2023  12.347   3.463   9.011  0.1789 -0.0094  0.0625
  127loPI   C2A 2024  12.551   3.238   8.591 -0.0482 -0.2897 -0.0035
  127loPI   C3A 2025  12.344   3.157   8.167  0.0602 -0.5654 -0.0583
  127loPI   C4A 2026  12.292   3.225   7.683  0.2442  0.1005  0.1468
  127loPI   C5A 2027  12.146   3.334   7.250 -0.1675 -0.4262 -0.0223
  127loPI   C6A 2028  11.951   3.562   6.963 -0.1149 -0.2640  0.1620
  127loPI   C1B 2029  12.113   2.914   8.767  0.1595 -0.0771 -0.1195
  127loPI   C2B 2030  11.965   2.811   8.257 -0.2144  0.0639 -0.0115
  127loPI   C3B 2031  11.632   2.566   7.868 -0.3805  0.1768  0.1176
  127loPI   C4B 2032  11.679   2.254   7.579 -0.1072 -0.1342  0.1281
  128loPI    C1 2033  12.825  15.695   9.995 -0.0487 -0.1256 -0.0563
  128loPI    C2 2034  12.840  15.831  10.371  0.2147 -0.0974 -0.0753
  128loPI    C3 2035  12.975  15.464  10.286  0.0909 -0.1304 -0.1311
  128loPI   PO4 2036  12.659  15.817   9.902 -0.0931  0.1870  0.1397
  128loPI   GL1 2037  12.686  16.202   9.639 -0.0992 -0.0598 -0.0503
  128loPI   GL2 2038  12.767  16.543   9.454  0.0957  0.0916 -0.0188
  128loPI   C1A 2039  12.639  16.040   9.288 -0.3144  0.0500 -0.0200
  128loPI   C2A 2040  12.656  15.847   8.857  0.0364 -0.1910  0.0563
  128loPI   C3A 2041  12.474  15.775   8.345 -0.1593  0.1864 -0.1612
  128loPI   C4A 2042  12.241  15.700   8.111 -0.1108  0.0210  0.0996
  128loPI   C5A 2043  11.936  15.850   7.698  0.0031  0.1998  0.1179
  128loPI   C6A 2044  11.748  15.783   7.289  0.0498  0.1420 -0.0487
  128loPI   C1B 2045  12.688  16.428   9.004 -0.3057 -0.0278 -0.1131
  128loPI   C2B 2046  12.643  16.375   8.572  0.2195 -0.5301  0.3433
  128loPI   C3B 2047  12.532  16.258   8.088 -0.1313  0.3161 -0.3290
  128loPI   C4B 2048  12.398  16.070   7.689  0.1088 -0.3054  0.0877
  129loPI    C1 2049   6.158  13.502  10.429 -0.1362  0.0178  0.1857
  129loPI    C2 2050   6.337  13.180  10.583 -0.1148 -0.0164  0.0898
  129loPI    C3 2051   6.337  13.524  10.786 -0.0412 -0.0471  0.1424
  129loPI   PO4 2052   5.985  13.431  10.337  0.0227  0.0871 -0.2870
  129loPI   GL1 2053   5.664  13.355  10.003 -0.1243 -0.0091  0.1683
  129loPI   GL2 2054   5.485  13.536  10.062 -0.0902 -0.0823  0.1060
  129loPI   C1A 2055   5.545  13.192   9.586 -0.1585  0.0178  0.2495
  129loPI   C2A 2056   5.247  13.338   9.303 -0.0672 -0.3245 -0.0474
  129loPI   C3A 2057   5.006  13.174   8.929 -0.0056  0.0989 -0.0960
  129loPI   C4A 2058   5.118  13.012   8.528  0.1448  0.3484  0.2566
  129loPI   C5A 2059   4.941  12.937   8.079 -0.1778  0.0638 -0.0936
  129loPI   C6A 2060   4.872  13.170   7.743 -0.1842  0.0193 -0.1374
  129loPI   C1B 2061   5.094  13.507   9.727 -0.0152 -0.0634 -0.2065
  129loPI   C2B 2062   4.792  13.495   9.356 -0.0825  0.0372 -0.3419
  129loPI   C3B 2063   4.763  13.728   9.074  0.0187  0.1878  0.2964
  129loPI   C4B 2064   4.603  13.855   8.695 -0.1156  0.0671 -0.0119
  130loPI    C1 2065  17.304   7.146   9.870 -0.0346 -0.0031  0.0576
  130loPI    C2 2066  17.370   7.308  10.230  0.1942  0.3055 -0.1183
  130loPI    C3 2067  17.595   7.003  10.104 -0.1477 -0.0715  0.1576
  130loPI   PO4 2068  17.212   7.325   9.758 -0.1154 -0.2433  0.1394
  130loPI   GL1 2069  17.047   7.440   9.396  0.0625  0.0335 -0.0493
  130loPI   GL2 2070  16.885   7.760   9.271  0.2026  0.0819  0.1698
  130loPI   C1A 2071  17.243   7.493   9.026 -0.2609  0.0834 -0.1618
  130loPI   C2A 2072  17.012   7.428   8.531  0.0534 -0.0715  0.4157
  130loPI   C3A 2073  16.954   7.459   8.111 -0.0915 -0.1145  0.0179
  130loPI   C4A 2074  16.897   7.580   7.646 -0.2165 -0.1545  0.1493
  130loPI   C5A 2075  16.499   7.703   7.379 -0.1056 -0.2649 -0.0748
  130loPI   C6A 2076  16.380   7.885   7.124  0.1202  0.0292  0.0172
  130loPI   C1B 2077  16.823   7.773   8.842  0.4039  0.0821  0.0617
  130loPI   C2B 2078  16.797   7.962   8.457 -0.0632  0.1663  0.3718
  130loPI   C3B 2079  16.620   7.815   7.992  0.4780 -0.1765  0.0354
  130loPI   C4B 2080  16.131   7.797   7.944 -0.3513 -0.0165 -0.1269
  131loPI    C1 2081  10.318  19.135   9.817  0.0950  0.0205  0.0576
  131loPI    C2 2082  10.055  19.342  10.037  0.1308 -0.1378  0.2526
  131loPI    C3 2083  10.170  18.977  10.154  0.2260 -0.1840  0.0210
  131loPI   PO4 2084  10.234  19.139   9.568 -0.0953  0.2922  0.3243
  131loPI   GL1 2085  10.477  19.048   9.286 -0.2631 -0.2256 -0.0136
  131loPI   GL2 2086  10.693  19.183   9.140  0.0217 -0.0163 -0.1337
  131loPI   C1A 2087  10.343  18.945   8.866 -0.1983 -0.0841 -0.0492
  131loPI   C2A 2088  10.301  18.881   8.458 -0.0187  0.0141 -0.0923
  131loPI   C3A 2089  10.597  18.857   8.115  0.0418 -0.2436 -0.0781
  131loPI   C4A 2090  10.833  18.665   7.713  0.1280  0.2141  0.4518
  131loPI   C5A 2091  11.038  18.770   7.409  0.0059  0.2094  0.1783
  131loPI   C6A 2092  11.086  18.884   7.012  0.3707  0.0274  0.2090
  131loPI   C1B 2093  10.715  19.162   8.719  0.2548  0.3197 -0.0339
  131loPI   C2B 2094  10.834  19.204   8.364  0.1385  0.2599  0.1165
  131loPI   C3B 2095  10.884  19.176   7.853 -0.2049  0.1813  0.0033
  131loPI   C4B 2096  10.980  19.300   7.392 -0.0384 -0.0385  0.0270
  132loPI    C1 2097   0.460  13.077  10.444  0.0752  0.1046 -0.0808
  132loPI    C2 2098   0.088  13.204  10.375 -0.0406 -0.1111  0.1302
  132loPI    C3 2099   0.204  13.119  10.748  0.2957  0.1802  0.0978
  132loPI   PO4 2100   0.556  12.902  10.214 -0.0333 -0.0648  0.1182
  132loPI   GL1 2101   0.655  12.677   9.928 -0.0125 -0.0145  0.3426
  132loPI   GL2 2102   0.352  12.554   9.885 -0.1018 -0.0141 -0.0768
  132loPI   C1A 2103   0.573  12.659   9.417 -0.1253 -0.3194  0.1191
  132loPI   C2A 2104   0.519  12.803   8.971 -0.0051 -0.0218 -0.0843
  132loPI   C3A 2105   0.606  12.992   8.559 -0.5318  0.0189 -0.1284
  132loPI   C4A 2106   0.959  13.263   8.428  0.3231  0.1624 -0.2109
  132loPI   C5A 2107   1.137  13.243   8.084  0.3779  0.1505  0.0439
  132loPI   C6A 2108   1.050  13.302   7.668  0.0941 -0.1374 -0.1844
  132loPI   C1B 2109   0.137  12.443   9.481  0.1918  0.0649 -0.1453
  132loPI   C2B 2110   0.057  12.640   9.052 -0.0551 -0.0498 -0.0475
  132loPI   C3B 2111  -0.024  12.970   8.865 -0.0733  0.1904 -0.1246
  132loPI   C4B 2112   0.140  13.234   8.427 -0.2776 -0.0377  0.1904
  133loPI    C1 2113   5.607   1.322   9.112  0.1771 -0.0334 -0.3124
  133loPI    C2 2114   5.554   0.965   9.285 -0.2033  0.1527 -0.0282
  133loPI    C3 2115   5.884   1.178   9.363 -0.0268 -0.0844 -0.1132
  133loPI   PO4 2116   5.393   1.317   8.890  0.0516 -0.2537 -0.1298
  133loPI   GL1 2117   5.253   1.437   8.531 -0.0942  0.1463  0.3337
  133loPI   GL2 2118   5.242   1.086   8.504  0.0673 -0.2839 -0.0560
  133loPI   C1A 2119   5.299   1.501   8.166  0.3052 -0.0493 -0.1356
  133loPI   C2A 2120   5.302   1.756   7.822 -0.0298  0.0692 -0.0255
  133loPI   C3A 2121   5.130   1.714   7.457  0.1275  0.1973  0.1010
  133loPI   C4A 2122   5.078   1.960   7.071 -0.1795  0.2840  0.0879
  133loPI   C5A 2123   5.110   1.978   6.642 -0.2861  0.1899  0.0078
  133loPI   C6A 2124   5.327   2.173   6.319 -0.0550  0.1036 -0.1884
  133loPI   C1B 2125   5.171   1.023   8.089 -0.0960 -0.0449  0.0644
  133loPI   C2B 2126   5.269   1.219   7.648  0.0651  0.0234  0.1987
  133loPI   C3B 2127   5.185   1.372   7.163 -0.0658 -0.1307 -0.0828
  133loPI   C4B 2128   5.424   1.528   6.849 -0.0820 -0.0194  0.1027
  134loPI    C1 2129   9.711  10.545   9.587 -0.0077  0.1209 -0.3198
  134loPI    C2 2130   9.872  10.258   9.360  0.0874 -0.0667 -0.0208
  134loPI    C3 2131  10.088  10.428   9.651 -0.1143 -0.0115  0.0989
  134loPI   PO4 2132   9.595  10.691   9.356 -0.0566  0.1052 -0.1103
  134loPI   GL1 2133   9.562  10.569   9.044  0.0498  0.0946 -0.1106
  134loPI   GL2 2134   9.624  10.664   8.831  0.0465  0.2016  0.2027
  134loPI   C1A 2135   9.931  10.234   8.845  0.1069  0.1220 -0.2625
  134loPI   C2A 2136  10.151  10.279   8.360  0.4055 -0.3681 -0.1089
  134loPI   C3A 2137  10.290  10.491   8.032  0.0289 -0.1594 -0.1967
  134loPI   C4A 2138  10.403  10.769   7.751  0.2924  0.2622  0.1339
  134loPI   C5A 2139  10.371  10.921   7.277 -0.0450 -0.1693  0.1630
  134loPI   C6A 2140  10.322  10.970   6.808 -0.2580 -0.2189 -0.2195
  134loPI   C1B 2141   9.814  10.562   8.475  0.1853  0.2386  0.2294
  134loPI   C2B 2142   9.783  10.627   8.143  0.1309 -0.0117  0.1014
  134loPI   C3B 2143   9.657  10.776   7.666  0.0554 -0.0443 -0.1207
  134loPI   C4B 2144   9.851  10.878   7.381  0.2482 -0.2258 -0.1411
  135loPI    C1 2145  18.426   5.645  10.079  0.3725 -0.2833  0.1135
  135loPI    C2 2146  18.484   6.004  10.245  0.1059 -0.1263 -0.1223
  135loPI    C3 2147  18.769   5.840  10.017  0.1243  0.0596 -0.2351
  135loPI   PO4 2148  18.198   5.652   9.895  0.2544 -0.2752  0.0147
  135loPI   GL1 2149  18.216   5.797   9.508  0.3291 -0.1982 -0.1681
  135loPI   GL2 2150  18.159   5.517   9.250 -0.2174 -0.2576 -0.2205
  135loPI   C1A 2151  18.260   5.929   8.977 -0.0027  0.0186  0.2185
  135loPI   C2A 2152  18.441   5.893   8.602 -0.2565 -0.3450  0.2694
  135loPI   C3A 2153  18.360   5.734   8.154  0.0145 -0.2246  0.1687
  135loPI   C4A 2154  18.445   5.337   7.990 -0.2056 -0.0913  0.0233
  135loPI   C5A 2155  18.644   5.132   7.737 -0.0271  0.0288 -0.0237
  135loPI   C6A 2156  18.429   5.038   7.357 -0.0044 -0.1321  0.3189
  135loPI   C1B 2157  18.321   5.435   8.862 -0.3466  0.2800 -0.1565
  135loPI   C2B 2158  18.729   5.510   8.515  0.0728  0.2220 -0.1310
  135loPI   C3B 2159  19.188   5.188   8.552  0.1134 -0.0710 -0.1631
  135loPI   C4B 2160  19.375   4.838   8.281 -0.0520 -0.0499 -0.0295
  136loPI    C1 2161   7.200   4.640   9.114  0.0205 -0.0653  0.0113
  136loPI    C2 2162   7.494   4.788   9.342 -0.0907  0.0898  0.0556
  136loPI    C3 2163   7.224   4.538   9.500 -0.1057  0.1137  0.0679
  136loPI   PO4 2164   7.373   4.599   8.884  0.3761 -0.0529 -0.1593
  136loPI   GL1 2165   7.384   4.370   8.480 -0.1730  0.1039 -0.0366
  136loPI   GL2 2166   7.351   4.774   8.445  0.0727 -0.0166  0.0680
  136loPI   C1A 2167   7.198   4.383   8.185 -0.0352  0.0360  0.1809
  136loPI   C2A 2168   7.242   4.334   7.787 -0.3656 -0.0730 -0.0824
  136loPI   C3A 2169   7.146   4.201   7.379 -0.0411  0.1587 -0.1861
  136loPI   C4A 2170   6.991   4.132   6.899  0.0318  0.3120  0.0083
  136loPI   C5A 2171   6.579   4.141   6.732  0.0441 -0.4242  0.1205
  136loPI   C6A 2172   6.330   4.573   6.712 -0.0135  0.1181  0.3161
  136loPI   C1B 2173   7.158   4.884   8.056  0.1959  0.0363  0.0722
  136loPI   C2B 2174   7.132   4.862   7.585  0.0002 -0.2055  0.1112
  136loPI   C3B 2175   7.301   5.163   7.303 -0.1520 -0.0110  0.3320
  136loPI   C4B 2176   7.330   5.190   6.807 -0.2336 -0.0266 -0.1249
  137loPI    C1 2177  14.658   2.598   9.644  0.0910  0.2925  0.0333
  137loPI    C2 2178  14.734   2.519  10.029  0.3972  0.2733 -0.0289
  137loPI    C3 2179  14.506   2.833   9.931  0.0233  0.0733  0.1793
  137loPI   PO4 2180  14.852   2.608   9.522  0.2788  0.2467  0.2814
  137loPI   GL1 2181  14.990   2.730   9.143  0.1454 -0.2887  0.0064
  137loPI   GL2 2182  15.064   3.021   9.088 -0.2244  0.0009 -0.1252
  137loPI   C1A 2183  14.944   2.451   8.724 -0.0669 -0.1519  0.0092
  137loPI   C2A 2184  14.985   2.447   8.347  0.1230 -0.0268  0.2102
  137loPI   C3A 2185  15.146   2.405   8.013  0.1710 -0.0567  0.1669
  137loPI   C4A 2186  15.535   2.597   7.801 -0.4310  0.2346  0.2378
  137loPI   C5A 2187  15.670   3.077   7.770  0.1190 -0.1149 -0.2476
  137loPI   C6A 2188  15.643   3.390   7.607 -0.0236 -0.0895  0.2304
  137loPI   C1B 2189  14.965   3.289   8.741  0.1013  0.0971  0.0262
  137loPI   C2B 2190  14.987   3.330   8.216  0.0767  0.1837  0.0517
  137loPI   C3B 2191  14.730   3.229   7.912 -0.2775  0.1115  0.0069
  137loPI   C4B 2192  14.662   3.580   7.704 -0.2573  0.0174  0.1435
  138loPI    C1 2193  17.700  15.314  10.133  0.0144  0.2977  0.1949
  138loPI    C2 2194  17.772  15.355  10.525  0.1378  0.2231  0.1805
  138loPI    C3 2195  18.026  15.148  10.295 -0.1040 -0.0150  0.1219
  138loPI   PO4 2196  17.592  15.558  10.005  0.0171  0.2621 -0.0489
  138loPI   GL1 2197  17.430  15.478   9.615 -0.0881  0.1437 -0.0121
  138loPI   GL2 2198  17.776  15.471   9.542 -0.1081  0.2395  0.1304
  138loPI   C1A 2199  17.197  15.228   9.335  0.1345  0.0982  0.0839
  138loPI   C2A 2200  17.214  15.295   8.849 -0.4827  0.0330 -0.5329
  138loPI   C3A 2201  17.271  15.315   8.399 -0.0339  0.1043  0.0811
  138loPI   C4A 2202  17.111  15.597   8.126  0.1571  0.0575 -0.0226
  138loPI   C5A 2203  17.151  16.049   8.165  0.1708  0.0530 -0.1385
  138loPI   C6A 2204  17.327  16.249   8.507 -0.2900  0.0419  0.0005
  138loPI   C1B 2205  17.707  15.278   9.165  0.1767  0.1137  0.1832
  138loPI   C2B 2206  17.733  15.243   8.699  0.0124  0.2020 -0.0764
  138loPI   C3B 2207  18.002  15.478   8.479  0.1185  0.0665 -0.2802
  138loPI   C4B 2208  18.159  15.315   8.077  0.0915 -0.0755 -0.1641
  139loPI    C1 2209   4.115  18.581   9.638  0.1126 -0.0754  0.1491
  139loPI    C2 2210   3.746  18.433   9.679  0.0578 -0.0026 -0.0689
  139loPI    C3 2211   4.019  18.371   9.965 -0.0958 -0.1347  0.0512
  139loPI   PO4 2212   4.184  18.442   9.410 -0.1131 -0.2030 -0.2423
  139loPI   GL1 2213   4.283  18.581   8.977 -0.0740 -0.0322 -0.0503
  139loPI   GL2 2214   3.984  18.554   8.947  0.0268 -0.0976 -0.0578
  139loPI   C1A 2215   4.163  18.587   8.471  0.0135  0.0040  0.0039
  139loPI   C2A 2216   4.266  18.493   7.964 -0.2407 -0.0311 -0.0278
  139loPI   C3A 2217   4.382  18.431   7.510 -0.0555 -0.1345  0.1212
  139loPI   C4A 2218   4.010  18.385   7.200  0.1892 -0.2208 -0.0406
  139loPI   C5A 2219   3.695  18.585   7.155  0.3667  0.0301 -0.2263
  139loPI   C6A 2220   3.178  18.841   7.088 -0.2175  0.1183 -0.2307
  139loPI   C1B 2221   3.606  18.359   8.792 -0.0910  0.2116  0.1815
  139loPI   C2B 2222   3.465  18.324   8.334  0.2467  0.1527 -0.3362
  139loPI   C3B 2223   3.165  18.396   8.005 -0.1274 -0.0322 -0.2137
  139loPI   C4B 2224   3.046  18.172   7.695  0.3140  0.1060  0.4399
  140loPI    C1 2225  11.786  11.687   9.974 -0.0208  0.0644 -0.1300
  140loPI    C2 2226  12.159  11.620  10.102 -0.0115  0.1255 -0.1247
  140loPI    C3 2227  11.979  11.967  10.184 -0.1848 -0.0240  0.1435
  140loPI   PO4 2228  11.820  11.703   9.739 -0.0368 -0.0827  0.0108
  140loPI   GL1 2229  11.516  11.854   9.438 -0.0840  0.1791  0.0763
  140loPI   GL2 2230  11.257  11.932   9.245 -0.3278  0.1161 -0.0282
  140loPI   C1A 2231  11.731  11.792   9.126  0.0447  0.0523 -0.1213
  140loPI   C2A 2232  11.833  11.825   8.677 -0.0213 -0.0759  0.1341
  140loPI   C3A 2233  12.024  11.791   8.235 -0.2798 -0.3349 -0.3236
  140loPI   C4A 2234  12.234  11.603   7.919 -0.2037  0.5629 -0.2062
  140loPI   C5A 2235  12.276  11.409   7.709 -0.0216  0.2965  0.1946
  140loPI   C6A 2236  12.323  11.348   7.240  0.0496  0.1465 -0.0273
  140loPI   C1B 2237  11.357  11.949   8.770  0.0917 -0.1396 -0.0721
  140loPI   C2B 2238  11.536  11.976   8.307 -0.2774  0.1525 -0.2843
  140loPI   C3B 2239  11.563  11.754   7.940  0.1087 -0.2112  0.1304
  140loPI   C4B 2240  11.578  11.813   7.523  0.3361  0.0802 -0.0177
  141loPI    C1 2241   6.289   1.819   9.279 -0.0912 -0.3442 -0.0785
  141loPI    C2 2242   6.193   1.902   9.659  0.1596 -0.1256 -0.0600
  141loPI    C3 2243   6.576   1.852   9.555  0.0837 -0.2993 -0.2638
  141loPI   PO4 2244   6.146   1.974   9.105  0.0504 -0.1760 -0.0223
  141loPI   GL1 2245   6.051   1.996   8.682 -0.4281 -0.4628  0.1684
  141loPI   GL2 2246   5.691   2.282   8.674  0.0391 -0.3795  0.2642
  141loPI   C1A 2247   6.154   2.479   8.514 -0.0510  0.1840  0.2071
  141loPI   C2A 2248   6.026   2.625   8.073  0.1863  0.1686 -0.2101
  141loPI   C3A 2249   5.835   2.593   7.653 -0.1519 -0.2112 -0.0046
  141loPI   C4A 2250   5.636   2.928   7.386  0.0624  0.2122 -0.0175
  141loPI   C5A 2251   5.644   3.150   6.928 -0.0204 -0.1629  0.0541
  141loPI   C6A 2252   6.086   3.375   6.801 -0.1303 -0.0144  0.0375
  141loPI   C1B 2253   5.664   2.293   8.217  0.1036 -0.0500  0.3749
  141loPI   C2B 2254   5.619   2.102   7.835  0.2341 -0.2766 -0.2534
  141loPI   C3B 2255   5.734   2.209   7.372 -0.1881  0.2112 -0.0910
  141loPI   C4B 2256   5.545   2.036   7.015 -0.3414 -0.1841 -0.4092
  142loPI    C1 2257  17.272  10.816  10.270 -0.2647 -0.0380 -0.0217
  142loPI    C2 2258  17.500  10.954  10.568 -0.0663 -0.2888 -0.0532
  142loPI    C3 2259  17.102  10.966  10.599 -0.0474 -0.2829  0.2081
  142loPI   PO4 2260  17.323  10.992  10.036 -0.2330  0.3368 -0.2900
  142loPI   GL1 2261  17.345  11.353   9.803  0.1308 -0.2522  0.1117
  142loPI   GL2 2262  17.182  11.660   9.722  0.4422 -0.2824  0.0345
  142loPI   C1A 2263  17.632  11.327   9.343 -0.2454  0.3002  0.0135
  142loPI   C2A 2264  17.598  11.309   8.942 -0.1861 -0.1045 -0.2207
  142loPI   C3A 2265  17.540  11.415   8.554 -0.0969  0.2802 -0.0342
  142loPI   C4A 2266  17.494  11.535   7.974 -0.0694 -0.3838  0.1063
  142loPI   C5A 2267  17.296  11.674   7.573 -0.0327  0.2837 -0.0709
  142loPI   C6A 2268  17.063  11.699   7.202  0.2412 -0.1544 -0.1824
  142loPI   C1B 2269  17.260  11.748   9.283 -0.0670 -0.1729  0.2161
  142loPI   C2B 2270  17.282  11.771   8.855  0.2152 -0.1953 -0.0497
  142loPI   C3B 2271  17.223  11.892   8.487  0.2172  0.1647 -0.3068
  142loPI   C4B 2272  17.199  11.976   8.061 -0.1638 -0.0903  0.1779
  143loPI    C1 2273   6.846   6.927   9.701 -0.0061  0.1725  0.1120
  143loPI    C2 2274   6.780   6.679  10.008 -0.0172 -0.0289 -0.0506
  143loPI    C3 2275   6.500   6.945   9.901 -0.1593 -0.2003 -0.1092
  143loPI   PO4 2276   6.912   6.731   9.500 -0.1003  0.1874 -0.3361
  143loPI   GL1 2277   6.860   6.893   9.065  0.0604 -0.0666  0.0255
  143loPI   GL2 2278   6.948   6.530   8.894  0.2728  0.2824  0.2479
  143loPI   C1A 2279   6.688   7.119   8.619 -0.0750  0.3499  0.2102
  143loPI   C2A 2280   6.609   7.274   8.239 -0.2291 -0.2016 -0.3681
  143loPI   C3A 2281   6.545   7.481   7.927  0.0418 -0.1859 -0.1791
  143loPI   C4A 2282   6.381   7.778   7.576  0.0817 -0.0500  0.0689
  143loPI   C5A 2283   6.395   7.925   7.194  0.0134  0.1238 -0.1774
  143loPI   C6A 2284   6.551   7.859   6.861  0.0593  0.4253 -0.1333
  143loPI   C1B 2285   6.998   6.603   8.413  0.1616 -0.2370  0.0639
  143loPI   C2B 2286   6.937   6.538   7.953  0.0863  0.0644  0.0016
  143loPI   C3B 2287   6.832   6.273   7.631  0.1900  0.2918  0.0977
  143loPI   C4B 2288   6.883   5.927   7.403 -0.0321 -0.6442 -0.1927
  144loPI    C1 2289   9.975   7.898   9.503 -0.1030 -0.3290 -0.1796
  144loPI    C2 2290   9.583   7.972   9.529  0.0098  0.2658 -0.0272
  144loPI    C3 2291   9.758   7.725   9.791 -0.1807  0.3740  0.2058
  144loPI   PO4 2292  10.062   7.866   9.231  0.1439 -0.1010  0.0367
  144loPI   GL1 2293  10.203   7.751   8.819  0.0259  0.0566  0.0879
  144loPI   GL2 2294   9.857   7.627   8.720 -0.0722  0.1952  0.2485
  144loPI   C1A 2295  10.336   7.930   8.492  0.0196  0.1553 -0.2869
  144loPI   C2A 2296  10.302   8.028   8.004 -0.3371 -0.1270  0.0047
  144loPI   C3A 2297  10.141   8.060   7.562 -0.1960 -0.1237 -0.0654
  144loPI   C4A 2298   9.843   8.103   7.269 -0.0143  0.3501 -0.1050
  144loPI   C5A 2299   9.466   7.898   7.227  0.1381 -0.1890 -0.2118
  144loPI   C6A 2300   9.170   7.937   7.491 -0.0080  0.0774  0.2119
  144loPI   C1B 2301   9.973   7.576   8.315 -0.1775 -0.2373  0.1753
  144loPI   C2B 2302   9.986   7.523   7.907 -0.8595  0.0831 -0.1790
  144loPI   C3B 2303   9.987   7.638   7.405  0.3249  0.0702  0.0580
  144loPI   C4B 2304  10.218   7.553   6.971  0.0520  0.2015 -0.4506
  145loPI    C1 2305   0.097  12.276  10.505 -0.2546  0.0399  0.0724
  145loPI    C2 2306   0.446  12.386  10.343 -0.4283  0.0736 -0.2876
  145loPI    C3 2307   0.441  12.177  10.684 -0.0596  0.1140 -0.2535
  145loPI   PO4 2308  -0.092  12.138  10.412  0.0513 -0.0882 -0.0345
  145loPI   GL1 2309  -0.227  12.224   9.972  0.1202  0.2395  0.0486
  145loPI   GL2 2310  -0.213  12.527   9.852 -0.1259  0.1575 -0.1069
  145loPI   C1A 2311  -0.272  12.128   9.546  0.1309  0.0279 -0.0698
  145loPI   C2A 2312  -0.293  12.331   9.154 -0.1748 -0.0855 -0.1941
  145loPI   C3A 2313  -0.203  12.454   8.644 -0.0124  0.1816 -0.0369
  145loPI   C4A 2314  -0.099  12.372   8.251  0.1228 -0.0603  0.1565
  145loPI   C5A 2315  -0.051  12.558   7.795  0.1791  0.2369  0.0677
  145loPI   C6A 2316  -0.179  12.583   7.391 -0.1749  0.0158 -0.0182
  145loPI   C1B 2317  -0.347  12.636   9.518 -0.1688  0.1234 -0.1825
  145loPI   C2B 2318  -0.400  12.848   9.146 -0.2859 -0.0462 -0.1075
  145loPI   C3B 2319  -0.509  12.817   8.745 -0.1705  0.2133  0.0496
  145loPI   C4B 2320  -0.270  12.914   8.382  0.0315  0.3653  0.0098
  146loPI    C1 2321   3.363   5.950   9.704 -0.0624 -0.0415 -0.2403
  146loPI    C2 2322   3.224   5.575   9.697  0.0491 -0.0926  0.0825
  146loPI    C3 2323   3.243   5.774  10.043 -0.1001  0.2483 -0.1002
  146loPI   PO4 2324   3.536   5.951   9.481 -0.0868 -0.0920  0.1961
  146loPI   GL1 2325   3.428   5.911   9.073 -0.2652 -0.2064  0.2052
  146loPI   GL2 2326   3.769   5.866   9.057  0.0182  0.0074 -0.0143
  146loPI   C1A 2327   3.208   5.485   9.031  0.0886 -0.1818  0.1338
  146loPI   C2A 2328   2.959   5.284   8.607  0.1311  0.2402  0.0121
  146loPI   C3A 2329   2.881   5.021   8.245 -0.0918 -0.2192  0.1231
  146loPI   C4A 2330   2.842   4.819   7.803 -0.0939  0.0360 -0.0440
  146loPI   C5A 2331   2.987   4.494   7.451  0.0289  0.0712  0.0255
  146loPI   C6A 2332   2.977   4.481   7.043 -0.2189  0.2489 -0.2672
  146loPI   C1B 2333   3.645   5.692   8.669 -0.1030 -0.0890  0.0009
  146loPI   C2B 2334   3.419   5.456   8.342  0.0868  0.0582  0.0306
  146loPI   C3B 2335   3.066   5.480   8.071 -0.1217 -0.0713 -0.0021
  146loPI   C4B 2336   2.760   5.774   8.202  0.0573  0.5560  0.3334
  147loPI    C1 2337  16.059   4.560  10.014 -0.0713  0.0623  0.0870
  147loPI    C2 2338  16.162   4.174  10.018  0.0163  0.0857  0.0871
  147loPI    C3 2339  15.923   4.319  10.304 -0.0001  0.0361  0.0986
  147loPI   PO4 2340  15.942   4.616   9.805  0.1633  0.3556  0.0342
  147loPI   GL1 2341  15.832   4.494   9.457 -0.1493 -0.0415 -0.1428
  147loPI   GL2 2342  15.879   4.163   9.502 -0.1736  0.0566  0.0210
  147loPI   C1A 2343  16.063   4.674   9.091  0.0582 -0.1952 -0.1826
  147loPI   C2A 2344  16.164   4.675   8.666  0.0802  0.1621 -0.0607
  147loPI   C3A 2345  16.353   4.474   8.295  0.5527  0.0754  0.1915
  147loPI   C4A 2346  16.553   4.272   7.941  0.1074  0.4675  0.0836
  147loPI   C5A 2347  16.620   4.174   7.544  0.2024  0.0289  0.1107
  147loPI   C6A 2348  16.438   3.891   7.225 -0.0541 -0.0246 -0.1887
  147loPI   C1B 2349  15.892   4.218   9.035 -0.0181 -0.0187  0.0562
  147loPI   C2B 2350  16.138   4.181   8.709  0.0137  0.1220 -0.1843
  147loPI   C3B 2351  16.129   3.986   8.317  0.2196 -0.1131  0.0721
  147loPI   C4B 2352  15.748   3.850   7.933 -0.0009 -0.0473 -0.0290
  148loPI    C1 2353  10.419   0.646   9.459 -0.1332  0.0313  0.3221
  148loPI    C2 2354  10.695   0.831   9.682 -0.0373  0.0001  0.2296
  148loPI    C3 2355  10.489   1.036   9.407  0.1120 -0.0413  0.0850
  148loPI   PO4 2356  10.535   0.440   9.357  0.2557  0.0483  0.2191
  148loPI   GL1 2357  10.266   0.111   9.214  0.0067 -0.2211  0.1323
  148loPI   GL2 2358   9.955   0.053   9.200  0.0380  0.2237  0.2399
  148loPI   C1A 2359  10.341   0.098   8.829 -0.1111  0.1503 -0.1497
  148loPI   C2A 2360  10.408   0.046   8.403 -0.2278  0.1477  0.1466
  148loPI   C3A 2361  10.384   0.001   8.009  0.2994  0.1153 -0.1571
  148loPI   C4A 2362  10.376  -0.078   7.555  0.2576 -0.0633 -0.0292
  148loPI   C5A 2363  10.291  -0.203   7.034  0.1420 -0.3337 -0.1509
  148loPI   C6A 2364  10.239  -0.260   6.599  0.0641  0.0609  0.3369
  148loPI   C1B 2365   9.891  -0.130   8.824  0.1290  0.2473 -0.2495
  148loPI   C2B 2366   9.923  -0.176   8.324  0.2798 -0.0050 -0.0879
  148loPI   C3B 2367   9.762  -0.054   7.903 -0.3054 -0.0379 -0.1764
  148loPI   C4B 2368   9.665   0.227   7.512 -0.0774 -0.0200  0.1504
  149loPI    C1 2369  17.368  13.302  10.255  0.0431 -0.0776  0.1117
  149loPI    C2 2370  17.197  13.092  10.549  0.1464 -0.0997  0.1560
  149loPI    C3 2371  16.975  13.335  10.322  0.0293 -0.2436  0.1155
  149loPI   PO4 2372  17.526  13.097   9.996  0.1635  0.0495 -0.3590
  149loPI   GL1 2373  17.649  13.060   9.599 -0.0234 -0.2199 -0.2033
  149loPI   GL2 2374  17.637  13.344   9.618 -0.3932 -0.2337  0.3823
  149loPI   C1A 2375  17.637  13.180   9.110 -0.3795  0.3785 -0.0708
  149loPI   C2A 2376  17.747  13.360   8.614  0.0322  0.3366  0.0034
  149loPI   C3A 2377  17.739  13.281   8.257  0.0584 -0.0160  0.2429
  149loPI   C4A 2378  17.879  13.389   7.774  0.1984  0.2775  0.1623
  149loPI   C5A 2379  18.143  13.670   7.501 -0.0696  0.1099 -0.1215
  149loPI   C6A 2380  18.170  13.922   7.219  0.1167  0.2530 -0.1892
  149loPI   C1B 2381  18.078  13.216   9.390 -0.1425  0.0386  0.1560
  149loPI   C2B 2382  18.089  13.446   9.052 -0.1511  0.1678  0.2363
  149loPI   C3B 2383  18.240  13.507   8.588 -0.0183 -0.0057  0.1819
  149loPI   C4B 2384  18.215  13.713   8.240  0.0589 -0.1376 -0.2533
  150loPI    C1 2385  17.563  14.819  10.360  0.0735 -0.0850  0.0198
  150loPI    C2 2386  17.312  15.116  10.456  0.2731  0.0463  0.1437
  150loPI    C3 2387  17.344  14.796  10.694 -0.0078 -0.1201 -0.0353
  150loPI   PO4 2388  17.635  14.848  10.075  0.0767  0.0209  0.2440
  150loPI   GL1 2389  17.729  15.043   9.689  0.1184  0.1088  0.0944
  150loPI   GL2 2390  18.056  15.095   9.797  0.0060 -0.1027  0.0889
  150loPI   C1A 2391  17.806  14.788   9.196  0.1217 -0.2094 -0.3666
  150loPI   C2A 2392  17.850  14.742   8.793 -0.0670  0.0132 -0.0270
  150loPI   C3A 2393  17.878  14.545   8.356 -0.0190 -0.0677  0.1698
  150loPI   C4A 2394  17.726  14.233   8.126 -0.2256  0.0314  0.1640
  150loPI   C5A 2395  17.484  14.232   7.802 -0.2006  0.1342 -0.0899
  150loPI   C6A 2396  17.280  14.003   7.469  0.1806 -0.2227 -0.0182
  150loPI   C1B 2397  18.244  15.291   9.412  0.0044 -0.0963  0.1647
  150loPI   C2B 2398  18.168  15.060   9.002 -0.0743  0.2121 -0.1376
  150loPI   C3B 2399  18.120  14.977   8.496  0.0148 -0.3816  0.3936
  150loPI   C4B 2400  17.740  15.075   8.254 -0.1646 -0.1758  0.0403
  151loPI    C1 2401   3.709   7.622   9.617  0.0085 -0.1435  0.0864
  151loPI    C2 2402   3.657   7.297   9.844 -0.0741 -0.0337  0.2266
  151loPI    C3 2403   3.961   7.546   9.919  0.1374 -0.2072 -0.0364
  151loPI   PO4 2404   3.728   7.649   9.437 -0.6054 -0.2619 -0.2820
  151loPI   GL1 2405   3.483   7.886   9.117 -0.0508 -0.0776  0.4782
  151loPI   GL2 2406   3.439   7.606   8.858 -0.0973  0.1399  0.0056
  151loPI   C1A 2407   3.144   8.025   8.841  0.1190 -0.0894 -0.0815
  151loPI   C2A 2408   2.730   8.228   8.677 -0.0429 -0.1585 -0.0192
  151loPI   C3A 2409   2.660   8.302   8.292  0.0342 -0.1936  0.0975
  151loPI   C4A 2410   2.796   8.436   7.844 -0.1103 -0.2644 -0.1833
  151loPI   C5A 2411   2.752   8.565   7.464 -0.1472  0.1531  0.2588
  151loPI   C6A 2412   2.474   8.607   7.234  0.0083 -0.1138  0.2005
  151loPI   C1B 2413   3.534   7.647   8.426 -0.0282 -0.1425  0.0785
  151loPI   C2B 2414   3.489   7.596   8.003 -0.0462  0.0067  0.1748
  151loPI   C3B 2415   3.389   7.483   7.667 -0.0654 -0.2885 -0.0447
  151loPI   C4B 2416   3.350   7.280   7.243  0.2103  0.1716  0.0979
  152loPI    C1 2417  17.601  13.734  10.238 -0.0503 -0.0413  0.0462
  152loPI    C2 2418  17.880  13.555  10.014 -0.1339 -0.0964 -0.0149
  152loPI    C3 2419  17.852  13.471  10.404 -0.1211 -0.1555 -0.0266
  152loPI   PO4 2420  17.415  13.797  10.082 -0.0457 -0.3786  0.0093
  152loPI   GL1 2421  17.329  13.756   9.628  0.2127  0.2662 -0.0333
  152loPI   GL2 2422  17.236  14.171   9.651 -0.0726  0.2019 -0.0894
  152loPI   C1A 2423  17.612  13.705   9.209 -0.2271  0.3399  0.3374
  152loPI   C2A 2424  17.802  13.824   8.773 -0.2383  0.3624 -0.2066
  152loPI   C3A 2425  17.719  13.741   8.351 -0.0429 -0.0850 -0.4642
  152loPI   C4A 2426  17.474  13.725   7.963  0.1870 -0.0974 -0.0841
  152loPI   C5A 2427  17.111  13.618   7.742  0.1498  0.2323  0.1146
  152loPI   C6A 2428  16.942  13.279   7.525 -0.0693 -0.1938  0.1725
  152loPI   C1B 2429  17.563  14.254   9.288  0.1156  0.0473 -0.3126
  152loPI   C2B 2430  17.512  14.286   8.926  0.1826 -0.0853 -0.0199
  152loPI   C3B 2431  17.347  14.173   8.482  0.3079  0.0502  0.1732
  152loPI   C4B 2432  17.117  14.052   8.095 -0.1403 -0.0756 -0.1749
  153loPI    C1 2433   3.921  13.736  10.465  0.4160 -0.1033  0.1080
  153loPI    C2 2434   3.823  13.348  10.477 -0.0236  0.0025  0.1149
  153loPI    C3 2435   4.190  13.466  10.587  0.0880 -0.4000  0.1902
  153loPI   PO4 2436   3.850  13.776  10.159  0.3360 -0.2192 -0.0850
  153loPI   GL1 2437   4.045  13.768   9.759  0.2296 -0.1289  0.0126
  153loPI   GL2 2438   4.342  13.807   9.531  0.1605 -0.0572 -0.1529
  153loPI   C1A 2439   3.829  13.617   9.392  0.2083  0.1647  0.0317
  153loPI   C2A 2440   3.850  13.506   8.981 -0.1319  0.1692  0.2997
  153loPI   C3A 2441   3.620  13.448   8.574  0.1119  0.2311  0.4944
  153loPI   C4A 2442   3.727  13.485   8.140  0.0387  0.2309  0.2400
  153loPI   C5A 2443   3.773  13.799   7.795 -0.3003  0.0855 -0.0819
  153loPI   C6A 2444   3.725  13.820   7.353 -0.6396 -0.2596  0.1123
  153loPI   C1B 2445   4.203  13.847   9.064 -0.3553 -0.0823  0.3843
  153loPI   C2B 2446   4.009  13.917   8.691 -0.0441  0.0922  0.2197
  153loPI   C3B 2447   3.969  13.879   8.353  0.1955 -0.1634 -0.1109
  153loPI   C4B 2448   4.223  13.690   7.997 -0.0108  0.0064 -0.1039
  154loPI    C1 2449   8.951   9.478   8.956 -0.3087  0.1272  0.2115
  154loPI    C2 2450   8.864   9.473   9.347 -0.1062 -0.0297  0.2561
  154loPI    C3 2451   8.811   9.144   9.126 -0.0736  0.0129  0.1845
  154loPI   PO4 2452   9.188   9.644   8.964 -0.0223  0.4105  0.1172
  154loPI   GL1 2453   9.445   9.476   8.639  0.2468 -0.2179 -0.2729
  154loPI   GL2 2454   9.437   9.216   8.519  0.0045 -0.2895 -0.1408
  154loPI   C1A 2455   9.661   9.498   8.279  0.1288 -0.1381  0.3509
  154loPI   C2A 2456   9.833   9.513   7.880  0.0564  0.0113  0.0445
  154loPI   C3A 2457   9.917   9.814   7.473 -0.0147 -0.0276 -0.0255
  154loPI   C4A 2458   9.682   9.948   7.126 -0.3755 -0.2417  0.0627
  154loPI   C5A 2459   9.801  10.093   6.760 -0.1395 -0.3373  0.3962
  154loPI   C6A 2460   9.852  10.522   6.619 -0.1473  0.1937  0.1283
  154loPI   C1B 2461   9.659   8.998   8.278 -0.2046 -0.1612  0.0304
  154loPI   C2B 2462   9.942   9.042   7.918  0.0289 -0.2088 -0.1033
  154loPI   C3B 2463   9.970   9.040   7.508 -0.1484 -0.1275  0.1604
  154loPI   C4B 2464  10.074   9.340   7.283 -0.0432  0.2161  0.1455
  155loPI    C1 2465  17.327   4.326   9.952 -0.1640 -0.1089 -0.1952
  155loPI    C2 2466  17.574   4.283   9.641  0.2464  0.2201  0.0753
  155loPI    C3 2467  17.592   4.026   9.947 -0.0489 -0.0096 -0.0947
  155loPI   PO4 2468  17.130   4.377   9.862  0.0267  0.2706 -0.1887
  155loPI   GL1 2469  17.118   4.375   9.387 -0.1487  0.1538  0.1062
  155loPI   GL2 2470  16.808   4.421   9.495 -0.0747  0.0561 -0.0516
  155loPI   C1A 2471  17.103   4.585   9.029 -0.0531  0.3102  0.0521
  155loPI   C2A 2472  17.195   4.609   8.635 -0.0588  0.3286 -0.0098
  155loPI   C3A 2473  17.110   4.300   8.353  0.0597 -0.0321  0.2483
  155loPI   C4A 2474  17.078   4.262   7.839 -0.1819 -0.0537  0.4115
  155loPI   C5A 2475  17.443   4.419   7.478  0.2429 -0.3526 -0.1426
  155loPI   C6A 2476  17.580   4.736   7.597 -0.0792  0.0830 -0.2514
  155loPI   C1B 2477  16.453   4.382   9.070 -0.2857 -0.2871 -0.1560
  155loPI   C2B 2478  16.699   4.588   8.648 -0.0809 -0.1899  0.0330
  155loPI   C3B 2479  16.875   4.692   8.177  0.5554 -0.0096 -0.0126
  155loPI   C4B 2480  17.094   4.870   7.918  0.0159  0.1660 -0.0551
  156loPI    C1 2481  16.137   0.450   9.922 -0.0141  0.2123 -0.4547
  156loPI    C2 2482  16.451   0.645  10.073 -0.0302 -0.2082  0.1545
  156loPI    C3 2483  16.105   0.837  10.019  0.2071  0.1530 -0.1294
  156loPI   PO4 2484  16.157   0.371   9.660 -0.1287  0.0909 -0.2868
  156loPI   GL1 2485  16.489   0.238   9.222 -0.2049 -0.1776  0.2980
  156loPI   GL2 2486  16.593  -0.024   9.217 -0.1505  0.1121 -0.0358
  156loPI   C1A 2487  16.894   0.358   8.997  0.0899  0.0106 -0.0767
  156loPI   C2A 2488  17.066   0.486   8.606 -0.0644 -0.0136  0.0461
  156loPI   C3A 2489  17.263   0.684   8.347 -0.2389  0.2731  0.0139
  156loPI   C4A 2490  17.521   0.752   7.986 -0.1699  0.3674  0.1180
  156loPI   C5A 2491  17.637   1.028   7.620 -0.0500 -0.2865  0.0470
  156loPI   C6A 2492  17.521   1.164   7.269 -0.0799  0.1619  0.0568
  156loPI   C1B 2493  16.646   0.076   8.680  0.4329  0.0911  0.2085
  156loPI   C2B 2494  16.873   0.157   8.277  0.0765 -0.1787  0.2667
  156loPI   C3B 2495  16.797   0.154   7.768 -0.1687  0.2976 -0.0117
  156loPI   C4B 2496  17.105   0.025   7.562 -0.1818  0.4309 -0.2974
  157loPI    C1 2497   3.613  18.940   9.764 -0.5604  0.0026  0.0868
  157loPI    C2 2498   3.683  19.304   9.614 -0.2667 -0.1052 -0.0446
  157loPI    C3 2499   3.675  19.249  10.010  0.3301 -0.0672 -0.0186
  157loPI   PO4 2500   3.333  18.897   9.600  0.0970 -0.0033 -0.2920
  157loPI   GL1 2501   3.260  19.126   9.299  0.0956  0.0655  0.0546
  157loPI   GL2 2502   2.980  18.932   9.234  0.1380 -0.1920  0.3208
  157loPI   C1A 2503   3.155  19.172   8.850  0.0526  0.0016 -0.2258
  157loPI   C2A 2504   3.173  19.288   8.366 -0.1527  0.0083 -0.1759
  157loPI   C3A 2505   3.233  19.342   7.912 -0.0251 -0.1503 -0.3913
  157loPI   C4A 2506   3.297  19.615   7.557  0.2612 -0.0031  0.1261
  157loPI   C5A 2507   2.987  19.774   7.113  0.0574  0.0341 -0.1528
  157loPI   C6A 2508   2.831  20.222   7.099 -0.1275 -0.0625  0.2350
  157loPI   C1B 2509   2.587  19.101   8.976 -0.1072 -0.0019 -0.2402
  157loPI   C2B 2510   2.625  19.213   8.610 -0.1964  0.1653  0.0525
  157loPI   C3B 2511   2.681  19.284   8.180  0.1126  0.1692  0.1546
  157loPI   C4B 2512   2.738  19.263   7.731  0.0688  0.1384  0.2278
  158loPI    C1 2513   2.240   9.883   9.800 -0.1802  0.0447  0.0858
  158loPI    C2 2514   2.159   9.504   9.899  0.1980 -0.0449  0.0682
  158loPI    C3 2515   2.342   9.745  10.161 -0.0038  0.1157  0.0643
  158loPI   PO4 2516   2.029  10.011   9.753  0.0566  0.0597 -0.1453
  158loPI   GL1 2517   1.635  10.060   9.594 -0.1604  0.1561 -0.2213
  158loPI   GL2 2518   1.331   9.915   9.746 -0.0330  0.2193  0.4805
  158loPI   C1A 2519   1.392  10.177   9.230 -0.1249 -0.3906  0.1476
  158loPI   C2A 2520   1.412  10.099   8.830 -0.0363 -0.0970 -0.2644
  158loPI   C3A 2521   1.561   9.978   8.412 -0.0731  0.2128  0.0048
  158loPI   C4A 2522   1.541  10.252   8.112  0.0622  0.0142  0.3241
  158loPI   C5A 2523   1.687  10.532   7.815 -0.0085  0.0388 -0.0525
  158loPI   C6A 2524   1.768  10.833   7.548 -0.2214 -0.2570 -0.0513
  158loPI   C1B 2525   1.486   9.686   9.336  0.2282  0.0949 -0.1453
  158loPI   C2B 2526   1.772   9.881   9.114  0.0256  0.0143  0.2043
  158loPI   C3B 2527   1.984  10.033   8.673  0.1679 -0.1082 -0.4870
  158loPI   C4B 2528   1.898  10.397   8.462  0.1274  0.2532 -0.0048
  159loPI    C1 2529  11.387  10.501   9.625 -0.2159  0.0133 -0.1734
  159loPI    C2 2530  11.599  10.732   9.874 -0.2412 -0.0458 -0.0966
  159loPI    C3 2531  11.345  10.460  10.021 -0.3671  0.0212 -0.1880
  159loPI   PO4 2532  11.548  10.451   9.461  0.3349  0.0197  0.2823
  159loPI   GL1 2533  11.675  10.608   9.043 -0.2902  0.1722 -0.1126
  159loPI   GL2 2534  11.404  10.800   9.099  0.0248  0.0416 -0.0948
  159loPI   C1A 2535  11.872  10.671   8.617  0.2311  0.1957 -0.0891
  159loPI   C2A 2536  11.678  10.829   8.155 -0.1012  0.1879 -0.0464
  159loPI   C3A 2537  11.332  10.825   7.837 -0.0521  0.1411 -0.3571
  159loPI   C4A 2538  11.312  10.831   7.430  0.1781  0.1355  0.0709
  159loPI   C5A 2539  11.217  10.945   7.051  0.2304 -0.1261 -0.2999
  159loPI   C6A 2540  11.063  11.209   6.871  0.0889  0.1303  0.0959
  159loPI   C1B 2541  11.009  10.976   8.786 -0.2921 -0.1328 -0.0280
  159loPI   C2B 2542  10.889  11.329   8.604 -0.0452  0.2098  0.0165
  159loPI   C3B 2543  10.664  11.444   8.444 -0.1915  0.1341  0.0336
  159loPI   C4B 2544  10.288  11.618   8.723 -0.2096 -0.3593 -0.1054
  160loPI    C1 2545   0.570   7.620   9.769 -0.1182  0.0691  0.1827
  160loPI    C2 2546   0.565   8.015   9.835 -0.1972  0.1312 -0.1755
  160loPI    C3 2547   0.879   7.796   9.953 -0.0731  0.3295 -0.1341
  160loPI   PO4 2548   0.479   7.527   9.506 -0.2943  0.0929 -0.2538
  160loPI   GL1 2549   0.451   7.633   9.104 -0.0488 -0.0036  0.0672
  160loPI   GL2 2550   0.138   7.783   9.112  0.1122  0.1315 -0.1312
  160loPI   C1A 2551   0.403   7.452   8.649  0.0493 -0.1041  0.3943
  160loPI   C2A 2552   0.334   7.429   8.158  0.1215  0.1517  0.0757
  160loPI   C3A 2553   0.083   7.662   7.957  0.1029  0.1441 -0.2907
  160loPI   C4A 2554  -0.156   8.031   7.697 -0.0314  0.2115 -0.0903
  160loPI   C5A 2555  -0.239   8.331   7.349  0.0271  0.2638 -0.3782
  160loPI   C6A 2556  -0.521   8.412   7.142 -0.1603  0.0242  0.0220
  160loPI   C1B 2557  -0.040   7.896   8.637  0.0113  0.0628  0.2130
  160loPI   C2B 2558  -0.269   7.959   8.275 -0.1395 -0.1065 -0.1402
  160loPI   C3B 2559  -0.592   7.810   7.942 -0.0679 -0.1205  0.2028
  160loPI   C4B 2560  -0.936   7.637   7.672  0.0840 -0.0352  0.3766
  161loPI    C1 2561   8.788   8.117   9.468  0.0977  0.1481 -0.0425
  161loPI    C2 2562   8.837   7.740   9.592  0.1335  0.1185 -0.1463
  161loPI    C3 2563   9.040   8.036   9.767 -0.1992  0.1430  0.2119
  161loPI   PO4 2564   8.709   8.019   9.126  0.1555  0.1498  0.0770
  161loPI   GL1 2565   8.566   8.245   8.790 -0.0329 -0.2351 -0.0291
  161loPI   GL2 2566   8.372   8.400   8.566 -0.1024  0.1068 -0.0233
  161loPI   C1A 2567   8.624   8.068   8.343 -0.1943 -0.1169 -0.0735
  161loPI   C2A 2568   8.502   8.283   8.054 -0.1972 -0.1563  0.1953
  161loPI   C3A 2569   8.439   8.318   7.580  0.1761 -0.4147 -0.1014
  161loPI   C4A 2570   8.641   8.350   7.232  0.0420  0.3237 -0.6290
  161loPI   C5A 2571   8.982   8.150   6.988 -0.0045  0.1340 -0.2116
  161loPI   C6A 2572   9.259   7.831   6.709  0.0339  0.1522 -0.0633
  161loPI   C1B 2573   8.192   8.635   8.104  0.0943 -0.0074  0.0617
  161loPI   C2B 2574   8.145   8.679   7.723  0.2220  0.2318  0.2638
  161loPI   C3B 2575   8.142   8.944   7.342  0.1509 -0.2167 -0.0193
  161loPI   C4B 2576   8.271   9.249   7.066 -0.2472 -0.0843 -0.0469
  162loPI    C1 2577  15.714  17.517  10.024 -0.2106 -0.2727  0.2755
  162loPI    C2 2578  15.372  17.612   9.839 -0.0536  0.0418  0.1385
  162loPI    C3 2579  15.579  17.894  10.032  0.2768 -0.0820 -0.0269
  162loPI   PO4 2580  15.806  17.302   9.774 -0.2366 -0.0745 -0.0582
  162loPI   GL1 2581  15.860  17.323   9.307  0.1260  0.0177 -0.1644
  162loPI   GL2 2582  15.505  17.365   9.378  0.1334  0.1521  0.0964
  162loPI   C1A 2583  16.241  17.319   8.997  0.0185  0.0373  0.2301
  162loPI   C2A 2584  16.454  17.550   8.616  0.0565 -0.1908 -0.1028
  162loPI   C3A 2585  16.586  17.848   8.331  0.2195 -0.0946  0.0693
  162loPI   C4A 2586  16.780  18.128   8.112  0.3258 -0.0069 -0.2454
  162loPI   C5A 2587  16.747  18.577   8.047 -0.0346 -0.4373 -0.0987
  162loPI   C6A 2588  16.793  19.004   7.795 -0.1588  0.0840  0.0252
  162loPI   C1B 2589  15.640  17.382   8.912  0.3069 -0.0034 -0.0859
  162loPI   C2B 2590  15.907  17.211   8.699  0.2476  0.0054 -0.1106
  162loPI   C3B 2591  15.962  17.245   8.297  0.1793  0.2359 -0.0411
  162loPI   C4B 2592  16.408  17.258   8.237 -0.1058 -0.4484  0.2018
  163loPI    C1 2593  16.509  17.047  10.096  0.2262 -0.2230 -0.1685
  163loPI    C2 2594  16.760  17.331   9.967  0.2803 -0.2113 -0.0387
  163loPI    C3 2595  16.670  17.305  10.356  0.0078 -0.1580 -0.0964
  163loPI   PO4 2596  16.612  16.796   9.985  0.2551  0.0816  0.0268
  163loPI   GL1 2597  16.372  16.637   9.668  0.5476 -0.2292 -0.2469
  163loPI   GL2 2598  16.160  16.354   9.618  0.2005 -0.1882  0.1109
  163loPI   C1A 2599  16.247  16.859   9.275 -0.0416  0.3123 -0.2120
  163loPI   C2A 2600  16.261  16.774   8.853  0.0967  0.0431 -0.2193
  163loPI   C3A 2601  16.378  16.773   8.472 -0.2523  0.1450  0.1046
  163loPI   C4A 2602  16.231  16.847   7.998 -0.0912 -0.0228 -0.1988
  163loPI   C5A 2603  16.046  17.165   7.817 -0.1094 -0.2225  0.1593
  163loPI   C6A 2604  15.861  17.506   7.808  0.1313 -0.2353  0.0092
  163loPI   C1B 2605  16.326  16.388   9.186 -0.2350 -0.1476  0.2157
  163loPI   C2B 2606  16.541  16.340   8.752  0.7255 -0.4690 -0.0718
  163loPI   C3B 2607  16.812  16.121   8.553  0.0795 -0.2079 -0.2206
  163loPI   C4B 2608  17.003  15.765   8.594  0.0827 -0.0246 -0.2880
  164loPI    C1 2609   1.012  14.313  10.157  0.1453  0.2474 -0.1205
  164loPI    C2 2610   0.837  14.592   9.929 -0.3108  0.0280 -0.0497
  164loPI    C3 2611   0.698  14.518  10.297 -0.0636 -0.1525  0.0102
  164loPI   PO4 2612   1.055  14.077   9.981 -0.1398  0.4389  0.0456
  164loPI   GL1 2613   1.261  13.881   9.568 -0.1146 -0.1451  0.2559
  164loPI   GL2 2614   0.948  14.049   9.514 -0.3917  0.0624  0.0490
  164loPI   C1A 2615   1.456  14.037   9.187  0.0926 -0.0328 -0.0012
  164loPI   C2A 2616   1.556  14.117   8.787 -0.2522  0.2542  0.1672
  164loPI   C3A 2617   1.634  13.954   8.446 -0.1115 -0.4085  0.0909
  164loPI   C4A 2618   1.680  14.098   8.057 -0.2188 -0.0269 -0.4227
  164loPI   C5A 2619   1.948  14.258   7.725  0.2019 -0.0816  0.0945
  164loPI   C6A 2620   2.063  14.684   7.644  0.1950  0.1802 -0.0513
  164loPI   C1B 2621   0.933  14.151   9.126 -0.2009 -0.2770 -0.0600
  164loPI   C2B 2622   1.008  14.280   8.748 -0.0720  0.0537 -0.0468
  164loPI   C3B 2623   1.100  13.982   8.485  0.2051  0.0720  0.1217
  164loPI   C4B 2624   0.855  13.754   8.135  0.0254  0.1588  0.1705
  165loPI    C1 2625  16.566   6.431   9.645 -0.2797 -0.0944 -0.1063
  165loPI    C2 2626  16.410   6.735   9.436 -0.2220  0.1279  0.1671
  165loPI    C3 2627  16.402   6.743   9.836  0.0885 -0.0693  0.1806
  165loPI   PO4 2628  16.370   6.204   9.498 -0.2679  0.2497 -0.2689
  165loPI   GL1 2629  16.343   5.922   9.134  0.2030  0.2596  0.1579
  165loPI   GL2 2630  16.294   6.283   9.037  0.0298  0.3768  0.0594
  165loPI   C1A 2631  16.255   5.678   8.763  0.3903 -0.3348 -0.0738
  165loPI   C2A 2632  16.209   5.386   8.467 -0.0246 -0.1514 -0.1604
  165loPI   C3A 2633  16.157   5.320   8.024 -0.2727  0.0396 -0.1062
  165loPI   C4A 2634  16.211   5.313   7.590  0.3646 -0.3322 -0.1426
  165loPI   C5A 2635  15.855   5.419   7.416 -0.1978 -0.3133  0.1609
  165loPI   C6A 2636  15.388   5.353   7.421  0.2875 -0.1749 -0.1236
  165loPI   C1B 2637  16.423   6.459   8.665  0.1418 -0.0416  0.2624
  165loPI   C2B 2638  16.659   6.477   8.276  0.5642  0.3282 -0.0561
  165loPI   C3B 2639  16.414   6.753   7.918  0.3139  0.3953  0.1268
  165loPI   C4B 2640  16.001   7.006   7.788  0.1961  0.1382 -0.2996
  166loPI    C1 2641   4.966  10.520   9.945  0.0241  0.3300  0.1645
  166loPI    C2 2642   5.339  10.377   9.968 -0.0402  0.0997 -0.1548
  166loPI    C3 2643   5.116  10.406  10.298  0.0134 -0.4441 -0.0608
  166loPI   PO4 2644   4.855  10.324   9.587  0.0306  0.3344  0.0068
  166loPI   GL1 2645   4.804  10.518   9.222 -0.0570 -0.2164  0.0094
  166loPI   GL2 2646   4.666  10.782   9.230 -0.1392 -0.0127 -0.1272
  166loPI   C1A 2647   4.753  10.487   8.730  0.0685 -0.1383 -0.0967
  166loPI   C2A 2648   4.570  10.766   8.458  0.3626  0.0597  0.0511
  166loPI   C3A 2649   4.645  11.067   8.284 -0.1433 -0.2381 -0.2059
  166loPI   C4A 2650   4.361  11.315   7.992 -0.2099  0.2099 -0.0431
  166loPI   C5A 2651   4.025  11.221   7.753  0.1246 -0.2214 -0.1501
  166loPI   C6A 2652   3.502  11.321   7.555  0.0284 -0.0959  0.0918
  166loPI   C1B 2653   4.925  10.922   8.850 -0.1333 -0.3328 -0.2856
  166loPI   C2B 2654   5.095  11.051   8.421 -0.1486 -0.4653 -0.1216
  166loPI   C3B 2655   5.152  11.223   8.026  0.1241 -0.0734 -0.0170
  166loPI   C4B 2656   4.980  11.508   7.572 -0.0887 -0.1328 -0.2742
  167loPI    C1 2657  18.447  12.973  10.314  0.1303 -0.0162 -0.0775
  167loPI    C2 2658  18.678  12.803  10.035  0.0519 -0.2924  0.0223
  167loPI    C3 2659  18.473  12.575  10.291 -0.2302 -0.0485  0.0193
  167loPI   PO4 2660  18.347  13.227  10.166 -0.3454  0.2909  0.1192
  167loPI   GL1 2661  18.565  13.360   9.889 -0.0842 -0.0038 -0.1751
  167loPI   GL2 2662  18.772  13.651   9.930  0.0113 -0.1117  0.0750
  167loPI   C1A 2663  18.588  13.468   9.470  0.2576 -0.0643  0.3415
  167loPI   C2A 2664  18.608  13.505   9.063 -0.0423  0.0992 -0.0697
  167loPI   C3A 2665  18.693  13.707   8.628 -0.0539  0.0012  0.2675
  167loPI   C4A 2666  18.706  13.779   8.173  0.1555 -0.0495 -0.1915
  167loPI   C5A 2667  18.502  13.982   7.796 -0.0209 -0.1666  0.0131
  167loPI   C6A 2668  18.225  14.293   7.580  0.2442  0.2775  0.2745
  167loPI   C1B 2669  19.020  13.711   9.547 -0.2020 -0.3843 -0.2959
  167loPI   C2B 2670  18.934  13.875   9.133  0.1486  0.0599 -0.3527
  167loPI   C3B 2671  18.472  14.023   8.962 -0.0644  0.1704 -0.2688
  167loPI   C4B 2672  18.207  14.110   8.604 -0.1309  0.2820 -0.2143
  168loPI    C1 2673  14.730  13.052  10.143  0.0829 -0.1562 -0.2259
  168loPI    C2 2674  15.101  12.934  10.236  0.0338 -0.1403 -0.0037
  168loPI    C3 2675  14.917  13.210  10.459 -0.1114 -0.1458 -0.1149
  168loPI   PO4 2676  14.733  13.113   9.936 -0.1193  0.4033 -0.1748
  168loPI   GL1 2677  14.562  13.075   9.598 -0.2634  0.1236  0.1915
  168loPI   GL2 2678  14.505  13.224   9.321  0.1271 -0.2643  0.3778
  168loPI   C1A 2679  14.327  12.784   9.196 -0.0814 -0.1090  0.0063
  168loPI   C2A 2680  14.219  12.687   8.792  0.0172  0.1324 -0.0557
  168loPI   C3A 2681  14.128  12.706   8.449  0.2336 -0.0923 -0.2931
  168loPI   C4A 2682  14.143  12.882   8.112 -0.4028 -0.0804  0.0784
  168loPI   C5A 2683  14.182  13.167   7.704 -0.0660 -0.0160  0.1973
  168loPI   C6A 2684  14.364  13.273   7.268 -0.3831 -0.2818 -0.0335
  168loPI   C1B 2685  14.379  13.221   8.885  0.0859 -0.0524  0.1489
  168loPI   C2B 2686  13.961  13.135   8.615  0.2306  0.0260 -0.4242
  168loPI   C3B 2687  13.691  13.100   8.224  0.1523  0.2927  0.1286
  168loPI   C4B 2688  13.780  13.356   7.849  0.3358  0.0572 -0.1768
  169loPI    C1 2689   4.253  13.098  10.164  0.3015  0.2727 -0.1266
  169loPI    C2 2690   4.128  12.940  10.510 -0.0559  0.3229 -0.2300
  169loPI    C3 2691   4.208  12.702  10.199  0.0853  0.2926 -0.1709
  169loPI   PO4 2692   4.074  13.245  10.053 -0.0888  0.1858 -0.2271
  169loPI   GL1 2693   4.187  13.306   9.701  0.1352  0.0926  0.3088
  169loPI   GL2 2694   4.261  12.891   9.683  0.0549  0.3052  0.0994
  169loPI   C1A 2695   4.285  13.332   9.296 -0.1238 -0.1188 -0.0361
  169loPI   C2A 2696   4.454  13.398   8.932  0.0948 -0.2832  0.2241
  169loPI   C3A 2697   4.631  13.184   8.555 -0.1666 -0.1741 -0.3746
  169loPI   C4A 2698   4.643  13.303   8.189 -0.0108  0.1306 -0.0527
  169loPI   C5A 2699   4.305  13.226   7.800 -0.0687 -0.3228  0.3477
  169loPI   C6A 2700   4.040  13.439   7.534 -0.0777 -0.0352  0.1662
  169loPI   C1B 2701   4.681  13.046   9.483  0.0585 -0.0211  0.2575
  169loPI   C2B 2702   5.079  12.883   9.433  0.0614 -0.0921 -0.1970
  169loPI   C3B 2703   5.539  12.689   9.447  0.2046  0.3862  0.0168
  169loPI   C4B 2704   5.678  12.401   9.226 -0.3614  0.0026 -0.1713
  170loPI    C1 2705  17.963  12.291  10.343  0.1813  0.1885  0.1029
  170loPI    C2 2706  17.887  11.900  10.385 -0.0131  0.2028 -0.0983
  170loPI    C3 2707  17.796  12.154  10.680 -0.2707  0.1492 -0.1293
  170loPI   PO4 2708  18.014  12.285  10.108 -0.0097 -0.1799 -0.0360
  170loPI   GL1 2709  18.022  12.558   9.840  0.2234 -0.3398 -0.1323
  170loPI   GL2 2710  18.184  12.793   9.854 -0.2992  0.2465  0.0544
  170loPI   C1A 2711  18.167  12.699   9.354 -0.2561  0.1159  0.0357
  170loPI   C2A 2712  18.085  12.968   8.930  0.1213  0.0789 -0.2701
  170loPI   C3A 2713  18.073  12.990   8.417 -0.3350  0.0350  0.0263
  170loPI   C4A 2714  18.221  13.165   8.024 -0.2561 -0.1255 -0.0660
  170loPI   C5A 2715  18.539  13.407   7.721  0.5491 -0.3840 -0.1292
  170loPI   C6A 2716  18.917  13.698   7.639 -0.1161  0.0437 -0.2102
  170loPI   C1B 2717  18.580  12.901   9.594 -0.2168 -0.2193 -0.1291
  170loPI   C2B 2718  18.502  13.003   9.182 -0.0926  0.3483  0.3794
  170loPI   C3B 2719  18.537  13.143   8.695  0.1055 -0.2104 -0.1861
  170loPI   C4B 2720  18.589  13.290   8.257 -0.2648 -0.2267 -0.5031
  171loPI    C1 2721  13.330   7.200  10.026 -0.0459 -0.3099 -0.1058
  171loPI    C2 2722  13.274   6.918  10.304 -0.0151 -0.2251 -0.0127
  171loPI    C3 2723  13.617   7.124  10.295  0.0295 -0.3047 -0.1843
  171loPI   PO4 2724  13.281   7.140   9.823 -0.1712 -0.0469  0.0850
  171loPI   GL1 2725  13.057   7.224   9.491  0.0129 -0.1407 -0.0972
  171loPI   GL2 2726  12.843   6.998   9.393 -0.0718  0.0490  0.0480
  171loPI   C1A 2727  13.359   7.261   9.192 -0.0757 -0.0630  0.0704
  171loPI   C2A 2728  13.530   6.976   8.841 -0.4390  0.0480  0.1041
  171loPI   C3A 2729  13.464   7.124   8.400 -0.2422  0.2361  0.1794
  171loPI   C4A 2730  13.418   7.089   7.901  0.0001 -0.2950 -0.0368
  171loPI   C5A 2731  13.729   7.250   7.528  0.1762 -0.1642  0.0170
  171loPI   C6A 2732  14.017   7.582   7.465 -0.1851  0.1121  0.0742
  171loPI   C1B 2733  12.952   7.078   8.957 -0.0106 -0.2041 -0.2636
  171loPI   C2B 2734  12.709   7.013   8.550 -0.3995  0.1268 -0.3456
  171loPI   C3B 2735  12.472   7.129   8.201  0.6796  0.0212  0.0941
  171loPI   C4B 2736  12.624   7.184   7.804 -0.1547 -0.0174  0.0375
  172loPI    C1 2737  13.415  14.407  10.184 -0.0325  0.0817 -0.1337
  172loPI    C2 2738  13.043  14.534  10.261 -0.0384 -0.0802  0.1118
  172loPI    C3 2739  13.345  14.639  10.502  0.0810  0.0728 -0.1018
  172loPI   PO4 2740  13.410  14.415   9.950 -0.0711 -0.0508  0.2791
  172loPI   GL1 2741  13.239  14.330   9.498  0.0819 -0.2205  0.0504
  172loPI   GL2 2742  13.101  14.096   9.200 -0.1420  0.0372  0.4799
  172loPI   C1A 2743  13.531  14.417   9.207  0.3337 -0.0159  0.0474
  172loPI   C2A 2744  13.575  14.315   8.706 -0.1406  0.0621  0.0661
  172loPI   C3A 2745  13.736  14.105   8.228  0.2782  0.0255 -0.2840
  172loPI   C4A 2746  13.508  13.820   7.889 -0.0635 -0.0699  0.2496
  172loPI   C5A 2747  13.524  13.644   7.422 -0.1353 -0.1782 -0.0165
  172loPI   C6A 2748  13.640  13.504   7.007 -0.0721  0.1839 -0.2540
  172loPI   C1B 2749  12.729  14.142   8.968  0.0871 -0.1645  0.1451
  172loPI   C2B 2750  12.610  13.846   8.726  0.0197  0.0520 -0.1770
  172loPI   C3B 2751  12.638  13.821   8.318  0.2025 -0.5036  0.0747
  172loPI   C4B 2752  12.977  13.629   8.182 -0.1238  0.1971 -0.2468
  173loPI    C1 2753   7.395  16.025   9.935 -0.0449  0.0737 -0.2096
  173loPI    C2 2754   7.078  16.134  10.152  0.0154 -0.2539  0.0505
  173loPI    C3 2755   7.430  16.071  10.331  0.1817 -0.0820 -0.2099
  173loPI   PO4 2756   7.285  16.025   9.726  0.1600 -0.1126 -0.0601
  173loPI   GL1 2757   6.979  16.034   9.457 -0.1527 -0.0859 -0.0546
  173loPI   GL2 2758   6.876  15.785   9.586  0.3208 -0.1041 -0.2667
  173loPI   C1A 2759   7.120  16.180   9.076  0.0076  0.1619  0.1102
  173loPI   C2A 2760   7.374  16.261   8.789  0.0310 -0.0435  0.0657
  173loPI   C3A 2761   7.539  16.509   8.456 -0.2073  0.0922 -0.2542
  173loPI   C4A 2762   7.654  16.738   8.034 -0.1744  0.0424 -0.2107
  173loPI   C5A 2763   7.721  17.133   7.872  0.0902  0.0608 -0.0129
  173loPI   C6A 2764   7.648  17.530   7.545 -0.1208  0.0939  0.0120
  173loPI   C1B 2765   6.730  15.673   9.239 -0.0994 -0.0305 -0.0977
  173loPI   C2B 2766   6.761  15.780   8.733 -0.1330 -0.0615  0.5641
  173loPI   C3B 2767   6.886  15.713   8.250  0.0765 -0.1069 -0.0478
  173loPI   C4B 2768   7.008  15.934   7.865  0.0602  0.3116 -0.3318
  174loPI    C1 2769   6.753   2.194   9.223  0.0955 -0.0963 -0.2810
  174loPI    C2 2770   6.714   2.591   9.260 -0.1074 -0.1188 -0.2409
  174loPI    C3 2771   6.398   2.353   9.318  0.0714 -0.3050 -0.0098
  174loPI   PO4 2772   7.048   2.214   9.096  0.1083  0.2403 -0.3256
  174loPI   GL1 2773   7.038   1.980   8.773  0.1298  0.3375 -0.0433
  174loPI   GL2 2774   7.188   2.206   8.566  0.0220 -0.2093 -0.0046
  174loPI   C1A 2775   6.736   1.990   8.386 -0.2400 -0.3489 -0.2391
  174loPI   C2A 2776   6.449   2.151   8.339  0.1568 -0.0574 -0.0593
  174loPI   C3A 2777   6.120   2.138   8.012 -0.1438 -0.0050 -0.3256
  174loPI   C4A 2778   6.078   1.931   7.637 -0.0691  0.0987  0.0805
  174loPI   C5A 2779   6.067   1.946   7.140 -0.1140  0.1389 -0.0740
  174loPI   C6A 2780   6.110   2.169   6.805  0.1007  0.1170 -0.2306
  174loPI   C1B 2781   7.078   2.287   8.146 -0.0922  0.3359 -0.1935
  174loPI   C2B 2782   7.031   2.329   7.680 -0.0725 -0.0707  0.2541
  174loPI   C3B 2783   7.058   2.310   7.274 -0.3895 -0.0496  0.1129
  174loPI   C4B 2784   6.903   1.998   6.975 -0.2017 -0.4342  0.0540
  175loPI    C1 2785   2.606   7.447   9.744  0.2846  0.1069  0.1159
  175loPI    C2 2786   2.258   7.618   9.646  0.1750 -0.1411  0.0650
  175loPI    C3 2787   2.309   7.465  10.012  0.2395 -0.0844  0.0799
  175loPI   PO4 2788   2.724   7.594   9.486  0.0639  0.0650 -0.2183
  175loPI   GL1 2789   2.748   7.208   9.038  0.1770  0.3161 -0.2632
  175loPI   GL2 2790   2.991   7.451   9.027  0.1148  0.1098  0.0644
  175loPI   C1A 2791   3.093   7.086   8.663  0.1082 -0.2557  0.4940
  175loPI   C2A 2792   3.301   7.226   8.300 -0.1711 -0.1077  0.1956
  175loPI   C3A 2793   3.342   6.985   7.897 -0.4107  0.1181  0.0043
  175loPI   C4A 2794   3.315   6.799   7.574  0.1375 -0.2146  0.2144
  175loPI   C5A 2795   3.148   6.734   7.072  0.4834 -0.5303 -0.1713
  175loPI   C6A 2796   3.420   6.829   6.600 -0.3759  0.0616  0.2594
  175loPI   C1B 2797   3.034   7.598   8.614 -0.1220  0.1559 -0.0158
  175loPI   C2B 2798   3.164   7.931   8.284  0.1081  0.0042  0.0174
  175loPI   C3B 2799   2.962   7.946   7.797 -0.0378 -0.1051  0.0623
  175loPI   C4B 2800   2.853   8.093   7.498  0.0502 -0.1155  0.0269
  176loPI    C1 2801  18.809  12.921  10.650  0.2793  0.0250  0.4000
  176loPI    C2 2802  18.618  13.236  10.806  0.0044  0.1472 -0.1572
  176loPI    C3 2803  18.846  13.004  11.040 -0.4033  0.3047  0.4189
  176loPI   PO4 2804  18.916  13.040  10.385  0.1782 -0.3266 -0.0731
  176loPI   GL1 2805  19.132  12.933  10.086 -0.1764 -0.2642 -0.0638
  176loPI   GL2 2806  19.421  12.983   9.883 -0.2903  0.2578  0.4438
  176loPI   C1A 2807  19.018  13.160   9.665  0.0135 -0.1497 -0.2933
  176loPI   C2A 2808  19.129  13.334   9.204 -0.0253 -0.1213 -0.3734
  176loPI   C3A 2809  19.107  13.533   8.818 -0.0978  0.0921  0.1115
  176loPI   C4A 2810  19.073  13.438   8.394  0.2210 -0.1555  0.2403
  176loPI   C5A 2811  19.236  13.259   7.999  0.0303 -0.1735  0.0621
  176loPI   C6A 2812  19.015  12.914   7.800  0.2813 -0.0786  0.2153
  176loPI   C1B 2813  19.494  12.937   9.547 -0.3155  0.1651  0.1514
  176loPI   C2B 2814  19.610  13.181   9.279  0.0276  0.2814  0.1064
  176loPI   C3B 2815  19.574  13.461   8.917 -0.1093  0.0085 -0.0253
  176loPI   C4B 2816  19.438  13.726   8.546 -0.1008 -0.2025  0.2018
  177loPI    C1 2817   3.812   6.793   9.646  0.1082 -0.0673 -0.2575
  177loPI    C2 2818   3.423   6.879   9.675  0.0661 -0.3345  0.0188
  177loPI    C3 2819   3.640   6.821  10.005  0.3608 -0.1099 -0.1312
  177loPI   PO4 2820   3.918   7.029   9.544  0.0643 -0.4470  0.0234
  177loPI   GL1 2821   4.023   7.271   9.260 -0.1478  0.1992  0.0883
  177loPI   GL2 2822   4.397   7.106   9.131 -0.0186  0.3394  0.2739
  177loPI   C1A 2823   3.963   7.183   8.870  0.0145  0.0889  0.0626
  177loPI   C2A 2824   3.781   7.155   8.465  0.0290 -0.2147  0.0935
  177loPI   C3A 2825   3.834   7.190   7.924  0.2893  0.0628 -0.0426
  177loPI   C4A 2826   3.762   7.165   7.509  0.0441  0.2487  0.0614
  177loPI   C5A 2827   3.800   7.128   7.069  0.2490 -0.1109 -0.0164
  177loPI   C6A 2828   3.980   7.081   6.553 -0.0081 -0.1584 -0.0662
  177loPI   C1B 2829   4.671   7.138   8.813 -0.0761  0.2419 -0.1179
  177loPI   C2B 2830   4.942   7.266   8.585 -0.2453  0.1902  0.0826
  177loPI   C3B 2831   5.253   7.084   8.342 -0.1972 -0.1734  0.3177
  177loPI   C4B 2832   5.660   7.001   8.092  0.0107  0.0689  0.1349
  178loPI    C1 2833  18.929   4.238  10.040  0.1681  0.1068 -0.0317
  178loPI    C2 2834  19.180   4.120  10.328  0.0661  0.0697  0.0425
  178loPI    C3 2835  19.233   4.474  10.149  0.2885 -0.0246 -0.0812
  178loPI   PO4 2836  18.900   4.102   9.759 -0.0457  0.3104 -0.1390
  178loPI   GL1 2837  18.589   3.940   9.407  0.1858  0.0591  0.0328
  178loPI   GL2 2838  18.375   3.647   9.406  0.3433  0.2965 -0.4194
  178loPI   C1A 2839  18.522   3.961   8.964  0.1075  0.0025  0.1525
  178loPI   C2A 2840  18.430   3.813   8.508  0.0808 -0.2566  0.2200
  178loPI   C3A 2841  18.393   3.865   7.988  0.0510 -0.0821  0.0083
  178loPI   C4A 2842  18.615   3.859   7.637 -0.1482 -0.2804  0.1618
  178loPI   C5A 2843  18.858   4.177   7.397  0.2116 -0.0823  0.0696
  178loPI   C6A 2844  18.909   4.333   6.998  0.3204 -0.0632  0.1312
  178loPI   C1B 2845  18.349   3.512   9.016 -0.1508 -0.0922 -0.0070
  178loPI   C2B 2846  18.126   3.442   8.664  0.0348 -0.0500 -0.3133
  178loPI   C3B 2847  18.183   3.199   8.324 -0.0969 -0.2633 -0.0011
  178loPI   C4B 2848  18.207   2.939   7.998  0.1690 -0.0838 -0.0972
  179loPI    C1 2849   3.928   9.981  10.039 -0.2340 -0.2907 -0.1917
  179loPI    C2 2850   3.577  10.100  10.189  0.0036  0.0174  0.1368
  179loPI    C3 2851   3.830   9.890  10.415  0.0991 -0.0674 -0.0465
  179loPI   PO4 2852   3.958   9.927   9.794 -0.0250 -0.0942  0.1612
  179loPI   GL1 2853   4.031   9.796   9.533 -0.2739  0.0578 -0.1680
  179loPI   GL2 2854   4.022   9.499   9.406  0.3852  0.1139  0.0126
  179loPI   C1A 2855   4.239   9.795   9.073  0.0273 -0.1032  0.0244
  179loPI   C2A 2856   4.196   9.915   8.663 -0.0563 -0.3443  0.1702
  179loPI   C3A 2857   4.077   9.942   8.193  0.0176  0.0705 -0.0863
  179loPI   C4A 2858   4.195  10.181   7.848 -0.0166  0.2195  0.1914
  179loPI   C5A 2859   4.406  10.361   7.516 -0.1406  0.1528  0.2142
  179loPI   C6A 2860   4.625  10.208   7.236  0.1522 -0.0513 -0.4716
  179loPI   C1B 2861   3.892   9.363   8.959 -0.0284 -0.2691 -0.1633
  179loPI   C2B 2862   3.725   9.432   8.624 -0.1155  0.1035 -0.1073
  179loPI   C3B 2863   3.660   9.286   8.169  0.0343  0.1659 -0.1564
  179loPI   C4B 2864   3.434   9.045   7.839  0.0746  0.0339 -0.1418
  180loPI    C1 2865  12.668   1.371   9.741 -0.0522 -0.3637  0.1121
  180loPI    C2 2866  12.887   1.193  10.024  0.0489 -0.1883  0.1452
  180loPI    C3 2867  12.554   1.391  10.124  0.1685  0.0069  0.1631
  180loPI   PO4 2868  12.627   1.186   9.520 -0.1675  0.2722  0.1074
  180loPI   GL1 2869  12.456   0.911   9.248 -0.0698 -0.1984  0.1094
  180loPI   GL2 2870  12.082   0.692   9.457  0.1049  0.0065  0.2241
  180loPI   C1A 2871  12.161   0.883   8.971  0.0658  0.1841  0.1180
  180loPI   C2A 2872  11.965   0.898   8.641  0.0314  0.0629 -0.0933
  180loPI   C3A 2873  11.812   0.778   8.169  0.1567 -0.1531  0.0125
  180loPI   C4A 2874  11.496   0.557   7.945 -0.1037  0.1007  0.1133
  180loPI   C5A 2875  11.588   0.592   7.444 -0.1551 -0.1238  0.0145
  180loPI   C6A 2876  11.655   0.880   7.084  0.2764  0.0444 -0.2368
  180loPI   C1B 2877  12.364   0.443   9.165  0.1669  0.0212  0.1459
  180loPI   C2B 2878  12.546   0.541   8.738 -0.1703  0.0019 -0.2520
  180loPI   C3B 2879  12.624   0.144   8.536  0.0278 -0.2089  0.0667
  180loPI   C4B 2880  12.760  -0.233   8.628  0.1547  0.2751  0.1334
  181loPI    C1 2881   5.646   6.026   9.598 -0.0885 -0.0284  0.0469
  181loPI    C2 2882   5.475   6.347   9.431 -0.2269  0.0200  0.2768
  181loPI    C3 2883   5.594   6.359   9.813 -0.0611 -0.1418  0.2318
  181loPI   PO4 2884   5.436   5.805   9.409  0.0174  0.1217 -0.1095
  181loPI   GL1 2885   5.401   5.728   8.988  0.0295  0.1243  0.2124
  181loPI   GL2 2886   5.556   5.532   8.810  0.0977  0.3712 -0.3414
  181loPI   C1A 2887   5.122   5.890   8.667  0.3356 -0.0267 -0.1047
  181loPI   C2A 2888   4.948   5.937   8.256  0.3954 -0.0645  0.5053
  181loPI   C3A 2889   4.986   5.601   7.914  0.3634 -0.3963  0.2359
  181loPI   C4A 2890   4.939   5.576   7.424  0.4113 -0.0318  0.0305
  181loPI   C5A 2891   4.590   5.409   7.225  0.0199  0.3828 -0.2544
  181loPI   C6A 2892   4.199   5.173   7.032  0.1251  0.1251 -0.0236
  181loPI   C1B 2893   5.791   5.521   8.409 -0.1043  0.0184 -0.0501
  181loPI   C2B 2894   5.955   5.736   8.116 -0.1819 -0.1936  0.1140
  181loPI   C3B 2895   5.939   5.690   7.681  0.0465  0.2467  0.2508
  181loPI   C4B 2896   5.862   5.714   7.270 -0.0258  0.1037 -0.1190
  182loPI    C1 2897  13.166  11.860   9.898 -0.1889  0.1414 -0.0423
  182loPI    C2 2898  12.848  11.940  10.127 -0.1326  0.3004 -0.0187
  182loPI    C3 2899  13.214  12.047  10.248 -0.0642  0.0799 -0.0259
  182loPI   PO4 2900  13.100  11.904   9.656 -0.3005 -0.3705 -0.3252
  182loPI   GL1 2901  13.137  11.661   9.334 -0.1277  0.0272 -0.1867
  182loPI   GL2 2902  12.819  11.555   9.256 -0.3553 -0.1551  0.1741
  182loPI   C1A 2903  13.364  11.726   8.854  0.3181  0.1865 -0.1215
  182loPI   C2A 2904  13.379  11.574   8.417 -0.3866  0.0226  0.2794
  182loPI   C3A 2905  13.315  11.513   7.986  0.0601 -0.4212 -0.0852
  182loPI   C4A 2906  13.393  11.594   7.597  0.0205 -0.1194 -0.0411
  182loPI   C5A 2907  13.716  11.614   7.366  0.0043  0.1427  0.0728
  182loPI   C6A 2908  14.169  11.562   7.225  0.0813  0.2722  0.1362
  182loPI   C1B 2909  12.857  11.558   8.763  0.0331  0.3335  0.2747
  182loPI   C2B 2910  12.805  11.583   8.372 -0.2795  0.2384 -0.0122
  182loPI   C3B 2911  12.759  11.490   7.922  0.0254 -0.2464  0.6911
  182loPI   C4B 2912  12.733  11.532   7.544 -0.0234  0.0202 -0.0007
  183loPI    C1 2913   1.764  17.742   9.801 -0.1917  0.0093  0.1473
  183loPI    C2 2914   1.782  18.124   9.918  0.1237 -0.0120  0.1762
  183loPI    C3 2915   1.963  17.840  10.133 -0.0387 -0.1681  0.1095
  183loPI   PO4 2916   1.533  17.780   9.650  0.1106  0.0824  0.1346
  183loPI   GL1 2917   1.555  17.669   9.221  0.1738 -0.1420 -0.2530
  183loPI   GL2 2918   1.399  17.367   9.298 -0.1222 -0.0714 -0.0317
  183loPI   C1A 2919   1.595  17.479   8.741 -0.0477 -0.1602  0.0767
  183loPI   C2A 2920   1.479  17.275   8.342 -0.5159 -0.1495 -0.1828
  183loPI   C3A 2921   1.524  17.196   7.885  0.1382 -0.3116 -0.2015
  183loPI   C4A 2922   1.754  17.309   7.507 -0.2389  0.1389 -0.0880
  183loPI   C5A 2923   2.114  17.262   7.266 -0.1166  0.2217 -0.0829
  183loPI   C6A 2924   2.303  16.994   6.956  0.1293  0.1678 -0.0356
  183loPI   C1B 2925   1.345  17.054   8.895 -0.1943  0.1950 -0.4422
  183loPI   C2B 2926   1.032  17.111   8.543 -0.0951  0.0217  0.1716
  183loPI   C3B 2927   0.969  17.182   8.148  0.0354  0.1466  0.3042
  183loPI   C4B 2928   0.545  17.296   7.912  0.0074  0.0382 -0.0938
  184loPI    C1 2929   1.024   7.311   9.707 -0.0904 -0.1881  0.0962
  184loPI    C2 2930   1.230   7.267  10.047 -0.1458 -0.1963  0.1288
  184loPI    C3 2931   0.832   7.300  10.058 -0.1315  0.0002  0.0804
  184loPI   PO4 2932   1.047   7.141   9.506  0.3800 -0.0515  0.1785
  184loPI   GL1 2933   1.345   7.179   9.149  0.0020 -0.1666  0.0619
  184loPI   GL2 2934   1.316   6.830   9.150 -0.0648  0.0913 -0.2457
  184loPI   C1A 2935   1.342   7.541   8.843  0.1371  0.2042  0.3813
  184loPI   C2A 2936   1.254   7.585   8.310  0.4093  0.0406  0.4032
  184loPI   C3A 2937   1.018   7.400   8.067  0.2434 -0.2468 -0.1047
  184loPI   C4A 2938   0.700   7.560   7.655  0.0983 -0.2645 -0.2073
  184loPI   C5A 2939   0.317   7.816   7.481  0.0985 -0.0223  0.0858
  184loPI   C6A 2940  -0.061   7.857   7.242  0.0934 -0.1526 -0.1449
  184loPI   C1B 2941   1.173   6.955   8.759 -0.1348 -0.4324  0.0350
  184loPI   C2B 2942   1.294   6.877   8.371  0.2080  0.3906 -0.0958
  184loPI   C3B 2943   1.285   7.031   7.921  0.1604 -0.0222 -0.1030
  184loPI   C4B 2944   1.584   7.091   7.596 -0.2049  0.0426  0.0247
  185loPI    C1 2945   4.147   4.306   9.326  0.1144  0.0254 -0.0822
  185loPI    C2 2946   4.157   4.134   9.687 -0.1133  0.3369  0.0772
  185loPI    C3 2947   4.496   4.188   9.481  0.0116  0.1080  0.2189
  185loPI   PO4 2948   3.953   4.465   9.335  0.1439  0.0662 -0.3818
  185loPI   GL1 2949   3.774   4.656   9.038 -0.1688  0.3195  0.2653
  185loPI   GL2 2950   4.005   4.704   8.830 -0.2614 -0.1680  0.2213
  185loPI   C1A 2951   3.548   4.404   8.699  0.1438  0.0705  0.0516
  185loPI   C2A 2952   3.477   4.194   8.297  0.3065  0.0400  0.1051
  185loPI   C3A 2953   3.175   3.826   8.187 -0.0072  0.0490 -0.1426
  185loPI   C4A 2954   3.008   3.587   7.796  0.0114  0.1849 -0.0670
  185loPI   C5A 2955   2.875   3.344   7.427 -0.2178 -0.0574 -0.1724
  185loPI   C6A 2956   2.614   3.497   7.108  0.1015 -0.1116 -0.1349
  185loPI   C1B 2957   3.921   4.634   8.427  0.3765 -0.4375  0.1643
  185loPI   C2B 2958   3.818   4.575   8.045 -0.1557 -0.2123  0.1262
  185loPI   C3B 2959   3.655   4.276   7.756 -0.3868 -0.2708 -0.2128
  185loPI   C4B 2960   3.419   4.241   7.344  0.2654  0.0390  0.2550
  186loPI    C1 2961  11.489  18.524  10.325  0.1208 -0.1257 -0.3005
  186loPI    C2 2962  11.819  18.726  10.224  0.1227  0.0687  0.0773
  186loPI    C3 2963  11.769  18.600  10.601 -0.2505  0.0719  0.0330
  186loPI   PO4 2964  11.487  18.325  10.139  0.0775  0.2506 -0.0546
  186loPI   GL1 2965  11.733  18.368   9.783  0.1487  0.1781  0.1534
  186loPI   GL2 2966  11.719  18.136   9.483  0.1878  0.1307  0.0359
  186loPI   C1A 2967  12.081  18.538   9.708 -0.2949  0.1652  0.2216
  186loPI   C2A 2968  12.125  18.446   9.222  0.2635 -0.2137  0.7596
  186loPI   C3A 2969  12.118  18.423   8.811 -0.2479  0.3082  0.0892
  186loPI   C4A 2970  12.126  18.273   8.369 -0.1946  0.0536 -0.0156
  186loPI   C5A 2971  12.178  18.069   7.946  0.0337  0.0800 -0.0555
  186loPI   C6A 2972  12.440  18.044   7.618  0.0297 -0.4298  0.0123
  186loPI   C1B 2973  11.693  18.193   9.080 -0.0489  0.0665  0.1067
  186loPI   C2B 2974  11.740  18.005   8.710  0.2493 -0.0297  0.6370
  186loPI   C3B 2975  11.701  18.008   8.251  0.3400 -0.1030  0.1671
  186loPI   C4B 2976  11.729  17.868   7.862 -0.1553  0.0730 -0.0566
  187loPI    C1 2977   5.342   0.319   9.663  0.3007 -0.1772  0.0873
  187loPI    C2 2978   5.443   0.600   9.929  0.5663 -0.0443 -0.1480
  187loPI    C3 2979   5.346   0.233  10.054  0.3977  0.0974  0.1492
  187loPI   PO4 2980   5.413   0.472   9.447 -0.0419  0.1727 -0.0105
  187loPI   GL1 2981   5.498   0.528   9.019 -0.0559  0.0766  0.0154
  187loPI   GL2 2982   5.463   0.771   8.783 -0.0211  0.3883 -0.0042
  187loPI   C1A 2983   5.334   0.361   8.593  0.1327 -0.1175 -0.0227
  187loPI   C2A 2984   5.428   0.138   8.204 -0.0964  0.1550  0.0396
  187loPI   C3A 2985   5.470  -0.256   7.952 -0.0793  0.0359 -0.1247
  187loPI   C4A 2986   5.401  -0.674   7.664 -0.1940  0.1105 -0.0111
  187loPI   C5A 2987   5.558  -0.757   7.217  0.1020  0.0183 -0.2043
  187loPI   C6A 2988   5.597  -0.369   6.832  0.3626 -0.0080  0.3016
  187loPI   C1B 2989   5.663   0.710   8.263  0.0354 -0.2504 -0.1029
  187loPI   C2B 2990   5.821   0.406   7.924 -0.3255  0.1081 -0.1630
  187loPI   C3B 2991   5.898  -0.054   7.826  0.2495 -0.3626  0.0205
  187loPI   C4B 2992   5.799  -0.300   7.477 -0.0419 -0.0019 -0.2389
  188loPI    C1 2993   4.935  18.094   9.731 -0.1555  0.0584 -0.1794
  188loPI    C2 2994   5.050  18.410   9.948  0.1841 -0.0609 -0.1797
  188loPI    C3 2995   4.827  18.124  10.115 -0.2314  0.2344 -0.2135
  188loPI   PO4 2996   4.906  17.907   9.560 -0.0230 -0.0054 -0.0888
  188loPI   GL1 2997   5.003  17.982   9.170 -0.1187  0.2153 -0.0646
  188loPI   GL2 2998   4.770  18.102   8.951  0.0418  0.0446 -0.1390
  188loPI   C1A 2999   5.249  17.752   8.880  0.1278 -0.0253  0.0074
  188loPI   C2A 3000   5.408  17.718   8.403  0.0694  0.2329  0.3049
  188loPI   C3A 3001   5.269  17.892   8.016 -0.2324 -0.2070  0.1693
  188loPI   C4A 3002   5.326  17.691   7.611 -0.1426 -0.0548  0.3397
  188loPI   C5A 3003   5.038  17.732   7.225 -0.3976 -0.2358 -0.1444
  188loPI   C6A 3004   4.859  17.885   6.856 -0.1627 -0.4168 -0.3077
  188loPI   C1B 3005   4.479  17.987   8.726 -0.1137 -0.1790  0.0617
  188loPI   C2B 3006   4.458  18.058   8.240  0.0134 -0.0774  0.3181
  188loPI   C3B 3007   4.290  17.997   7.815 -0.3806 -0.0746  0.3111
  188loPI   C4B 3008   4.139  17.940   7.416  0.0728  0.1127  0.1886
  189loPI    C1 3009   4.985  18.860   9.419  0.0686 -0.0523  0.0267
  189loPI    C2 3010   5.202  18.798   9.750  0.1182  0.0276  0.0094
  189loPI    C3 3011   4.849  18.984   9.774  0.0613 -0.0831  0.0346
  189loPI   PO4 3012   5.127  18.932   9.249  0.2737 -0.0336  0.4086
  189loPI   GL1 3013   5.100  19.050   8.769  0.0813 -0.1558 -0.0067
  189loPI   GL2 3014   5.032  19.397   8.711  0.2874  0.2253  0.1366
  189loPI   C1A 3015   5.173  18.684   8.489  0.1497 -0.3983 -0.0027
  189loPI   C2A 3016   5.243  18.398   8.121  0.1381 -0.1563 -0.1512
  189loPI   C3A 3017   5.246  18.223   7.615 -0.2784  0.0554  0.0206
  189loPI   C4A 3018   5.463  18.020   7.286  0.2344 -0.1551 -0.2596
  189loPI   C5A 3019   5.608  17.679   7.179 -0.0989 -0.2487  0.1871
  189loPI   C6A 3020   5.814  17.332   7.393 -0.1483 -0.1252  0.2420
  189loPI   C1B 3021   4.894  19.491   8.318 -0.0310 -0.1601 -0.1959
  189loPI   C2B 3022   4.992  19.457   7.922  0.1755  0.4262  0.1896
  189loPI   C3B 3023   5.410  19.481   7.693  0.2610 -0.1126 -0.1468
  189loPI   C4B 3024   5.737  19.632   7.457  0.1402  0.0161  0.2626
  190loPI    C1 3025  13.973   5.502   9.943 -0.0273  0.0979 -0.0341
  190loPI    C2 3026  13.652   5.409  10.164 -0.0296 -0.4103 -0.2384
  190loPI    C3 3027  14.019   5.383  10.322 -0.0590 -0.3028 -0.1514
  190loPI   PO4 3028  13.820   5.458   9.679 -0.5125  0.1037  0.2790
  190loPI   GL1 3029  13.747   5.775   9.348  0.2304 -0.0450 -0.0973
  190loPI   GL2 3030  14.056   5.740   9.164  0.2254 -0.0601  0.0991
  190loPI   C1A 3031  13.844   6.125   9.011 -0.3880 -0.1575 -0.1907
  190loPI   C2A 3032  14.024   6.302   8.611 -0.1239  0.0886  0.0820
  190loPI   C3A 3033  14.161   6.438   8.247 -0.1323 -0.3223  0.1407
  190loPI   C4A 3034  13.984   6.356   7.826 -0.1506  0.1704  0.0883
  190loPI   C5A 3035  13.801   6.454   7.462  0.1984 -0.1571  0.1884
  190loPI   C6A 3036  13.537   6.552   7.093 -0.2557  0.0785 -0.0063
  190loPI   C1B 3037  13.972   5.733   8.760 -0.2802 -0.1084 -0.2440
  190loPI   C2B 3038  13.946   5.516   8.450 -0.0520 -0.0828  0.0431
  190loPI   C3B 3039  14.082   5.500   7.938 -0.0719  0.1028 -0.1465
  190loPI   C4B 3040  14.114   5.440   7.504  0.1122  0.0182 -0.0137
  191loPI    C1 3041   2.507  12.758  10.100 -0.1314 -0.2660  0.0685
  191loPI    C2 3042   2.350  12.549  10.402  0.0645 -0.0906  0.2955
  191loPI    C3 3043   2.597  12.855  10.477  0.0601 -0.0003 -0.0417
  191loPI   PO4 3044   2.326  12.702   9.876 -0.0126  0.1234 -0.2058
  191loPI   GL1 3045   2.164  12.842   9.539  0.2203  0.0910 -0.0246
  191loPI   GL2 3046   2.046  12.571   9.365 -0.4049  0.1917  0.1713
  191loPI   C1A 3047   2.382  13.134   9.228  0.0247 -0.0658 -0.3199
  191loPI   C2A 3048   2.374  13.355   8.929  0.1322 -0.1138  0.0437
  191loPI   C3A 3049   2.606  13.537   8.521 -0.0424  0.2290  0.1776
  191loPI   C4A 3050   2.465  13.364   8.108  0.1733  0.0438 -0.0123
  191loPI   C5A 3051   2.152  13.312   7.894  0.0608  0.0903  0.0153
  191loPI   C6A 3052   1.737  13.395   7.973 -0.0293  0.0711 -0.1119
  191loPI   C1B 3053   2.175  12.505   8.908 -0.0606  0.0569  0.0191
  191loPI   C2B 3054   2.312  12.569   8.599  0.1018  0.3061  0.0529
  191loPI   C3B 3055   2.149  12.443   8.169 -0.0197  0.0458  0.1532
  191loPI   C4B 3056   1.845  12.670   7.996 -0.1034 -0.0115 -0.1438
  192loPI    C1 3057  11.876   7.936   9.862 -0.1217 -0.1009 -0.2546
  192loPI    C2 3058  12.087   7.827   9.540  0.1374  0.0292 -0.1320
  192loPI    C3 3059  12.184   7.682   9.899 -0.1627 -0.1306 -0.1124
  192loPI   PO4 3060  11.568   7.952   9.770 -0.1527 -0.1394  0.0047
  192loPI   GL1 3061  11.458   7.979   9.361 -0.0987  0.2249  0.1425
  192loPI   GL2 3062  11.501   8.193   9.090  0.2219 -0.0683 -0.2725
  192loPI   C1A 3063  11.369   7.678   9.092 -0.3672  0.0380  0.1298
  192loPI   C2A 3064  11.345   7.434   8.713 -0.0760  0.0580  0.2664
  192loPI   C3A 3065  11.228   7.463   8.282 -0.0059 -0.0604 -0.2446
  192loPI   C4A 3066  11.126   7.468   7.851  0.0780 -0.0255  0.3472
  192loPI   C5A 3067  11.212   7.327   7.432  0.0244  0.0092  0.1761
  192loPI   C6A 3068  11.541   7.254   7.138  0.3595  0.5063  0.1470
  192loPI   C1B 3069  11.593   8.328   8.655  0.1571 -0.0149 -0.1788
  192loPI   C2B 3070  11.734   7.993   8.287  0.2319 -0.2145 -0.0715
  192loPI   C3B 3071  12.065   7.673   8.066  0.4715  0.2530 -0.2251
  192loPI   C4B 3072  12.181   7.387   7.864 -0.0197  0.0705 -0.1191
  193loPI    C1 3073   2.877  12.438  10.106 -0.0554 -0.0504  0.1351
  193loPI    C2 3074   2.662  12.129  10.242 -0.1687 -0.0132  0.0418
  193loPI    C3 3075   2.809  12.398  10.498 -0.4065  0.0730  0.0901
  193loPI   PO4 3076   2.797  12.480   9.860 -0.0840  0.1184 -0.1958
  193loPI   GL1 3077   2.694  12.748   9.455  0.3977  0.2015 -0.1801
  193loPI   GL2 3078   2.738  12.453   9.297 -0.0230  0.1661  0.0702
  193loPI   C1A 3079   2.983  13.041   9.291  0.3972 -0.0587 -0.0688
  193loPI   C2A 3080   2.832  13.116   8.949 -0.2969  0.1872  0.4928
  193loPI   C3A 3081   2.457  13.039   8.562  0.1936 -0.0409  0.1608
  193loPI   C4A 3082   2.229  12.940   8.235 -0.2209  0.0211 -0.0936
  193loPI   C5A 3083   2.291  12.790   7.769  0.1091 -0.0747 -0.2544
  193loPI   C6A 3084   2.213  12.946   7.390  0.2043 -0.0055  0.1500
  193loPI   C1B 3085   2.725  12.592   8.861  0.0232 -0.0377  0.0022
  193loPI   C2B 3086   2.804  12.402   8.450  0.0817 -0.1315 -0.4109
  193loPI   C3B 3087   2.660  12.655   8.208  0.0997  0.0728  0.3355
  193loPI   C4B 3088   2.856  13.043   7.900  0.2256  0.0079 -0.1005
  194loPI    C1 3089   8.309   9.042   9.226 -0.1436 -0.1893 -0.1133
  194loPI    C2 3090   7.986   8.840   9.350 -0.0217 -0.2369  0.1323
  194loPI    C3 3091   8.152   9.118   9.586  0.3702 -0.5130  0.1925
  194loPI   PO4 3092   8.352   9.002   9.056  0.1177 -0.2456  0.0551
  194loPI   GL1 3093   8.641   8.798   8.788 -0.1394  0.2031  0.2405
  194loPI   GL2 3094   8.718   9.063   8.650 -0.0922  0.3153 -0.1678
  194loPI   C1A 3095   8.633   8.713   8.304  0.0306  0.0584 -0.1367
  194loPI   C2A 3096   8.644   8.729   7.904 -0.1509  0.2111  0.1477
  194loPI   C3A 3097   8.589   8.900   7.458 -0.0681 -0.3129  0.2324
  194loPI   C4A 3098   8.494   8.759   6.964  0.1468 -0.2444  0.3305
  194loPI   C5A 3099   8.076   8.841   6.820  0.1703 -0.3003 -0.1520
  194loPI   C6A 3100   7.711   9.093   6.996  0.2655 -0.0460 -0.2040
  194loPI   C1B 3101   8.896   9.315   8.349 -0.1606  0.4570 -0.2665
  194loPI   C2B 3102   9.156   9.434   8.055  0.1836  0.1163  0.3534
  194loPI   C3B 3103   9.441   9.240   7.879 -0.1328  0.0773  0.0837
  194loPI   C4B 3104   9.532   9.248   7.519  0.0808  0.2056  0.0869
  195loPI    C1 3105   6.427   0.100   9.207  0.0518  0.1576  0.1568
  195loPI    C2 3106   6.610   0.027   9.555 -0.1260  0.0064  0.2201
  195loPI    C3 3107   6.639   0.388   9.386  0.0940  0.0326  0.3105
  195loPI   PO4 3108   6.425  -0.059   9.102 -0.1897  0.2390  0.3424
  195loPI   GL1 3109   6.524  -0.303   8.917  0.0449  0.0188  0.1317
  195loPI   GL2 3110   6.482  -0.706   8.978 -0.1243 -0.0973  0.1855
  195loPI   C1A 3111   6.486  -0.385   8.428  0.0170  0.1302 -0.2857
  195loPI   C2A 3112   6.339  -0.188   8.098  0.2184 -0.1513 -0.2140
  195loPI   C3A 3113   6.346  -0.168   7.593  0.0401  0.0409 -0.0474
  195loPI   C4A 3114   6.434   0.044   7.150 -0.1614  0.0651 -0.2331
  195loPI   C5A 3115   6.563   0.259   6.755 -0.1929 -0.0669 -0.1740
  195loPI   C6A 3116   6.804   0.530   6.591  0.1144  0.2280 -0.1180
  195loPI   C1B 3117   6.559  -0.859   8.542  0.0925  0.3025 -0.0417
  195loPI   C2B 3118   6.771  -1.091   8.190 -0.3079  0.1515  0.0183
  195loPI   C3B 3119   6.978  -0.967   7.815 -0.2786  0.0785 -0.0793
  195loPI   C4B 3120   7.083  -0.981   7.501 -0.1067  0.0858 -0.0140
  196loPI    C1 3121   7.545  18.356   9.536  0.1317 -0.0511 -0.0460
  196loPI    C2 3122   7.884  18.562   9.489  0.0316  0.1083 -0.0780
  196loPI    C3 3123   7.638  18.649   9.792 -0.0965  0.1548 -0.1946
  196loPI   PO4 3124   7.490  18.338   9.250 -0.1138 -0.0750 -0.1526
  196loPI   GL1 3125   7.450  18.138   8.955  0.0559 -0.1332  0.2824
  196loPI   GL2 3126   7.241  18.181   8.709 -0.0768 -0.3080 -0.1537
  196loPI   C1A 3127   7.617  17.950   8.599 -0.0836  0.2563 -0.1588
  196loPI   C2A 3128   7.864  17.791   8.263  0.1095 -0.1274 -0.3131
  196loPI   C3A 3129   7.969  17.528   8.013  0.2061 -0.2441 -0.0360
  196loPI   C4A 3130   8.148  17.219   7.603 -0.0161  0.0839 -0.1146
  196loPI   C5A 3131   8.576  17.114   7.538  0.3095  0.4288  0.1631
  196loPI   C6A 3132   8.879  17.187   7.132 -0.1672  0.2110 -0.5375
  196loPI   C1B 3133   7.241  18.238   8.327 -0.0913  0.3099  0.1120
  196loPI   C2B 3134   7.446  18.018   8.038 -0.0715 -0.1047 -0.0381
  196loPI   C3B 3135   7.560  18.040   7.559 -0.0447 -0.0319 -0.3475
  196loPI   C4B 3136   7.596  17.895   7.081  0.1085  0.2382 -0.1751
  197loPI    C1 3137  14.727  10.292   9.926 -0.2414 -0.1299 -0.1340
  197loPI    C2 3138  14.600  10.016  10.186 -0.0749 -0.1687 -0.0931
  197loPI    C3 3139  14.798  10.339  10.316  0.1806 -0.2849 -0.1875
  197loPI   PO4 3140  14.778  10.185   9.718 -0.0124  0.0536 -0.3201
  197loPI   GL1 3141  15.040  10.198   9.511 -0.0465 -0.0464  0.0825
  197loPI   GL2 3142  15.137   9.860   9.596 -0.0325 -0.1430 -0.1465
  197loPI   C1A 3143  15.286  10.418   9.158  0.2592 -0.1812  0.0380
  197loPI   C2A 3144  15.525  10.780   8.836 -0.1729  0.4636 -0.2011
  197loPI   C3A 3145  15.789  10.815   8.504  0.1048 -0.3349  0.1645
  197loPI   C4A 3146  16.009  10.547   8.201 -0.3158  0.0347  0.2423
  197loPI   C5A 3147  16.152  10.591   7.800  0.0255  0.1320 -0.2454
  197loPI   C6A 3148  16.238  10.405   7.472 -0.0599 -0.0717  0.0116
  197loPI   C1B 3149  15.246   9.772   9.201  0.0962  0.0682 -0.1962
  197loPI   C2B 3150  15.406  10.051   8.839  0.1659 -0.0148  0.1823
  197loPI   C3B 3151  15.609  10.252   8.524  0.0885 -0.0186  0.0265
  197loPI   C4B 3152  15.326  10.618   8.319 -0.0557 -0.1557  0.1567
  198loPI    C1 3153  16.761   4.107  10.186 -0.0246 -0.1865  0.0724
  198loPI    C2 3154  17.128   3.947  10.191 -0.0012 -0.1300  0.1856
  198loPI    C3 3155  16.908   3.954  10.525  0.0140  0.1096  0.1927
  198loPI   PO4 3156  16.684   4.092   9.917 -0.0174 -0.4631  0.5045
  198loPI   GL1 3157  16.631   3.844   9.596 -0.0802 -0.1179 -0.0970
  198loPI   GL2 3158  16.342   4.026   9.564  0.1052  0.3712  0.0327
  198loPI   C1A 3159  16.880   3.968   9.254  0.1331  0.0711 -0.0735
  198loPI   C2A 3160  16.896   4.163   8.877 -0.2797  0.1515 -0.1199
  198loPI   C3A 3161  16.641   4.096   8.454  0.1383  0.0867 -0.1481
  198loPI   C4A 3162  16.559   3.760   8.136  0.1179 -0.1274 -0.1250
  198loPI   C5A 3163  16.372   3.727   7.733 -0.0323  0.3323 -0.0206
  198loPI   C6A 3164  16.231   3.492   7.565  0.3783  0.1182  0.3017
  198loPI   C1B 3165  16.270   3.869   9.112  0.1494  0.1791 -0.3778
  198loPI   C2B 3166  16.371   3.685   8.661  0.0133  0.0835  0.2782
  198loPI   C3B 3167  16.507   3.370   8.390 -0.0042  0.0052  0.0863
  198loPI   C4B 3168  16.625   3.266   7.913  0.0335 -0.1451 -0.0126
  199loPI    C1 3169   5.043  15.349  10.056 -0.0467  0.1520  0.2114
  199loPI    C2 3170   5.354  15.311   9.807 -0.0306 -0.0868  0.2658
  199loPI    C3 3171   5.319  15.638  10.034 -0.0164  0.1086 -0.0085
  199loPI   PO4 3172   4.846  15.340   9.966  0.1141 -0.1205  0.1434
  199loPI   GL1 3173   4.708  15.177   9.657  0.0753 -0.3116  0.0561
  199loPI   GL2 3174   4.473  15.038   9.770 -0.1931  0.0170  0.0659
  199loPI   C1A 3175   4.829  15.265   9.169  0.1575 -0.0513 -0.0490
  199loPI   C2A 3176   4.953  15.165   8.763 -0.4027 -0.1900 -0.1016
  199loPI   C3A 3177   5.057  14.950   8.433  0.1071 -0.3504 -0.0678
  199loPI   C4A 3178   5.036  14.643   8.191 -0.0403 -0.2998  0.1854
  199loPI   C5A 3179   4.684  14.419   7.925 -0.0603  0.1559  0.1474
  199loPI   C6A 3180   4.446  14.106   7.938 -0.0038  0.1104  0.6369
  199loPI   C1B 3181   4.401  14.899   9.330  0.2419 -0.2344  0.0887
  199loPI   C2B 3182   4.287  14.628   9.070  0.2097  0.0129  0.3965
  199loPI   C3B 3183   4.177  14.623   8.686  0.0031  0.1942  0.1808
  199loPI   C4B 3184   4.259  14.369   8.379 -0.0494 -0.3414 -0.0163
  200loPI    C1 3185   4.037   9.004   9.728  0.0510  0.4038 -0.4349
  200loPI    C2 3186   3.976   9.378   9.858  0.0964  0.2581  0.0233
  200loPI    C3 3187   3.783   9.073  10.030  0.1064  0.0619 -0.3059
  200loPI   PO4 3188   4.067   9.017   9.501 -0.1461 -0.0475  0.0194
  200loPI   GL1 3189   4.133   8.874   9.054 -0.0895 -0.1989 -0.0073
  200loPI   GL2 3190   3.950   8.604   9.005  0.2246 -0.2409  0.1628
  200loPI   C1A 3191   4.089   8.954   8.610  0.0866 -0.2120  0.2882
  200loPI   C2A 3192   4.022   8.968   8.252 -0.7098 -0.0681 -0.0724
  200loPI   C3A 3193   3.919   9.027   7.846  0.3792  0.0451  0.0128
  200loPI   C4A 3194   3.753   9.441   7.690  0.1465 -0.1302 -0.2782
  200loPI   C5A 3195   3.882   9.831   7.473  0.3422 -0.1189  0.1013
  200loPI   C6A 3196   3.599  10.150   7.205 -0.2912 -0.0516 -0.2160
  200loPI   C1B 3197   3.991   8.413   8.563 -0.1774  0.1170 -0.1564
  200loPI   C2B 3198   4.320   8.107   8.202  0.1031 -0.1872 -0.0645
  200loPI   C3B 3199   4.448   8.165   7.765 -0.0282  0.0368 -0.0036
  200loPI   C4B 3200   4.599   7.967   7.451 -0.4416 -0.0470 -0.0747
  201loPI    C1 3201   0.512   1.062   9.638  0.1740 -0.2102  0.1061
  201loPI    C2 3202   0.601   1.450   9.679  0.1193 -0.1660 -0.1733
  201loPI    C3 3203   0.690   1.193   9.972  0.1473  0.0580  0.0181
  201loPI   PO4 3204   0.594   0.941   9.406 -0.1306 -0.2239  0.1076
  201loPI   GL1 3205   0.705   0.919   8.989 -0.2155 -0.0436 -0.1719
  201loPI   GL2 3206   0.876   0.615   8.802 -0.0422  0.3231  0.0568
  201loPI   C1A 3207   0.507   1.122   8.652 -0.1362  0.3536  0.1927
  201loPI   C2A 3208   0.521   1.031   8.270  0.2138 -0.0172  0.1223
  201loPI   C3A 3209   0.585   1.102   7.771 -0.1572 -0.2264  0.0359
  201loPI   C4A 3210   0.865   1.463   7.536  0.0626 -0.0532 -0.0271
  201loPI   C5A 3211   1.261   1.461   7.433  0.2687  0.0911  0.0846
  201loPI   C6A 3212   1.714   1.307   7.612  0.1798  0.0948  0.3027
  201loPI   C1B 3213   0.725   0.635   8.439 -0.0364 -0.2309 -0.0488
  201loPI   C2B 3214   0.556   0.609   7.975  0.2676  0.1317  0.0617
  201loPI   C3B 3215   0.848   0.635   7.694  0.1176  0.1806 -0.0464
  201loPI   C4B 3216   1.099   0.563   7.316 -0.1564  0.3401 -0.1321
  202loPI    C1 3217  14.479  14.052  10.240 -0.2132 -0.0625  0.1749
  202loPI    C2 3218  14.499  14.015  10.638 -0.2955 -0.0954  0.1762
  202loPI    C3 3219  14.257  13.776  10.427 -0.1695 -0.1525  0.0951
  202loPI   PO4 3220  14.735  14.106  10.024 -0.0315 -0.1492  0.1337
  202loPI   GL1 3221  14.578  14.054   9.634 -0.2695 -0.0814 -0.0697
  202loPI   GL2 3222  14.273  14.185   9.716 -0.4471  0.3083 -0.2669
  202loPI   C1A 3223  14.525  14.038   9.221 -0.1655 -0.2112  0.0825
  202loPI   C2A 3224  14.279  13.714   9.003 -0.2831  0.1448  0.1156
  202loPI   C3A 3225  14.209  13.563   8.569  0.1378 -0.0648 -0.2047
  202loPI   C4A 3226  14.206  13.532   8.048 -0.1327  0.2965  0.0716
  202loPI   C5A 3227  14.094  13.723   7.636 -0.1128  0.3683  0.2964
  202loPI   C6A 3228  14.133  13.695   7.100  0.0633  0.1324 -0.2937
  202loPI   C1B 3229  14.254  14.463   9.407  0.1232 -0.0523 -0.1342
  202loPI   C2B 3230  14.487  14.461   8.929 -0.0641 -0.0715  0.0772
  202loPI   C3B 3231  14.485  14.531   8.385  0.0399  0.1050  0.1096
  202loPI   C4B 3232  14.152  14.590   7.993  0.4393  0.0601 -0.1703
  203loPI    C1 3233  11.933  10.930   9.533 -0.1021 -0.0988  0.0298
  203loPI    C2 3234  12.104  11.290   9.568 -0.0081 -0.1300 -0.1017
  203loPI    C3 3235  11.823  11.176   9.829  0.1233 -0.0518  0.0766
  203loPI   PO4 3236  11.936  10.920   9.304  0.1544  0.2704 -0.0632
  203loPI   GL1 3237  11.784  11.117   9.004 -0.1010 -0.2515  0.3591
  203loPI   GL2 3238  12.035  11.121   8.794 -0.0893  0.0594  0.3811
  203loPI   C1A 3239  11.522  11.038   8.580  0.5038 -0.1518 -0.5117
  203loPI   C2A 3240  11.156  10.886   8.329 -0.4931  0.0139 -0.1384
  203loPI   C3A 3241  10.751  10.993   8.216 -0.0669 -0.0501  0.1926
  203loPI   C4A 3242  10.514  11.197   7.965 -0.2675  0.0215 -0.1049
  203loPI   C5A 3243  10.353  11.350   7.554 -0.0334  0.0207  0.0359
  203loPI   C6A 3244  10.116  11.302   7.211 -0.0509 -0.3244  0.1474
  203loPI   C1B 3245  11.909  11.283   8.391 -0.0435 -0.1089 -0.0837
  203loPI   C2B 3246  11.783  11.274   7.975 -0.0557 -0.1630  0.0689
  203loPI   C3B 3247  11.824  11.308   7.428  0.0843 -0.0250 -0.2250
  203loPI   C4B 3248  11.395  11.416   7.203  0.1339 -0.0080  0.0341
  204loPI    C1 3249   0.115   0.830   9.756  0.1526  0.2102 -0.1277
  204loPI    C2 3250   0.200   1.068  10.066  0.1156  0.1018 -0.0333
  204loPI    C3 3251   0.229   0.671  10.105 -0.3654  0.0616 -0.0163
  204loPI   PO4 3252  -0.041   0.977   9.611  0.1051 -0.0046  0.0223
  204loPI   GL1 3253   0.027   1.144   9.300  0.4191 -0.0179  0.2579
  204loPI   GL2 3254  -0.300   1.309   9.209  0.1673  0.1180  0.1413
  204loPI   C1A 3255   0.173   1.071   8.955  0.1080  0.0751  0.2214
  204loPI   C2A 3256   0.082   1.337   8.518 -0.2330 -0.2126  0.0426
  204loPI   C3A 3257   0.106   1.412   8.055  0.0042  0.1683 -0.2707
  204loPI   C4A 3258   0.139   1.437   7.663  0.0860 -0.1314  0.1648
  204loPI   C5A 3259   0.067   1.230   7.379 -0.1495  0.1005 -0.1825
  204loPI   C6A 3260   0.036   1.008   6.965  0.5142  0.1724  0.1185
  204loPI   C1B 3261  -0.305   1.273   8.776 -0.1708  0.0523 -0.1248
  204loPI   C2B 3262  -0.347   1.078   8.305 -0.0677 -0.0314 -0.2752
  204loPI   C3B 3263  -0.307   1.121   7.756  0.1258  0.2204 -0.1529
  204loPI   C4B 3264  -0.403   1.112   7.228  0.0633  0.0245  0.0942
  205loPI    C1 3265   8.013   5.288   9.144 -0.0224  0.1154  0.0033
  205loPI    C2 3266   8.361   5.450   9.254 -0.0165  0.0990  0.0088
  205loPI    C3 3267   8.018   5.643   9.327 -0.0383 -0.0682  0.3690
  205loPI   PO4 3268   8.065   5.167   8.888 -0.0553  0.0319 -0.0479
  205loPI   GL1 3269   7.796   5.377   8.559  0.3002 -0.2034  0.0390
  205loPI   GL2 3270   7.538   5.485   8.476  0.1636  0.0722  0.4444
  205loPI   C1A 3271   8.020   5.578   8.248  0.1889  0.0773 -0.1549
  205loPI   C2A 3272   7.968   5.557   7.781 -0.2927 -0.0355 -0.2017
  205loPI   C3A 3273   8.021   5.512   7.384 -0.0042  0.1264  0.3055
  205loPI   C4A 3274   8.169   5.609   6.937  0.0479 -0.3624 -0.2052
  205loPI   C5A 3275   8.534   5.278   6.623  0.2156  0.5593  0.1197
  205loPI   C6A 3276   8.873   5.034   6.707 -0.0941 -0.3225  0.0072
  205loPI   C1B 3277   7.569   5.175   8.113 -0.1736 -0.1829 -0.0487
  205loPI   C2B 3278   7.695   5.107   7.646 -0.2793 -0.1231 -0.2324
  205loPI   C3B 3279   7.884   4.863   7.171 -0.1845  0.0349 -0.1854
  205loPI   C4B 3280   8.058   5.094   6.923  0.2208 -0.1077  0.0664
  206loPI    C1 3281   7.040  18.162   9.475 -0.1379 -0.0930  0.3392
  206loPI    C2 3282   6.835  18.500   9.534 -0.2143 -0.1043  0.1454
  206loPI    C3 3283   7.114  18.387   9.797 -0.0136  0.2369  0.0846
  206loPI   PO4 3284   6.859  17.972   9.473  0.0043  0.2551 -0.0530
  206loPI   GL1 3285   6.618  17.830   9.176 -0.0288 -0.2185 -0.1135
  206loPI   GL2 3286   6.634  18.130   9.118 -0.1857  0.1017  0.3361
  206loPI   C1A 3287   6.373  17.770   8.766 -0.1475 -0.0170 -0.0150
  206loPI   C2A 3288   6.502  17.404   8.528  0.0259 -0.3133 -0.0745
  206loPI   C3A 3289   6.295  17.248   8.239  0.2856 -0.2509  0.0865
  206loPI   C4A 3290   5.972  17.326   8.044  0.4468  0.0741  0.5836
  206loPI   C5A 3291   5.510  17.438   8.010 -0.3452  0.2679  0.0988
  206loPI   C6A 3292   5.090  17.436   8.153 -0.0829 -0.3343 -0.0704
  206loPI   C1B 3293   6.793  18.027   8.667 -0.2433 -0.1597  0.2140
  206loPI   C2B 3294   6.568  17.783   8.254 -0.2344 -0.2971  0.2793
  206loPI   C3B 3295   6.328  17.723   7.877  0.1782 -0.5188 -0.0976
  206loPI   C4B 3296   6.213  17.303   7.641  0.0964  0.0638 -0.1142
  207loPI    C1 3297  16.865   8.473  10.123 -0.3448 -0.0024  0.1882
  207loPI    C2 3298  16.753   8.708  10.427  0.0587 -0.0521  0.3822
  207loPI    C3 3299  17.127   8.567  10.411 -0.0034 -0.1807 -0.0573
  207loPI   PO4 3300  16.695   8.573   9.868  0.1860  0.0237  0.0979
  207loPI   GL1 3301  16.714   8.391   9.445  0.0711  0.0025  0.0782
  207loPI   GL2 3302  16.595   8.573   9.270  0.0462 -0.2051 -0.1245
  207loPI   C1A 3303  16.900   8.209   9.055  0.0390 -0.1868 -0.0336
  207loPI   C2A 3304  17.102   8.266   8.720  0.0864  0.3599 -0.1019
  207loPI   C3A 3305  17.119   8.324   8.315 -0.1301 -0.1197 -0.0594
  207loPI   C4A 3306  16.782   8.309   8.025 -0.0102 -0.3468 -0.1150
  207loPI   C5A 3307  16.879   8.253   7.633 -0.1128  0.0728  0.1571
  207loPI   C6A 3308  16.863   8.108   7.236 -0.2170 -0.1624 -0.0374
  207loPI   C1B 3309  16.570   8.524   8.877 -0.0968  0.0739  0.2629
  207loPI   C2B 3310  16.505   8.635   8.477  0.1534 -0.0833 -0.0517
  207loPI   C3B 3311  16.377   8.697   8.065  0.2798  0.1254 -0.0069
  207loPI   C4B 3312  16.564   8.714   7.686  0.0483 -0.2890 -0.0662
  208loPI    C1 3313   6.051  12.281  10.393  0.1814 -0.0217  0.1211
  208loPI    C2 3314   6.447  12.312  10.444  0.1998 -0.4666  0.2887
  208loPI    C3 3315   6.219  12.155  10.733 -0.1249 -0.0689  0.2580
  208loPI   PO4 3316   5.959  12.589  10.320  0.1428 -0.2477 -0.0609
  208loPI   GL1 3317   6.000  12.886  10.041 -0.0961 -0.1283 -0.0235
  208loPI   GL2 3318   6.064  13.156   9.844  0.1333 -0.1831  0.0175
  208loPI   C1A 3319   6.080  12.646   9.556 -0.0441  0.0959 -0.0059
  208loPI   C2A 3320   6.192  12.510   9.085  0.2562 -0.0922  0.4289
  208loPI   C3A 3321   6.189  12.556   8.585  0.0396  0.2163 -0.0532
  208loPI   C4A 3322   6.093  12.686   8.261 -0.1958  0.0719  0.1728
  208loPI   C5A 3323   5.959  12.891   7.903  0.0779 -0.2199  0.2139
  208loPI   C6A 3324   6.009  12.696   7.495  0.0316 -0.1538 -0.3710
  208loPI   C1B 3325   6.131  13.097   9.372  0.2074  0.1236  0.1670
  208loPI   C2B 3326   5.832  12.965   9.123  0.0921 -0.1073  0.1280
  208loPI   C3B 3327   5.729  12.808   8.717  0.0046 -0.1732 -0.0736
  208loPI   C4B 3328   5.542  12.837   8.294  0.1684  0.2736  0.2464
  209loPI    C1 3329  18.335   1.044   9.882 -0.0439 -0.3655 -0.1738
  209loPI    C2 3330  18.686   1.123  10.056 -0.0702 -0.0398 -0.2617
  209loPI    C3 3331  18.369   1.025  10.280 -0.0241  0.0621 -0.1508
  209loPI   PO4 3332  18.366   1.170   9.677 -0.2362 -0.1468  0.2475
  209loPI   GL1 3333  18.504   1.149   9.260 -0.1199 -0.0043  0.0823
  209loPI   GL2 3334  18.552   1.400   9.206 -0.1583 -0.1644  0.0849
  209loPI   C1A 3335  18.580   0.946   8.837 -0.2037 -0.3492 -0.2749
  209loPI   C2A 3336  18.573   0.595   8.456 -0.0567 -0.0095  0.0490
  209loPI   C3A 3337  18.404   0.522   8.032 -0.1258  0.2335 -0.3865
  209loPI   C4A 3338  18.247   0.455   7.623  0.2551  0.1078  0.3544
  209loPI   C5A 3339  18.367   0.500   7.146 -0.1468  0.1101 -0.0533
  209loPI   C6A 3340  18.473   0.819   6.994 -0.1407  0.1822  0.1495
  209loPI   C1B 3341  18.641   1.476   8.769 -0.0428  0.0529  0.1158
  209loPI   C2B 3342  18.562   1.246   8.370  0.0110 -0.2310 -0.0694
  209loPI   C3B 3343  18.642   0.962   8.024  0.1978  0.2081  0.1345
  209loPI   C4B 3344  18.640   0.843   7.469  0.0385 -0.0085  0.1668
  210loPI    C1 3345  13.437  18.998  10.247  0.1684 -0.1149 -0.2449
  210loPI    C2 3346  13.745  18.896  10.482  0.0557 -0.0669 -0.0748
  210loPI    C3 3347  13.370  18.862  10.617 -0.0068  0.0401 -0.2185
  210loPI   PO4 3348  13.583  19.119  10.077  0.1591 -0.3181 -0.0267
  210loPI   GL1 3349  13.482  19.174   9.639  0.3826 -0.0900 -0.2299
  210loPI   GL2 3350  13.630  18.894   9.513 -0.1117 -0.1734  0.0567
  210loPI   C1A 3351  13.768  19.331   9.289  0.1330  0.1582  0.1396
  210loPI   C2A 3352  13.952  19.412   8.924  0.0335 -0.2190 -0.2265
  210loPI   C3A 3353  14.124  19.473   8.508 -0.2102 -0.1884  0.2555
  210loPI   C4A 3354  14.483  19.456   8.326 -0.0326  0.1007  0.3525
  210loPI   C5A 3355  14.852  19.583   8.530  0.0193 -0.0351 -0.2693
  210loPI   C6A 3356  15.222  19.370   8.645  0.5102  0.0452 -0.1115
  210loPI   C1B 3357  13.439  18.824   9.116  0.0991 -0.0018  0.1237
  210loPI   C2B 3358  13.263  18.907   8.736 -0.0136  0.2550 -0.0220
  210loPI   C3B 3359  13.151  19.204   8.317  0.0598  0.0985 -0.0943
  210loPI   C4B 3360  12.689  19.277   8.130  0.1789  0.0924 -0.1789
  211loPI    C1 3361   3.007  17.338   9.586  0.1259  0.0621  0.0589
  211loPI    C2 3362   3.106  17.176   9.938  0.2948  0.2098  0.0809
  211loPI    C3 3363   3.381  17.210   9.650  0.1324 -0.0034 -0.1033
  211loPI   PO4 3364   2.796  17.240   9.428  0.0752 -0.3559  0.2928
  211loPI   GL1 3365   2.856  17.123   9.088  0.1357  0.1142 -0.2168
  211loPI   GL2 3366   3.186  17.075   9.173 -0.0840 -0.0633  0.0684
  211loPI   C1A 3367   2.735  17.229   8.623 -0.1538  0.1901 -0.0021
  211loPI   C2A 3368   2.801  17.262   8.117  0.0408  0.0301  0.0711
  211loPI   C3A 3369   2.886  17.605   7.900  0.0328 -0.1594 -0.4612
  211loPI   C4A 3370   2.918  17.750   7.368 -0.2049 -0.2282 -0.1800
  211loPI   C5A 3371   3.211  17.989   7.081 -0.4707  0.2051 -0.2072
  211loPI   C6A 3372   3.074  18.235   6.739  0.1367  0.0016  0.1224
  211loPI   C1B 3373   3.184  16.968   8.825  0.0094  0.1141  0.0547
  211loPI   C2B 3374   3.356  16.916   8.450  0.2665  0.1783  0.0047
  211loPI   C3B 3375   3.674  16.930   8.165 -0.2903  0.3934 -0.2077
  211loPI   C4B 3376   3.891  16.689   7.810  0.1014  0.0271  0.0440
  212loPI    C1 3377   6.070  15.918   9.939 -0.1050  0.4088  0.1072
  212loPI    C2 3378   6.029  16.078  10.303 -0.1372 -0.0166  0.2967
  212loPI    C3 3379   5.706  15.957  10.100 -0.0929 -0.1084  0.2800
  212loPI   PO4 3380   6.219  15.989   9.766  0.0070 -0.1803  0.0492
  212loPI   GL1 3381   6.421  16.019   9.377 -0.0503  0.1634 -0.0222
  212loPI   GL2 3382   6.571  16.364   9.287 -0.1218  0.3243 -0.1186
  212loPI   C1A 3383   6.223  15.663   9.107  0.1716 -0.0280 -0.2597
  212loPI   C2A 3384   6.010  15.327   8.902  0.0650  0.3575  0.2310
  212loPI   C3A 3385   5.758  15.150   8.578 -0.0624 -0.1171 -0.2565
  212loPI   C4A 3386   5.511  14.948   8.260 -0.0251 -0.1193  0.0417
  212loPI   C5A 3387   5.559  14.693   8.109  0.2047 -0.1017  0.2388
  212loPI   C6A 3388   5.562  14.341   8.001  0.3225  0.0985  0.1207
  212loPI   C1B 3389   6.590  16.185   8.921  0.2199  0.2797  0.2521
  212loPI   C2B 3390   6.335  15.979   8.633 -0.0764 -0.1340 -0.0304
  212loPI   C3B 3391   6.248  15.613   8.484 -0.1387  0.0390 -0.0007
  212loPI   C4B 3392   6.208  15.510   7.951 -0.0277 -0.0093  0.1625
  213loPI    C1 3393  13.491   4.075  10.181 -0.0778  0.1761 -0.1686
  213loPI    C2 3394  13.181   3.824  10.202  0.0518  0.0148 -0.1596
  213loPI    C3 3395  13.541   3.708  10.332  0.0622  0.2889  0.0644
  213loPI   PO4 3396  13.430   4.124   9.876 -0.1788  0.3373  0.1282
  213loPI   GL1 3397  13.677   4.084   9.560  0.3139 -0.1161 -0.1206
  213loPI   GL2 3398  13.577   4.270   9.330  0.2208 -0.0908  0.1529
  213loPI   C1A 3399  13.557   3.804   9.245  0.1211  0.0594  0.0638
  213loPI   C2A 3400  13.384   3.812   8.760  0.2521  0.1101 -0.2184
  213loPI   C3A 3401  13.410   3.929   8.344  0.2206 -0.1514 -0.2522
  213loPI   C4A 3402  13.598   4.012   7.978  0.3575  0.0494  0.1227
  213loPI   C5A 3403  13.695   4.005   7.610  0.1692  0.0777  0.0738
  213loPI   C6A 3404  13.864   3.944   7.168 -0.1545  0.0459 -0.0086
  213loPI   C1B 3405  13.652   4.199   8.972 -0.2181 -0.2230 -0.3880
  213loPI   C2B 3406  13.855   4.031   8.554 -0.4131 -0.0726  0.2285
  213loPI   C3B 3407  13.999   4.242   8.134 -0.1716 -0.0640  0.0886
  213loPI   C4B 3408  14.012   4.351   7.676  0.1913  0.2615 -0.0431
  214loPI    C1 3409   5.120   8.954   9.614  0.0946  0.1047  0.0331
  214loPI    C2 3410   4.939   9.146   9.915  0.0244  0.0023  0.0570
  214loPI    C3 3411   5.291   8.965   9.975 -0.0314 -0.0921  0.1004
  214loPI   PO4 3412   5.000   9.029   9.414  0.2291  0.1095  0.0618
  214loPI   GL1 3413   4.843   8.967   9.061 -0.1023  0.2198  0.0070
  214loPI   GL2 3414   4.503   9.123   9.179 -0.0562  0.4103  0.0725
  214loPI   C1A 3415   5.058   9.005   8.653  0.0176 -0.2006  0.2104
  214loPI   C2A 3416   5.096   9.153   8.305  0.0003 -0.0507  0.3049
  214loPI   C3A 3417   5.264   9.394   7.961  0.2245 -0.2502 -0.0525
  214loPI   C4A 3418   5.321   9.400   7.543  0.1403  0.0444  0.4291
  214loPI   C5A 3419   5.469   9.367   7.118 -0.1415 -0.2098  0.2342
  214loPI   C6A 3420   5.484   9.171   6.762 -0.0786 -0.2752  0.2048
  214loPI   C1B 3421   4.370   9.328   8.900  0.2003  0.1648  0.1891
  214loPI   C2B 3422   4.191   9.454   8.421 -0.0523  0.0858  0.1851
  214loPI   C3B 3423   4.226   9.481   7.980 -0.1273 -0.1514 -0.0797
  214loPI   C4B 3424   4.406   9.761   7.593 -0.0356 -0.0654 -0.1026
  215loPI    C1 3425   2.730  18.542   9.700 -0.0458 -0.0277  0.0995
  215loPI    C2 3426   3.064  18.510   9.918 -0.0531  0.1844  0.1446
  215loPI    C3 3427   2.746  18.702  10.067 -0.1744  0.0383  0.0770
  215loPI   PO4 3428   2.785  18.313   9.554  0.2450  0.3755 -0.0057
  215loPI   GL1 3429   2.558  18.161   9.265  0.0120 -0.0155  0.1415
  215loPI   GL2 3430   2.286  18.128   9.121  0.0366 -0.0829 -0.0307
  215loPI   C1A 3431   2.573  18.228   8.746  0.1061  0.2774 -0.1320
  215loPI   C2A 3432   2.587  18.341   8.322  0.1713 -0.3284  0.3671
  215loPI   C3A 3433   2.609  18.478   7.837  0.1139 -0.2527  0.0385
  215loPI   C4A 3434   2.894  18.803   7.566  0.0458 -0.0159 -0.1280
  215loPI   C5A 3435   2.966  19.249   7.288 -0.0055  0.0880 -0.0793
  215loPI   C6A 3436   3.311  19.437   7.084  0.0827 -0.1899 -0.0506
  215loPI   C1B 3437   2.111  18.271   8.688  0.0790 -0.1302 -0.1268
  215loPI   C2B 3438   2.167  18.097   8.223  0.0602 -0.1378  0.0244
  215loPI   C3B 3439   2.176  18.231   7.800 -0.0399 -0.0107  0.0757
  215loPI   C4B 3440   2.251  18.301   7.394  0.2254  0.1554  0.1697
  216loPI    C1 3441  11.157   9.183   9.486  0.0011  0.1049 -0.0432
  216loPI    C2 3442  11.464   8.972   9.631 -0.1343 -0.0744 -0.0140
  216loPI    C3 3443  11.224   9.171   9.881 -0.0878  0.0031 -0.0307
  216loPI   PO4 3444  11.261   9.240   9.202  0.1405 -0.1732 -0.3255
  216loPI   GL1 3445  11.362   9.401   8.830  0.1496 -0.3183  0.0197
  216loPI   GL2 3446  10.957   9.400   8.881 -0.1604  0.2905 -0.0368
  216loPI   C1A 3447  11.256   9.209   8.498  0.1617 -0.1944  0.2767
  216loPI   C2A 3448  11.365   8.958   8.166  0.1026 -0.0445  0.2152
  216loPI   C3A 3449  11.137   8.706   7.914 -0.0823  0.0580 -0.2138
  216loPI   C4A 3450  11.044   8.343   7.701 -0.0216 -0.0771 -0.0745
  216loPI   C5A 3451  10.680   8.210   7.300 -0.1370  0.4082 -0.1423
  216loPI   C6A 3452  10.532   7.824   7.333 -0.1524  0.3522 -0.1514
  216loPI   C1B 3453  10.713   9.476   8.520  0.1398 -0.0699  0.1744
  216loPI   C2B 3454  10.729   9.693   8.066  0.1963  0.3381 -0.2872
  216loPI   C3B 3455  10.902   9.747   7.691 -0.0469  0.0096 -0.0307
  216loPI   C4B 3456  10.870   9.792   7.290  0.4463  0.1456 -0.3356
  217loPI    C1 3457  11.845  14.970   9.920  0.0266  0.1115  0.2294
  217loPI    C2 3458  11.621  15.190   9.672  0.2348 -0.1215 -0.1752
  217loPI    C3 3459  11.487  14.836   9.801  0.0751  0.0527  0.1491
  217loPI   PO4 3460  12.130  15.128   9.761 -0.0228  0.3158  0.0905
  217loPI   GL1 3461  11.994  15.184   9.269  0.0752 -0.1475 -0.3516
  217loPI   GL2 3462  11.998  15.410   9.222  0.3565  0.3602 -0.1149
  217loPI   C1A 3463  12.105  15.024   8.876 -0.1099 -0.5116 -0.0555
  217loPI   C2A 3464  11.812  14.751   8.581  0.2147  0.2190 -0.2878
  217loPI   C3A 3465  11.540  14.579   8.208  0.2946 -0.0402 -0.3419
  217loPI   C4A 3466  11.337  14.687   7.847 -0.5618  0.2429 -0.0148
  217loPI   C5A 3467  10.993  14.668   7.638 -0.0119  0.0655  0.0822
  217loPI   C6A 3468  10.842  14.309   7.380 -0.0687  0.0618 -0.1368
  217loPI   C1B 3469  12.131  15.587   8.770 -0.2868 -0.0306 -0.0041
  217loPI   C2B 3470  12.137  15.212   8.432 -0.2693 -0.0666  0.0455
  217loPI   C3B 3471  12.144  15.167   7.976 -0.0867  0.2197  0.0758
  217loPI   C4B 3472  12.137  15.377   7.677 -0.0665 -0.1125 -0.0594
  218loPI    C1 3473  17.046   1.686  10.014 -0.1996  0.1411  0.0506
  218loPI    C2 3474  16.868   1.388  10.213 -0.1177  0.0454 -0.0181
  218loPI    C3 3475  17.182   1.576  10.374 -0.1197  0.0412 -0.0095
  218loPI   PO4 3476  17.089   1.691   9.763 -0.0194 -0.0167  0.6276
  218loPI   GL1 3477  17.342   1.389   9.545  0.3494  0.1575  0.2119
  218loPI   GL2 3478  17.084   1.318   9.235 -0.0845 -0.1132 -0.2589
  218loPI   C1A 3479  17.461   1.467   9.019  0.0632  0.4140 -0.1002
  218loPI   C2A 3480  17.292   1.203   8.590  0.0200  0.1849  0.3174
  218loPI   C3A 3481  17.445   1.258   8.215 -0.2630 -0.1224 -0.1749
  218loPI   C4A 3482  17.336   1.447   7.816 -0.3907  0.1173  0.2828
  218loPI   C5A 3483  17.135   1.500   7.428  0.0032  0.0033 -0.0346
  218loPI   C6A 3484  16.994   1.753   7.097  0.0042  0.0980  0.0851
  218loPI   C1B 3485  16.882   1.351   8.863  0.4025  0.0827 -0.1480
  218loPI   C2B 3486  16.712   1.421   8.398 -0.1098 -0.0655  0.1078
  218loPI   C3B 3487  16.577   1.334   8.011 -0.1954 -0.1337 -0.0580
  218loPI   C4B 3488  16.698   1.199   7.557 -0.1604  0.0510  0.1001
  219loPI    C1 3489  13.756   2.099  10.056  0.1678  0.1889  0.0352
  219loPI    C2 3490  13.501   2.327  10.264 -0.0611  0.1187 -0.1631
  219loPI    C3 3491  13.756   2.084  10.456 -0.3209 -0.0023  0.0354
  219loPI   PO4 3492  13.747   2.302   9.824 -0.0785  0.1257 -0.1141
  219loPI   GL1 3493  13.708   2.377   9.462  0.1179  0.1373  0.0112
  219loPI   GL2 3494  13.470   2.502   9.344 -0.0867 -0.0609 -0.0260
  219loPI   C1A 3495  13.816   2.369   9.026  0.1302 -0.4462 -0.0796
  219loPI   C2A 3496  13.764   2.463   8.639 -0.0666  0.2990  0.1118
  219loPI   C3A 3497  13.500   2.372   8.296 -0.1278 -0.0306  0.2293
  219loPI   C4A 3498  13.405   2.276   7.958 -0.4194 -0.1737  0.0234
  219loPI   C5A 3499  13.717   2.616   7.830  0.0207  0.1864  0.1017
  219loPI   C6A 3500  13.803   2.976   7.825 -0.0739 -0.0955  0.1890
  219loPI   C1B 3501  13.378   2.594   8.895 -0.1381  0.1101 -0.2478
  219loPI   C2B 3502  13.072   2.879   8.655  0.1280  0.0135  0.0165
  219loPI   C3B 3503  12.951   3.011   8.283  0.0124 -0.3076  0.0270
  219loPI   C4B 3504  12.908   3.143   7.910 -0.0221 -0.0147 -0.2177
  220loPI    C1 3505   8.376  18.402   9.947 -0.0070  0.2377  0.2085
  220loPI    C2 3506   8.760  18.362  10.053 -0.0026  0.0561  0.1281
  220loPI    C3 3507   8.473  18.193  10.275 -0.0167 -0.0389  0.0384
  220loPI   PO4 3508   8.374  18.329   9.658  0.0252 -0.4287  0.2417
  220loPI   GL1 3509   8.282  17.854   9.448  0.2264  0.1827  0.1316
  220loPI   GL2 3510   8.654  18.077   9.342  0.4057  0.2042  0.1134
  220loPI   C1A 3511   8.430  17.615   9.179 -0.1378 -0.1474 -0.3260
  220loPI   C2A 3512   8.800  17.296   9.133 -0.1566 -0.4594  0.0895
  220loPI   C3A 3513   9.021  17.182   8.727 -0.0859 -0.3045  0.0902
  220loPI   C4A 3514   9.276  17.290   8.409 -0.2394 -0.2272  0.1718
  220loPI   C5A 3515   9.486  17.552   8.213 -0.0066  0.1545 -0.0898
  220loPI   C6A 3516   9.628  17.759   7.805  0.3046 -0.1567 -0.0032
  220loPI   C1B 3517   8.703  17.912   8.901  0.1925 -0.1878 -0.1203
  220loPI   C2B 3518   8.622  17.484   8.661 -0.1069  0.1558 -0.2471
  220loPI   C3B 3519   8.780  17.460   8.289  0.2334 -0.0423  0.0318
  220loPI   C4B 3520   8.911  17.295   8.017  0.0916 -0.0376  0.1529
  221loPI    C1 3521  16.961   5.848   9.949 -0.1589 -0.0497 -0.2130
  221loPI    C2 3522  17.309   5.651   9.961  0.0295  0.2816 -0.0894
  221loPI    C3 3523  17.059   5.637  10.274  0.1148  0.3654 -0.0168
  221loPI   PO4 3524  16.899   5.862   9.773  0.1127  0.0319  0.2599
  221loPI   GL1 3525  16.855   6.118   9.451 -0.1397  0.0761  0.0125
  221loPI   GL2 3526  17.118   6.390   9.433 -0.0853 -0.0442  0.0336
  221loPI   C1A 3527  16.784   6.070   9.004  0.1518 -0.1456  0.1321
  221loPI   C2A 3528  16.667   6.016   8.574  0.0072  0.2986 -0.0684
  221loPI   C3A 3529  16.402   5.890   8.337  0.1486  0.4267  0.2848
  221loPI   C4A 3530  16.097   5.804   8.161  0.0229  0.1893 -0.4299
  221loPI   C5A 3531  15.735   6.167   8.086 -0.0453  0.3166  0.0533
  221loPI   C6A 3532  15.714   6.623   7.973  0.0222 -0.0285 -0.0612
  221loPI   C1B 3533  17.269   6.313   9.094 -0.1353  0.3008  0.1576
  221loPI   C2B 3534  17.506   6.063   8.753  0.0594 -0.1696 -0.0114
  221loPI   C3B 3535  17.590   5.996   8.248 -0.0802 -0.1287 -0.2415
  221loPI   C4B 3536  17.449   6.090   7.841  0.1418 -0.0683 -0.1144
  222loPI    C1 3537  12.038  14.487   9.909  0.2382  0.0817 -0.0834
  222loPI    C2 3538  12.104  14.269  10.238 -0.2444 -0.0389 -0.0584
  222loPI    C3 3539  12.066  14.666  10.266  0.1302 -0.0008 -0.0329
  222loPI   PO4 3540  11.767  14.365   9.818  0.0472  0.0485 -0.1058
  222loPI   GL1 3541  11.745  14.274   9.432 -0.0407  0.0270  0.0082
  222loPI   GL2 3542  11.400  14.433   9.469  0.5292 -0.1013  0.1645
  222loPI   C1A 3543  11.910  14.037   9.141 -0.1534 -0.0910 -0.2364
  222loPI   C2A 3544  12.076  13.979   8.768  0.1188  0.0924 -0.0673
  222loPI   C3A 3545  12.133  13.820   8.424  0.3329 -0.0616 -0.0492
  222loPI   C4A 3546  12.212  13.594   8.064  0.0986  0.0637 -0.1244
  222loPI   C5A 3547  12.554  13.760   7.725  0.0944 -0.0890 -0.2316
  222loPI   C6A 3548  12.908  14.046   7.650 -0.0200  0.1265  0.3058
  222loPI   C1B 3549  11.378  14.226   9.050 -0.0150 -0.0636 -0.1929
  222loPI   C2B 3550  11.215  14.106   8.598  0.0158  0.1009 -0.4038
  222loPI   C3B 3551  11.348  14.112   8.243 -0.2739  0.3605  0.0009
  222loPI   C4B 3552  11.274  14.198   7.775  0.2622  0.2215  0.2461
  223loPI    C1 3553   8.033   3.340   9.099 -0.2144  0.0084 -0.1700
  223loPI    C2 3554   7.841   3.350   9.449 -0.1209  0.1768 -0.1226
  223loPI    C3 3555   8.220   3.475   9.425 -0.0338 -0.0994 -0.2273
  223loPI   PO4 3556   7.871   3.221   8.972 -0.0566 -0.1476  0.0649
  223loPI   GL1 3557   7.610   3.350   8.673 -0.1874 -0.3353  0.1786
  223loPI   GL2 3558   7.453   3.132   8.761  0.0541  0.2169  0.2067
  223loPI   C1A 3559   7.565   3.435   8.321  0.0269  0.1308 -0.1574
  223loPI   C2A 3560   7.282   3.407   7.944 -0.2236 -0.1335 -0.2565
  223loPI   C3A 3561   7.131   3.344   7.470 -0.2899 -0.0445 -0.1817
  223loPI   C4A 3562   6.901   3.598   7.179 -0.4357 -0.2278 -0.2142
  223loPI   C5A 3563   6.654   3.668   6.820  0.0648 -0.3129  0.1881
  223loPI   C6A 3564   6.256   3.699   6.468  0.0856 -0.2180 -0.0089
  223loPI   C1B 3565   7.115   3.199   8.392  0.0997 -0.1073 -0.3149
  223loPI   C2B 3566   7.033   2.941   8.077 -0.0296  0.3295  0.0756
  223loPI   C3B 3567   6.894   2.934   7.660  0.0023 -0.0708  0.0672
  223loPI   C4B 3568   6.540   2.865   7.447 -0.0403 -0.1910  0.1064
  224loPI    C1 3569  14.025   0.004  10.315 -0.0010 -0.1685  0.2766
  224loPI    C2 3570  14.081  -0.195   9.973  0.0259 -0.1430  0.2660
  224loPI    C3 3571  14.392  -0.119  10.213  0.0306 -0.0348  0.2263
  224loPI   PO4 3572  13.859   0.224  10.167  0.0531  0.0477 -0.0574
  224loPI   GL1 3573  13.917   0.314   9.700  0.2145  0.3100 -0.1700
  224loPI   GL2 3574  13.895   0.641   9.487  0.2013  0.4107 -0.0632
  224loPI   C1A 3575  14.308   0.188   9.339  0.0917  0.0102  0.0400
  224loPI   C2A 3576  14.499   0.184   8.901  0.1460  0.1362  0.1238
  224loPI   C3A 3577  14.399   0.521   8.508 -0.2921 -0.0069  0.1981
  224loPI   C4A 3578  14.548   0.602   8.055  0.1589  0.0718  0.3446
  224loPI   C5A 3579  14.678   0.546   7.557 -0.1831  0.0276  0.2378
  224loPI   C6A 3580  15.086   0.621   7.291 -0.0305 -0.1188 -0.1414
  224loPI   C1B 3581  14.180   0.622   9.129 -0.3359  0.1224 -0.1474
  224loPI   C2B 3582  14.639   0.650   8.916 -0.1157 -0.1683 -0.0835
  224loPI   C3B 3583  14.868   0.737   8.522 -0.0906  0.1051 -0.0578
  224loPI   C4B 3584  15.000   1.108   8.653  0.1081 -0.2013  0.2271
  225loPI    C1 3585   2.017   8.308   9.508 -0.3561  0.0821 -0.2344
  225loPI    C2 3586   2.247   8.490   9.779  0.1083 -0.3252 -0.3407
  225loPI    C3 3587   1.853   8.460   9.839  0.0969  0.2374 -0.0736
  225loPI   PO4 3588   2.179   8.181   9.332 -0.0300  0.3263 -0.1100
  225loPI   GL1 3589   2.381   8.412   8.944  0.2831  0.0168 -0.0997
  225loPI   GL2 3590   2.154   8.115   8.843 -0.0041  0.0655 -0.0911
  225loPI   C1A 3591   2.244   8.512   8.590  0.0821 -0.0570  0.0882
  225loPI   C2A 3592   2.138   8.379   8.213  0.1426  0.1291 -0.2648
  225loPI   C3A 3593   2.330   8.381   7.815 -0.0763  0.1219 -0.1534
  225loPI   C4A 3594   2.341   8.188   7.452  0.3397  0.0036  0.1505
  225loPI   C5A 3595   2.269   8.029   6.985 -0.2219  0.0817 -0.1457
  225loPI   C6A 3596   1.986   8.101   6.705 -0.1468  0.0953  0.3106
  225loPI   C1B 3597   1.855   8.137   8.602  0.0330 -0.0067 -0.1321
  225loPI   C2B 3598   1.516   8.029   8.648 -0.1717 -0.0738 -0.1832
  225loPI   C3B 3599   1.258   8.147   8.327  0.3513  0.1604 -0.0846
  225loPI   C4B 3600   1.103   7.897   7.975  0.1222 -0.3554  0.0178
  226loPI    C1 3601  15.299   6.114  10.176  0.2046  0.1020 -0.1921
  226loPI    C2 3602  15.515   6.403  10.349 -0.0471  0.0730  0.1830
  226loPI    C3 3603  15.198   6.249  10.539 -0.1594 -0.1669 -0.1872
  226loPI   PO4 3604  15.273   6.259   9.867 -0.0867  0.2227 -0.0938
  226loPI   GL1 3605  15.176   6.255   9.424 -0.2349  0.0202 -0.0146
  226loPI   GL2 3606  14.949   6.004   9.324 -0.3036 -0.5462  0.3205
  226loPI   C1A 3607  15.329   6.232   9.046 -0.0770 -0.3091  0.0384
  226loPI   C2A 3608  15.498   6.039   8.613  0.1179 -0.0765  0.3713
  226loPI   C3A 3609  15.429   5.823   8.257 -0.1815  0.1658  0.0299
  226loPI   C4A 3610  15.266   5.441   8.148  0.1552 -0.1199 -0.1954
  226loPI   C5A 3611  14.835   5.465   8.019 -0.0221 -0.0031 -0.3754
  226loPI   C6A 3612  14.479   5.400   8.161 -0.0471 -0.0261  0.2797
  226loPI   C1B 3613  14.823   6.174   8.931  0.2641 -0.1076 -0.4370
  226loPI   C2B 3614  15.078   6.387   8.625 -0.2194  0.3179  0.4415
  226loPI   C3B 3615  15.203   6.341   8.150 -0.3634 -0.0336 -0.0355
  226loPI   C4B 3616  15.403   6.255   7.712  0.1196 -0.1075  0.1580
  227loPI    C1 3617   1.033   0.737   9.604  0.1232 -0.0161 -0.1448
  227loPI    C2 3618   1.067   1.135   9.582 -0.2774  0.0358  0.0787
  227loPI    C3 3619   1.107   0.949   9.934 -0.1813 -0.1136 -0.0098
  227loPI   PO4 3620   1.144   0.610   9.348  0.0734 -0.0128  0.3492
  227loPI   GL1 3621   1.308   0.465   9.062 -0.0063 -0.1466 -0.1806
  227loPI   GL2 3622   1.644   0.501   9.049 -0.1928 -0.1739  0.1384
  227loPI   C1A 3623   1.342   0.312   8.677  0.0988  0.1323 -0.3326
  227loPI   C2A 3624   1.479   0.408   8.234  0.0721  0.1588  0.1751
  227loPI   C3A 3625   1.360   0.626   7.796 -0.1564  0.1114  0.0143
  227loPI   C4A 3626   1.526   0.850   7.311  0.0856 -0.0855 -0.1467
  227loPI   C5A 3627   1.675   1.202   7.013  0.1185  0.0191  0.0340
  227loPI   C6A 3628   1.663   1.171   6.651 -0.1936  0.2652 -0.2320
  227loPI   C1B 3629   2.091   0.281   8.973 -0.2021 -0.1386 -0.3026
  227loPI   C2B 3630   2.417   0.282   8.758 -0.6810  0.1321  0.0297
  227loPI   C3B 3631   2.860   0.290   8.624  0.0184 -0.1007  0.2627
  227loPI   C4B 3632   2.931   0.332   8.169  0.2151  0.2266 -0.0653
  228loPI    C1 3633   5.210   2.828   9.350  0.1168  0.0680  0.1122
  228loPI    C2 3634   5.033   2.882   9.705 -0.1382  0.1418 -0.0239
  228loPI    C3 3635   5.432   2.884   9.678 -0.1132 -0.0398  0.2891
  228loPI   PO4 3636   5.067   2.812   9.188  0.1015  0.0977  0.0382
  228loPI   GL1 3637   4.928   2.834   8.816  0.1492 -0.0845 -0.1911
  228loPI   GL2 3638   5.255   2.756   8.664  0.1431  0.4243 -0.0005
  228loPI   C1A 3639   4.793   2.784   8.369 -0.0503  0.0527  0.0492
  228loPI   C2A 3640   4.917   2.578   7.894 -0.3758  0.1219 -0.1555
  228loPI   C3A 3641   4.781   2.513   7.454 -0.0167 -0.1255  0.4285
  228loPI   C4A 3642   4.819   2.374   7.144 -0.1847 -0.0428  0.1687
  228loPI   C5A 3643   4.816   2.429   6.649  0.0093  0.0577 -0.3240
  228loPI   C6A 3644   4.917   2.688   6.327  0.2403  0.1186 -0.1408
  228loPI   C1B 3645   5.225   2.420   8.311  0.1387  0.2764 -0.1284
  228loPI   C2B 3646   5.165   2.099   8.162  0.2155  0.0876 -0.1214
  228loPI   C3B 3647   4.836   1.961   7.885 -0.2555  0.1374  0.1202
  228loPI   C4B 3648   4.680   1.958   7.391 -0.1521 -0.4516  0.3757
  229loPI    C1 3649   2.988  15.367  10.036  0.0713  0.1244 -0.3071
  229loPI    C2 3650   3.120  15.479  10.397 -0.2825 -0.1293 -0.0936
  229loPI    C3 3651   2.833  15.690  10.215 -0.1195 -0.0141 -0.2201
  229loPI   PO4 3652   3.206  15.394   9.912 -0.0910  0.3428  0.2059
  229loPI   GL1 3653   3.352  15.390   9.485 -0.0267 -0.0271  0.1258
  229loPI   GL2 3654   3.354  15.615   9.278 -0.1257  0.1379  0.2880
  229loPI   C1A 3655   3.012  15.271   9.230 -0.0300  0.1116  0.4387
  229loPI   C2A 3656   2.867  14.921   8.981 -0.0409 -0.2203  0.1945
  229loPI   C3A 3657   2.648  14.606   8.740 -0.3247 -0.0169  0.0951
  229loPI   C4A 3658   2.607  14.178   8.574 -0.2167  0.1686 -0.2316
  229loPI   C5A 3659   2.482  13.944   8.268  0.2524  0.2013 -0.1926
  229loPI   C6A 3660   2.458  13.786   7.894  0.0310 -0.3826  0.1092
  229loPI   C1B 3661   3.345  15.493   8.810  0.0370 -0.2845  0.1852
  229loPI   C2B 3662   3.381  15.610   8.302 -0.2633  0.1195  0.1455
  229loPI   C3B 3663   3.524  15.777   7.958  0.0999  0.2942 -0.0444
  229loPI   C4B 3664   3.470  16.148   7.641  0.0403  0.3175  0.2144
  230loPI    C1 3665  17.591  12.650  10.442  0.1017  0.0451  0.1828
  230loPI    C2 3666  17.938  12.678  10.641  0.1334  0.2341  0.1026
  230loPI    C3 3667  17.693  12.994  10.619  0.0666  0.1734 -0.0436
  230loPI   PO4 3668  17.573  12.569  10.133  0.2946  0.2206 -0.1481
  230loPI   GL1 3669  17.317  12.604   9.796 -0.1119  0.1672  0.0597
  230loPI   GL2 3670  17.215  12.864   9.592  0.1843 -0.1181 -0.1096
  230loPI   C1A 3671  17.677  12.594   9.485 -0.0728  0.1590  0.0338
  230loPI   C2A 3672  17.723  12.694   9.084  0.1629  0.1391  0.5538
  230loPI   C3A 3673  17.581  12.842   8.695 -0.0173 -0.1327  0.0357
  230loPI   C4A 3674  17.607  12.809   8.269 -0.2168  0.1159 -0.0651
  230loPI   C5A 3675  17.567  13.009   7.769 -0.0005  0.0230  0.0384
  230loPI   C6A 3676  17.379  13.162   7.335 -0.1145 -0.2475  0.1245
  230loPI   C1B 3677  17.216  12.724   9.150  0.0385 -0.1189  0.0194
  230loPI   C2B 3678  17.071  12.787   8.688  0.3244  0.2408  0.3673
  230loPI   C3B 3679  17.060  12.750   8.322 -0.0805 -0.1426 -0.0177
  230loPI   C4B 3680  17.214  12.653   7.930 -0.1859  0.4464 -0.0366
  231loPI    C1 3681   1.050  14.942  10.206 -0.1732 -0.1695  0.0412
  231loPI    C2 3682   1.448  14.976  10.212 -0.1770 -0.1122 -0.0270
  231loPI    C3 3683   1.269  14.694  10.431 -0.1195  0.0590  0.2452
  231loPI   PO4 3684   0.958  15.148   9.924  0.0194  0.2048 -0.2557
  231loPI   GL1 3685   0.851  15.140   9.494 -0.1448 -0.0314 -0.1495
  231loPI   GL2 3686   0.950  15.388   9.242  0.1246  0.0260  0.3681
  231loPI   C1A 3687   0.846  14.753   9.310 -0.1221 -0.1276 -0.1709
  231loPI   C2A 3688   0.596  14.488   9.030 -0.2202  0.1594 -0.0349
  231loPI   C3A 3689   0.493  14.549   8.575 -0.0381 -0.4442 -0.0655
  231loPI   C4A 3690   0.529  14.340   8.103 -0.1347  0.1766 -0.1690
  231loPI   C5A 3691   0.446  14.130   7.784 -0.2992  0.1005  0.1744
  231loPI   C6A 3692   0.468  14.107   7.335 -0.2122  0.1092  0.1219
  231loPI   C1B 3693   0.985  15.062   8.963 -0.2267 -0.1947 -0.1321
  231loPI   C2B 3694   0.826  14.856   8.733 -0.2043 -0.1004  0.0159
  231loPI   C3B 3695   0.840  14.753   8.224  0.0463  0.1686  0.4217
  231loPI   C4B 3696   1.036  14.818   7.877 -0.0140  0.1130 -0.2047
  232loPI    C1 3697   4.445   3.398   9.574  0.0047  0.0525 -0.0948
  232loPI    C2 3698   4.669   3.652   9.362 -0.0503  0.0593 -0.1452
  232loPI    C3 3699   4.508   3.769   9.709  0.0537  0.0428 -0.0909
  232loPI   PO4 3700   4.289   3.328   9.400 -0.0089  0.0784 -0.1100
  232loPI   GL1 3701   4.304   3.290   9.023 -0.1126 -0.2418 -0.1177
  232loPI   GL2 3702   4.135   2.938   9.079  0.2416  0.0207  0.2936
  232loPI   C1A 3703   4.551   3.192   8.678 -0.0860  0.2349  0.1062
  232loPI   C2A 3704   4.474   3.221   8.241  0.0528  0.2717 -0.3786
  232loPI   C3A 3705   4.151   3.184   7.878  0.2204 -0.1276 -0.1821
  232loPI   C4A 3706   3.877   3.412   7.634 -0.2346 -0.1044 -0.0219
  232loPI   C5A 3707   3.708   3.728   7.310  0.2034  0.1040  0.2776
  232loPI   C6A 3708   3.465   3.895   6.917  0.1041  0.2912 -0.0189
  232loPI   C1B 3709   3.920   2.918   8.593  0.1488 -0.3287 -0.3257
  232loPI   C2B 3710   3.756   3.280   8.227 -0.0681 -0.1601  0.3519
  232loPI   C3B 3711   3.501   3.167   7.940  0.2546  0.0334  0.1720
  232loPI   C4B 3712   3.380   3.311   7.556  0.1946  0.0249  0.0191
  233loPI    C1 3713  10.712   1.373   9.693  0.1596 -0.1547  0.1723
  233loPI    C2 3714  10.714   1.677   9.954 -0.2103 -0.0282  0.0341
  233loPI    C3 3715  10.688   1.300  10.086  0.2387 -0.0051  0.2060
  233loPI   PO4 3716  10.867   1.420   9.504  0.0075  0.0743  0.2468
  233loPI   GL1 3717  10.913   1.115   9.131 -0.0509  0.1183  0.1251
  233loPI   GL2 3718  10.891   0.818   9.185  0.1063 -0.0031 -0.0022
  233loPI   C1A 3719  10.979   1.092   8.758 -0.2268  0.0178 -0.4712
  233loPI   C2A 3720  11.261   1.088   8.345 -0.1499  0.1194  0.1411
  233loPI   C3A 3721  11.471   1.124   7.946 -0.1710  0.0561 -0.0317
  233loPI   C4A 3722  11.841   1.115   7.518 -0.1583 -0.4065  0.1404
  233loPI   C5A 3723  12.002   1.293   7.192  0.2619 -0.3193 -0.0974
  233loPI   C6A 3724  12.049   1.667   6.972 -0.2185 -0.2577  0.2122
  233loPI   C1B 3725  11.017   0.622   8.825 -0.2160  0.0933 -0.2380
  233loPI   C2B 3726  11.169   0.595   8.288  0.4500 -0.1977 -0.4568
  233loPI   C3B 3727  11.028   0.787   7.929  0.1430 -0.1922  0.0492
  233loPI   C4B 3728  11.252   0.969   7.424  0.1081  0.1462  0.1131
  234loPI    C1 3729  17.639   0.373  10.094  0.0591 -0.2611 -0.1661
  234loPI    C2 3730  17.349   0.533   9.870  0.1996 -0.0748 -0.2178
  234loPI    C3 3731  17.420   0.676  10.237  0.1136 -0.2353 -0.1372
  234loPI   PO4 3732  17.777   0.226   9.784 -0.1586  0.1718 -0.1863
  234loPI   GL1 3733  17.923  -0.228   9.640 -0.0742 -0.0327 -0.2880
  234loPI   GL2 3734  17.631  -0.216   9.491  0.0011 -0.1172 -0.0735
  234loPI   C1A 3735  18.109  -0.368   9.381 -0.2782 -0.1446  0.0623
  234loPI   C2A 3736  18.246  -0.555   9.015 -0.1585 -0.0911  0.2949
  234loPI   C3A 3737  18.274  -0.612   8.589 -0.3256 -0.0527  0.3575
  234loPI   C4A 3738  18.072  -0.544   8.250 -0.3419 -0.2996  0.2117
  234loPI   C5A 3739  17.937  -0.514   7.751  0.2997  0.0828 -0.1148
  234loPI   C6A 3740  17.829  -0.818   7.388  0.0735 -0.0239 -0.0970
  234loPI   C1B 3741  17.656  -0.326   9.050 -0.1847 -0.1785 -0.3255
  234loPI   C2B 3742  17.722  -0.656   8.753  0.1322 -0.3399  0.0259
  234loPI   C3B 3743  17.622  -0.644   8.247  0.3222 -0.0480 -0.0999
  234loPI   C4B 3744  17.805  -0.951   7.972  0.2672  0.0693 -0.2339
  235loPI    C1 3745  14.605   4.298  10.283 -0.3934 -0.1882  0.2231
  235loPI    C2 3746  14.487   3.934  10.398 -0.0175 -0.3620  0.0755
  235loPI    C3 3747  14.877   4.021  10.379 -0.0996 -0.0071 -0.0641
  235loPI   PO4 3748  14.529   4.282  10.022 -0.1810 -0.1831 -0.2760
  235loPI   GL1 3749  14.475   4.159   9.601 -0.2327 -0.1725 -0.0155
  235loPI   GL2 3750  14.185   4.228   9.503 -0.0052  0.2866 -0.1671
  235loPI   C1A 3751  14.657   4.324   9.244  0.0621 -0.3548  0.0376
  235loPI   C2A 3752  14.689   4.291   8.737 -0.1268  0.0343  0.0311
  235loPI   C3A 3753  14.504   4.359   8.305  0.2373 -0.2243 -0.0977
  235loPI   C4A 3754  14.334   4.664   8.097  0.0452  0.2443 -0.0893
  235loPI   C5A 3755  14.086   5.005   8.128  0.0477 -0.2718  0.0791
  235loPI   C6A 3756  13.725   5.193   7.869  0.4673  0.1671  0.1904
  235loPI   C1B 3757  14.096   4.433   9.126  0.4119 -0.0630  0.0626
  235loPI   C2B 3758  13.774   4.701   8.984  0.1961 -0.2183 -0.2293
  235loPI   C3B 3759  13.403   4.640   8.819 -0.3032  0.0613  0.0242
  235loPI   C4B 3760  12.887   4.641   8.930 -0.0306  0.2338 -0.0709
  236loPI    C1 3761   1.429  18.890   9.510  0.0465  0.0153 -0.2532
  236loPI    C2 3762   1.818  18.799   9.527  0.0544  0.1146  0.2345
  236loPI    C3 3763   1.553  18.579   9.730 -0.1064  0.2436  0.1659
  236loPI   PO4 3764   1.448  19.213   9.520 -0.0268  0.0427  0.0257
  236loPI   GL1 3765   1.731  19.331   9.160  0.0727 -0.3132  0.1338
  236loPI   GL2 3766   1.666  18.916   9.070  0.1696 -0.2017 -0.1925
  236loPI   C1A 3767   1.690  19.334   8.751  0.2870 -0.0244  0.3154
  236loPI   C2A 3768   1.743  19.053   8.485  0.2664 -0.0765  0.0333
  236loPI   C3A 3769   1.788  19.010   8.079  0.0031  0.1413 -0.1382
  236loPI   C4A 3770   1.916  19.153   7.721 -0.1273  0.2114 -0.1768
  236loPI   C5A 3771   1.677  19.139   7.258  0.3749  0.0840 -0.2193
  236loPI   C6A 3772   1.818  19.170   6.896  0.0084 -0.0687  0.0047
  236loPI   C1B 3773   1.887  18.721   8.762 -0.0622  0.1162 -0.0178
  236loPI   C2B 3774   1.992  18.651   8.380  0.1090  0.0100  0.0065
  236loPI   C3B 3775   1.982  18.646   7.888  0.1790 -0.0091 -0.0410
  236loPI   C4B 3776   1.900  18.638   7.474 -0.0006 -0.0783 -0.0295
  237loPI    C1 3777  10.892  17.634   9.762  0.0403 -0.0654  0.0602
  237loPI    C2 3778  10.726  17.429   9.461  0.1664 -0.2482  0.1136
  237loPI    C3 3779  11.021  17.265   9.676  0.3177  0.0173  0.1132
  237loPI   PO4 3780  10.866  17.909   9.673 -0.2132 -0.0024 -0.1210
  237loPI   GL1 3781  10.719  18.293   9.401 -0.0880 -0.0020  0.0514
  237loPI   GL2 3782  10.515  18.020   9.392 -0.3291 -0.0794 -0.2507
  237loPI   C1A 3783  11.029  18.311   8.897 -0.1195 -0.0117 -0.0129
  237loPI   C2A 3784  11.276  18.269   8.521  0.3568 -0.1355 -0.2911
  237loPI   C3A 3785  11.241  18.107   8.130  0.0079  0.0748  0.0008
  237loPI   C4A 3786  11.023  18.169   7.712  0.1405  0.1732 -0.2052
  237loPI   C5A 3787  10.929  18.311   7.272  0.0129  0.5472 -0.0733
  237loPI   C6A 3788  11.079  18.322   6.795 -0.4384 -0.0335  0.1155
  237loPI   C1B 3789  10.795  17.871   9.059  0.1242  0.0812  0.0026
  237loPI   C2B 3790  11.011  17.545   8.827 -0.0899  0.0519 -0.2080
  237loPI   C3B 3791  11.161  17.265   8.546 -0.2519  0.2910  0.1605
  237loPI   C4B 3792  11.126  17.132   8.186 -0.0403 -0.3501 -0.0107
  238loPI    C1 3793   9.853   1.230   9.285 -0.1367 -0.1120 -0.0318
  238loPI    C2 3794   9.970   1.453   8.974 -0.0903 -0.1156 -0.0169
  238loPI    C3 3795   9.875   1.628   9.321  0.0337 -0.1255  0.0227
  238loPI   PO4 3796  10.069   0.986   9.196 -0.1514  0.0463 -0.1174
  238loPI   GL1 3797  10.178   0.682   9.024  0.1254  0.2775  0.1025
  238loPI   GL2 3798   9.975   0.446   8.887  0.0441 -0.1379 -0.1055
  238loPI   C1A 3799  10.419   0.614   8.717 -0.3089 -0.1407 -0.1732
  238loPI   C2A 3800  10.703   0.795   8.480 -0.0507 -0.1365  0.4888
  238loPI   C3A 3801  10.744   1.146   8.175 -0.0111 -0.3842 -0.0624
  238loPI   C4A 3802  10.736   1.217   7.716  0.0842 -0.4027 -0.1699
  238loPI   C5A 3803  10.735   1.333   7.371 -0.1325 -0.1956  0.0089
  238loPI   C6A 3804  10.374   1.281   7.091  0.0974 -0.3329 -0.0533
  238loPI   C1B 3805  10.020   0.314   8.491 -0.0242  0.2313 -0.1324
  238loPI   C2B 3806  10.053   0.524   8.155  0.2843  0.1504 -0.0625
  238loPI   C3B 3807  10.185   0.453   7.833 -0.0303  0.3600  0.2477
  238loPI   C4B 3808  10.195   0.385   7.307 -0.1088  0.5501  0.0870
  239loPI    C1 3809  19.327   8.656   9.896  0.2075 -0.0657  0.0199
  239loPI    C2 3810  19.135   8.517  10.218  0.1178 -0.1041 -0.0495
  239loPI    C3 3811  19.134   8.909  10.138 -0.4561 -0.1638 -0.3828
  239loPI   PO4 3812  19.250   8.393   9.748  0.1163  0.1093 -0.1865
  239loPI   GL1 3813  19.459   8.261   9.334  0.1960 -0.0153  0.0257
  239loPI   GL2 3814  19.856   8.078   9.363 -0.2458  0.0073  0.1280
  239loPI   C1A 3815  19.266   8.355   8.919 -0.4523 -0.1292  0.1440
  239loPI   C2A 3816  19.355   8.377   8.541 -0.0779  0.2633 -0.3404
  239loPI   C3A 3817  19.121   8.455   8.223 -0.2096  0.4717  0.1846
  239loPI   C4A 3818  18.878   8.313   7.873  0.0287  0.1911 -0.1884
  239loPI   C5A 3819  18.464   8.169   7.673 -0.2447  0.0625  0.1140
  239loPI   C6A 3820  18.352   7.958   7.277 -0.0962 -0.0633 -0.1058
  239loPI   C1B 3821  19.779   8.174   8.861 -0.1995  0.0765 -0.1080
  239loPI   C2B 3822  19.791   8.072   8.478  0.1531 -0.0269  0.0988
  239loPI   C3B 3823  19.574   8.246   8.113 -0.1912 -0.0116 -0.0118
  239loPI   C4B 3824  19.458   8.596   7.730 -0.0491  0.0743 -0.2304
  240loPI    C1 3825   7.983   4.093   8.821 -0.2233  0.1182  0.0657
  240loPI    C2 3826   8.246   3.852   9.003 -0.1049  0.1834 -0.0173
  240loPI    C3 3827   7.853   3.781   9.036 -0.0751  0.0465  0.0525
  240loPI   PO4 3828   8.142   4.229   8.661 -0.0178 -0.1704 -0.1062
  240loPI   GL1 3829   7.898   4.193   8.254 -0.0528  0.0307  0.1023
  240loPI   GL2 3830   8.140   3.959   8.213  0.0167  0.0371 -0.0071
  240loPI   C1A 3831   7.814   4.142   7.831  0.1256  0.1501  0.1068
  240loPI   C2A 3832   7.780   3.995   7.320 -0.1678 -0.1324 -0.2629
  240loPI   C3A 3833   7.847   3.677   6.983  0.0423  0.2998 -0.2458
  240loPI   C4A 3834   7.733   3.811   6.578  0.3532  0.2672  0.1710
  240loPI   C5A 3835   7.433   3.713   6.292 -0.2927  0.0960 -0.1697
  240loPI   C6A 3836   7.355   3.307   6.128 -0.1860 -0.0135 -0.1644
  240loPI   C1B 3837   7.943   3.651   8.080 -0.3559  0.0291 -0.3528
  240loPI   C2B 3838   7.865   3.521   7.624 -0.1619  0.0133  0.0978
  240loPI   C3B 3839   7.906   3.233   7.279  0.0227  0.1118 -0.0821
  240loPI   C4B 3840   7.929   3.121   6.895  0.1718  0.0576 -0.2334
  241loPI    C1 3841  12.135  16.342  10.354 -0.0451  0.1592  0.1322
  241loPI    C2 3842  11.814  16.115  10.426 -0.1337  0.2311 -0.0281
  241loPI    C3 3843  11.913  16.408  10.680 -0.0202  0.0177  0.1783
  241loPI   PO4 3844  12.040  16.520  10.057  0.0329  0.2127  0.3223
  241loPI   GL1 3845  11.801  16.504   9.616  0.1000 -0.2529 -0.2711
  241loPI   GL2 3846  11.725  16.332   9.435 -0.2193  0.1655 -0.2835
  241loPI   C1A 3847  11.783  16.851   9.288 -0.0793 -0.1652  0.1744
  241loPI   C2A 3848  11.739  16.892   8.814  0.1015  0.1408 -0.1982
  241loPI   C3A 3849  11.559  17.022   8.374  0.0722  0.3201  0.0005
  241loPI   C4A 3850  11.631  17.275   8.055 -0.3515  0.0804 -0.0815
  241loPI   C5A 3851  11.556  17.388   7.696 -0.0227  0.2835 -0.0285
  241loPI   C6A 3852  11.603  17.519   7.172 -0.2383  0.1201  0.0180
  241loPI   C1B 3853  11.805  16.419   9.020  0.1687  0.3011  0.1754
  241loPI   C2B 3854  11.646  16.369   8.586 -0.3341 -0.0634  0.0923
  241loPI   C3B 3855  11.583  16.452   8.173  0.2936  0.7235  0.2393
  241loPI   C4B 3856  11.367  16.863   7.889 -0.0332 -0.1575 -0.5167
  242loPI    C1 3857  18.451  10.974   9.802 -0.1124 -0.2071  0.0880
  242loPI    C2 3858  18.623  11.051  10.155  0.0671  0.0079 -0.0445
  242loPI    C3 3859  18.434  11.343   9.956 -0.2689 -0.1760 -0.0014
  242loPI   PO4 3860  18.680  10.851   9.684 -0.1814  0.1889  0.2932
  242loPI   GL1 3861  18.604  10.896   9.270 -0.0647 -0.0181  0.2179
  242loPI   GL2 3862  18.946  11.109   9.260  0.1320 -0.1295  0.1373
  242loPI   C1A 3863  18.701  10.915   8.864  0.0559 -0.0602  0.1185
  242loPI   C2A 3864  18.744  10.982   8.461 -0.2823  0.1555 -0.0603
  242loPI   C3A 3865  18.682  11.170   8.034  0.1108 -0.1476  0.1143
  242loPI   C4A 3866  18.567  11.563   7.844  0.2344 -0.1023 -0.0524
  242loPI   C5A 3867  18.703  11.898   7.612  0.1780  0.0829 -0.1521
  242loPI   C6A 3868  18.733  12.008   7.178  0.0793  0.0457  0.1229
  242loPI   C1B 3869  19.126  11.419   8.949  0.1695 -0.0633  0.1893
  242loPI   C2B 3870  19.484  11.509   8.761 -0.2222 -0.1254  0.1129
  242loPI   C3B 3871  19.866  11.614   8.492  0.0046 -0.0423 -0.1964
  242loPI   C4B 3872  20.015  11.326   8.244  0.0723 -0.1172  0.1330
  243loPI    C1 3873   7.559   2.117   8.944  0.0317 -0.0789  0.1197
  243loPI    C2 3874   7.485   2.026   9.327 -0.4206 -0.0591  0.0430
  243loPI    C3 3875   7.475   1.740   9.048  0.0362 -0.0969  0.0583
  243loPI   PO4 3876   7.548   2.388   8.930 -0.0022  0.2528  0.0453
  243loPI   GL1 3877   7.293   2.626   8.883 -0.2476  0.0116 -0.0236
  243loPI   GL2 3878   6.957   2.656   8.874 -0.3479  0.1017 -0.0348
  243loPI   C1A 3879   7.269   2.676   8.453 -0.0408  0.2420  0.0628
  243loPI   C2A 3880   7.460   2.580   7.956  0.0672  0.0426 -0.1575
  243loPI   C3A 3881   7.469   2.467   7.540  0.1404  0.0530 -0.1436
  243loPI   C4A 3882   7.685   2.510   7.138  0.2267 -0.2739 -0.1444
  243loPI   C5A 3883   7.785   2.434   6.653 -0.0742  0.2892  0.1277
  243loPI   C6A 3884   7.807   2.046   6.452  0.0022 -0.2612 -0.3622
  243loPI   C1B 3885   6.768   2.631   8.462 -0.0506  0.2575  0.0821
  243loPI   C2B 3886   6.691   2.537   7.991 -0.1238 -0.1164 -0.2072
  243loPI   C3B 3887   6.444   2.487   7.672  0.2243  0.0527 -0.1132
  243loPI   C4B 3888   6.222   2.436   7.263 -0.0704  0.6004  0.2006
  244loPI    C1 3889  11.189   2.048   9.275 -0.1181 -0.0463 -0.0669
  244loPI    C2 3890  11.499   2.185   9.063 -0.2392  0.0128 -0.2077
  244loPI    C3 3891  11.406   1.797   9.052 -0.0538 -0.0394 -0.0126
  244loPI   PO4 3892  11.063   2.271   9.291 -0.0609  0.0017  0.0034
  244loPI   GL1 3893  10.988   2.459   8.897 -0.0104 -0.0788  0.1292
  244loPI   GL2 3894  11.122   2.700   9.081  0.0775 -0.0227 -0.1605
  244loPI   C1A 3895  11.044   2.127   8.619  0.1805 -0.1906  0.0006
  244loPI   C2A 3896  11.168   1.975   8.225  0.1728  0.0412 -0.0308
  244loPI   C3A 3897  11.133   1.962   7.804 -0.0619 -0.3630  0.2150
  244loPI   C4A 3898  11.018   1.954   7.384  0.1152 -0.3678  0.0202
  244loPI   C5A 3899  10.653   1.837   7.162 -0.2735 -0.1916  0.5629
  244loPI   C6A 3900  10.317   1.662   7.382 -0.3058 -0.2283  0.0877
  244loPI   C1B 3901  11.457   2.623   8.833 -0.1275 -0.1276 -0.1068
  244loPI   C2B 3902  11.608   2.442   8.425 -0.0318 -0.1900  0.2196
  244loPI   C3B 3903  11.643   2.119   8.134  0.2559 -0.0758 -0.0723
  244loPI   C4B 3904  11.533   1.735   7.865 -0.3593  0.1518 -0.1977
  245loPI    C1 3905   7.488   6.215   9.033  0.0724 -0.2508  0.1188
  245loPI    C2 3906   7.210   6.362   9.280 -0.0038 -0.0202 -0.1012
  245loPI    C3 3907   7.580   6.515   9.282 -0.0054 -0.0156 -0.1309
  245loPI   PO4 3908   7.443   6.200   8.823 -0.2013 -0.1905  0.0684
  245loPI   GL1 3909   7.377   5.943   8.568 -0.3261  0.1469  0.1825
  245loPI   GL2 3910   7.371   6.305   8.373 -0.0331  0.3721  0.1795
  245loPI   C1A 3911   7.589   5.882   8.144 -0.0807  0.0725 -0.1699
  245loPI   C2A 3912   7.698   5.907   7.621 -0.5200  0.2587 -0.1296
  245loPI   C3A 3913   7.802   5.990   7.140 -0.1441 -0.1270  0.2137
  245loPI   C4A 3914   7.704   6.248   6.952 -0.1456  0.2747 -0.1879
  245loPI   C5A 3915   7.422   6.363   6.673 -0.3500 -0.1277 -0.2718
  245loPI   C6A 3916   7.390   6.747   6.517  0.0067  0.0003 -0.0018
  245loPI   C1B 3917   7.539   6.349   7.956  0.0471 -0.1767 -0.2744
  245loPI   C2B 3918   7.744   6.698   7.695  0.2390 -0.2447  0.0766
  245loPI   C3B 3919   7.795   6.435   7.408 -0.0316 -0.3585  0.0518
  245loPI   C4B 3920   8.159   6.496   7.171  0.2042 -0.0788 -0.1609
  246loPI    C1 3921   4.893  19.350   9.419  0.0337 -0.0018  0.0798
  246loPI    C2 3922   4.541  19.412   9.598  0.1002 -0.1139  0.2525
  246loPI    C3 3923   4.881  19.460   9.804  0.1956  0.2034  0.0280
  246loPI   PO4 3924   4.760  19.280   9.155  0.0121 -0.2625  0.0169
  246loPI   GL1 3925   4.578  19.086   8.882 -0.3628  0.1973 -0.0983
  246loPI   GL2 3926   4.602  18.940   8.639  0.0350 -0.0825 -0.0615
  246loPI   C1A 3927   4.397  19.402   8.654 -0.3037  0.1242 -0.0081
  246loPI   C2A 3928   4.452  19.270   8.247 -0.1896 -0.0796 -0.2102
  246loPI   C3A 3929   4.462  18.960   7.907 -0.2217 -0.1342 -0.1019
  246loPI   C4A 3930   4.471  18.942   7.500 -0.0157  0.3164 -0.0184
  246loPI   C5A 3931   4.522  18.745   7.061 -0.2078 -0.0896 -0.0097
  246loPI   C6A 3932   4.179  18.657   6.831 -0.1486  0.1883  0.0735
  246loPI   C1B 3933   4.861  18.994   8.307  0.2386 -0.1065  0.1402
  246loPI   C2B 3934   4.942  19.020   7.789 -0.4332 -0.2668 -0.1228
  246loPI   C3B 3935   5.127  19.091   7.499 -0.1106  0.0483 -0.3330
  246loPI   C4B 3936   5.199  19.320   7.127 -0.1787 -0.1434  0.0650
  247loPI    C1 3937  16.058  18.234   9.840 -0.0702 -0.1504 -0.0001
  247loPI    C2 3938  16.319  18.282  10.139  0.0763 -0.0448 -0.1436
  247loPI    C3 3939  16.060  17.978  10.147  0.2163 -0.1620 -0.0093
  247loPI   PO4 3940  15.946  18.495   9.787  0.1223  0.1562  0.0914
  247loPI   GL1 3941  15.758  18.588   9.311 -0.2238  0.0469 -0.1106
  247loPI   GL2 3942  15.485  18.841   9.241  0.0940 -0.0239  0.0921
  247loPI   C1A 3943  15.842  18.685   8.933 -0.2534 -0.1753 -0.1110
  247loPI   C2A 3944  15.844  18.695   8.462 -0.0870  0.0181 -0.3494
  247loPI   C3A 3945  15.814  18.626   8.029  0.3906 -0.0024  0.1765
  247loPI   C4A 3946  15.564  18.749   7.764 -0.2018  0.1515 -0.0890
  247loPI   C5A 3947  15.134  18.483   7.665  0.0567 -0.1362 -0.0904
  247loPI   C6A 3948  14.713  18.402   7.718 -0.0709 -0.5193  0.0365
  247loPI   C1B 3949  15.391  18.918   8.812 -0.0586 -0.0052 -0.3074
  247loPI   C2B 3950  15.422  18.939   8.434 -0.2029 -0.0330  0.0497
  247loPI   C3B 3951  15.134  19.062   8.222 -0.0752 -0.1343 -0.2917
  247loPI   C4B 3952  14.808  19.128   7.885 -0.1258  0.6101 -0.1305
  248loPI    C1 3953   8.400   0.167   9.805  0.1038 -0.1262 -0.1844
  248loPI    C2 3954   8.745   0.362   9.749 -0.0108  0.0377 -0.3249
  248loPI    C3 3955   8.400   0.565   9.767 -0.0468 -0.0607  0.3963
  248loPI   PO4 3956   8.391  -0.093   9.647  0.2480 -0.2654 -0.1342
  248loPI   GL1 3957   8.327  -0.165   9.180  0.0908  0.1060 -0.2066
  248loPI   GL2 3958   8.430  -0.430   8.861 -0.1856 -0.2143 -0.0005
  248loPI   C1A 3959   8.349   0.092   8.817 -0.3333  0.1143  0.1638
  248loPI   C2A 3960   8.254  -0.030   8.378  0.1511  0.1772  0.1289
  248loPI   C3A 3961   8.300  -0.059   7.903 -0.0075 -0.0966 -0.4308
  248loPI   C4A 3962   8.410  -0.329   7.579  0.3036 -0.3250  0.0883
  248loPI   C5A 3963   8.700  -0.077   7.412 -0.0076 -0.2207 -0.1841
  248loPI   C6A 3964   9.037   0.173   7.378  0.3262 -0.1944 -0.0284
  248loPI   C1B 3965   8.382  -0.494   8.516 -0.2616  0.0926 -0.0835
  248loPI   C2B 3966   8.253  -0.529   8.149  0.3084 -0.3187  0.1798
  248loPI   C3B 3967   7.898  -0.580   7.806 -0.3180 -0.1319  0.1592
  248loPI   C4B 3968   7.897  -0.578   7.403 -0.3278 -0.1493  0.4388
  249loPI    C1 3969   2.065   1.462   9.648 -0.1287  0.1298  0.0367
  249loPI    C2 3970   2.463   1.448   9.615 -0.1475 -0.1542 -0.0996
  249loPI    C3 3971   2.278   1.222   9.888 -0.1961  0.1963  0.1641
  249loPI   PO4 3972   1.982   1.559   9.587 -0.0356  0.4636 -0.1772
  249loPI   GL1 3973   1.933   1.401   9.107  0.1471  0.2283 -0.1483
  249loPI   GL2 3974   1.629   1.418   9.234 -0.0197 -0.2351 -0.4068
  249loPI   C1A 3975   2.277   1.283   8.745  0.0756  0.0679  0.3758
  249loPI   C2A 3976   2.448   1.381   8.301 -0.0242  0.0768 -0.0015
  249loPI   C3A 3977   2.202   1.267   7.998  0.4372  0.2983 -0.0125
  249loPI   C4A 3978   2.174   1.419   7.483 -0.1092  0.2715 -0.1791
  249loPI   C5A 3979   2.257   1.740   7.173 -0.3979  0.2818 -0.3580
  249loPI   C6A 3980   2.315   2.066   6.917 -0.0379  0.1420 -0.2387
  249loPI   C1B 3981   1.555   1.572   8.766  0.1113 -0.1174  0.1497
  249loPI   C2B 3982   1.370   1.441   8.312  0.4240  0.0648 -0.0255
  249loPI   C3B 3983   1.346   1.175   7.952  0.1840  0.1219  0.2596
  249loPI   C4B 3984   1.156   1.046   7.590 -0.3095  0.0084  0.0627
  250loPI    C1 3985   3.690  11.413  10.394 -0.0616 -0.2148 -0.0169
  250loPI    C2 3986   3.992  11.158  10.333  0.1750  0.1141 -0.2587
  250loPI    C3 3987   4.021  11.436  10.618  0.1033  0.1506 -0.2870
  250loPI   PO4 3988   3.662  11.516  10.154  0.7166  0.2023 -0.2321
  250loPI   GL1 3989   3.747  11.714   9.686  0.4512  0.0484 -0.5243
  250loPI   GL2 3990   3.915  11.389   9.736  0.0743 -0.0820 -0.0005
  250loPI   C1A 3991   3.578  11.849   9.274  0.5208 -0.0911 -0.1181
  250loPI   C2A 3992   3.648  11.880   8.905  0.1627  0.3963  0.0608
  250loPI   C3A 3993   3.462  11.676   8.496  0.2441  0.0108  0.0016
  250loPI   C4A 3994   3.441  11.599   8.068 -0.1322  0.2004 -0.0354
  250loPI   C5A 3995   3.370  11.756   7.756 -0.0760 -0.1749 -0.0628
  250loPI   C6A 3996   3.572  12.119   7.481 -0.0363  0.1407 -0.1463
  250loPI   C1B 3997   3.985  11.480   9.303  0.0630 -0.1064  0.1431
  250loPI   C2B 3998   4.052  11.568   8.827 -0.2760  0.0212 -0.2142
  250loPI   C3B 3999   4.028  11.879   8.579 -0.0944  0.1973  0.1823
  250loPI   C4B 4000   3.704  12.162   8.537  0.2414 -0.1929  0.1025
  251loPI    C1 4001  10.999   8.131   9.510  0.2541 -0.1601 -0.0173
  251loPI    C2 4002  11.162   8.238   9.859  0.1788  0.2003 -0.0877
  251loPI    C3 4003  10.768   8.172   9.833  0.2427 -0.2407 -0.0152
  251loPI   PO4 4004  11.040   8.309   9.304 -0.0929  0.0289 -0.2194
  251loPI   GL1 4005  11.023   8.163   8.892 -0.1692 -0.0226 -0.5012
  251loPI   GL2 4006  10.776   8.105   8.601  0.0375  0.0351 -0.1339
  251loPI   C1A 4007  11.279   7.951   8.531 -0.0200 -0.4983  0.0422
  251loPI   C2A 4008  11.369   7.844   8.006 -0.0947  0.2073 -0.1159
  251loPI   C3A 4009  11.546   7.623   7.654  0.0450  0.1931 -0.1880
  251loPI   C4A 4010  11.671   7.850   7.293  0.0479  0.2235  0.4126
  251loPI   C5A 4011  11.337   8.233   7.188  0.1373  0.1777  0.4664
  251loPI   C6A 4012  11.045   8.509   7.193  0.0205 -0.2302  0.0421
  251loPI   C1B 4013  10.806   8.442   8.188 -0.1146  0.0291 -0.0462
  251loPI   C2B 4014  10.517   8.430   7.800  0.1987 -0.2282  0.2015
  251loPI   C3B 4015  10.306   8.505   7.256 -0.0495  0.2350 -0.0939
  251loPI   C4B 4016  10.286   8.878   7.100 -0.0563  0.1441  0.0338
  252loPI    C1 4017   8.898   5.752   9.326  0.0241  0.0927  0.0009
  252loPI    C2 4018   9.257   5.722   9.500 -0.0758  0.1249  0.2156
  252loPI    C3 4019   8.926   5.635   9.708 -0.1846 -0.0426 -0.0237
  252loPI   PO4 4020   9.001   5.902   9.103 -0.2076 -0.1334  0.0138
  252loPI   GL1 4021   9.019   5.831   8.657 -0.5424 -0.0288  0.1505
  252loPI   GL2 4022   9.263   5.983   8.620  0.4898 -0.2617  0.1123
  252loPI   C1A 4023   8.857   5.804   8.344 -0.0555  0.2253 -0.2004
  252loPI   C2A 4024   8.798   5.944   7.963  0.3240  0.2519  0.1244
  252loPI   C3A 4025   8.851   5.934   7.511 -0.0598  0.2274  0.1113
  252loPI   C4A 4026   8.954   5.786   7.101  0.0558  0.0471 -0.1420
  252loPI   C5A 4027   9.222   5.939   6.963  0.2680  0.3156  0.1003
  252loPI   C6A 4028   9.529   5.911   6.716  0.1793 -0.6028 -0.1587
  252loPI   C1B 4029   9.563   5.897   8.330 -0.5794 -0.1040  0.0228
  252loPI   C2B 4030   9.751   6.074   7.979 -0.0489 -0.1474  0.1534
  252loPI   C3B 4031   9.902   6.167   7.541  0.1236 -0.0401  0.0151
  252loPI   C4B 4032  10.082   6.031   7.053  0.2817  0.0269  0.2430
  253loPI    C1 4033   1.365  12.887  10.436 -0.1108  0.0969  0.0474
  253loPI    C2 4034   1.643  12.971  10.712  0.2096 -0.2735 -0.1511
  253loPI    C3 4035   1.400  12.658  10.762  0.0001 -0.1059 -0.1040
  253loPI   PO4 4036   1.476  12.887  10.221  0.1103 -0.1242 -0.1487
  253loPI   GL1 4037   1.467  12.978   9.787 -0.3657  0.0272 -0.0550
  253loPI   GL2 4038   1.424  13.254   9.768  0.3538  0.0136  0.2715
  253loPI   C1A 4039   1.703  12.926   9.454  0.1360 -0.0408  0.1976
  253loPI   C2A 4040   1.500  12.674   9.023  0.2486  0.0721 -0.0750
  253loPI   C3A 4041   1.521  12.543   8.686 -0.2014 -0.3731 -0.3521
  253loPI   C4A 4042   1.628  12.408   8.352 -0.1131 -0.2607 -0.1584
  253loPI   C5A 4043   1.765  12.183   7.920 -0.0375  0.2260  0.4112
  253loPI   C6A 4044   2.018  11.958   7.658 -0.0617  0.2946  0.1233
  253loPI   C1B 4045   1.508  13.426   9.420  0.1908 -0.1809  0.0794
  253loPI   C2B 4046   1.488  13.223   9.016  0.0631  0.1345 -0.0165
  253loPI   C3B 4047   1.462  13.061   8.692  0.2057 -0.1126 -0.4288
  253loPI   C4B 4048   1.640  13.045   8.289  0.0568 -0.2761  0.0016
  254loPI    C1 4049   4.513  16.646   9.996  0.1054  0.0863 -0.0264
  254loPI    C2 4050   4.911  16.676  10.017  0.1280 -0.0922 -0.1783
  254loPI    C3 4051   4.730  16.341  10.138  0.0021  0.0821  0.1244
  254loPI   PO4 4052   4.492  16.649   9.679  0.2049  0.1947  0.2995
  254loPI   GL1 4053   4.229  16.355   9.386  0.0693  0.0380  0.3522
  254loPI   GL2 4054   4.062  16.502   9.050  0.1807  0.1110 -0.3220
  254loPI   C1A 4055   4.540  16.266   9.206  0.1832  0.1901 -0.0169
  254loPI   C2A 4056   4.760  16.377   8.793 -0.1114 -0.4233  0.1699
  254loPI   C3A 4057   4.913  16.307   8.416 -0.2544 -0.0271  0.1988
  254loPI   C4A 4058   5.039  16.407   8.041 -0.1653  0.0229 -0.2401
  254loPI   C5A 4059   5.375  16.537   7.692  0.2541  0.0586 -0.1965
  254loPI   C6A 4060   5.260  16.498   7.255  0.0709 -0.2169  0.2490
  254loPI   C1B 4061   4.267  16.668   8.720 -0.2890 -0.1833 -0.0630
  254loPI   C2B 4062   4.136  16.666   8.320  0.0500 -0.1434  0.2368
  254loPI   C3B 4063   4.233  16.971   8.031 -0.3914  0.0251  0.0138
  254loPI   C4B 4064   4.051  17.189   7.697  0.3201  0.0533  0.0610
  255loPI    C1 4065   0.148   2.863   9.955 -0.0636 -0.0259  0.1512
  255loPI    C2 4066   0.282   3.101  10.248 -0.1211  0.0004  0.1562
  255loPI    C3 4067  -0.108   3.014  10.223 -0.1238  0.0385  0.0580
  255loPI   PO4 4068   0.317   2.901   9.810 -0.3630  0.0937 -0.0669
  255loPI   GL1 4069   0.243   2.912   9.439  0.4461  0.0803  0.1771
  255loPI   GL2 4070  -0.044   2.815   9.238  0.0010 -0.2370  0.3509
  255loPI   C1A 4071   0.330   3.029   8.981  0.0772  0.1401 -0.3152
  255loPI   C2A 4072   0.371   3.264   8.695  0.1585 -0.1060 -0.3575
  255loPI   C3A 4073   0.345   3.241   8.282  0.2010 -0.2538 -0.1366
  255loPI   C4A 4074   0.392   3.084   7.953  0.0274  0.1608  0.1596
  255loPI   C5A 4075   0.444   3.246   7.550  0.0623 -0.3104 -0.1184
  255loPI   C6A 4076   0.349   3.104   7.098 -0.2579  0.0097 -0.2875
  255loPI   C1B 4077   0.107   2.542   8.862 -0.0583 -0.0529  0.1400
  255loPI   C2B 4078   0.245   2.571   8.400  0.2151  0.2508  0.0283
  255loPI   C3B 4079   0.184   2.660   7.964 -0.0248 -0.1839 -0.0133
  255loPI   C4B 4080   0.180   2.426   7.580 -0.0228  0.0295 -0.2060
  256loPI    C1 4081  16.251  13.710  10.295 -0.0756  0.0415 -0.0056
  256loPI    C2 4082  16.479  13.406  10.420  0.0312  0.0953 -0.0676
  256loPI    C3 4083  16.080  13.379  10.441  0.0424 -0.0025  0.0343
  256loPI   PO4 4084  16.454  13.801  10.057  0.2504 -0.0640  0.3617
  256loPI   GL1 4085  16.499  13.938   9.681  0.1669  0.0554  0.3248
  256loPI   GL2 4086  16.831  13.921   9.526 -0.0783 -0.0600 -0.2319
  256loPI   C1A 4087  16.463  13.872   9.255 -0.2889 -0.0452 -0.0956
  256loPI   C2A 4088  16.546  13.707   8.872  0.0613 -0.1810 -0.0907
  256loPI   C3A 4089  16.802  13.463   8.751  0.0205 -0.1197  0.0144
  256loPI   C4A 4090  16.762  13.103   8.467  0.0777 -0.0445  0.1090
  256loPI   C5A 4091  16.781  12.952   7.975 -0.0648  0.1281 -0.0897
  256loPI   C6A 4092  16.433  12.878   7.713  0.2483 -0.0526 -0.1556
  256loPI   C1B 4093  17.003  13.779   9.141  0.2201 -0.0182 -0.1675
  256loPI   C2B 4094  17.222  13.907   8.871  0.0109  0.0238 -0.2683
  256loPI   C3B 4095  17.247  13.666   8.468  0.1283  0.0737 -0.1576
  256loPI   C4B 4096  16.913  13.502   8.225 -0.2863 -0.1156  0.0783
  257loPI    C1 4097  15.235   1.581  10.160  0.0238  0.0684  0.0551
  257loPI    C2 4098  14.961   1.324  10.024  0.0135 -0.0568  0.3073
  257loPI    C3 4099  14.863   1.590  10.306  0.0979  0.0378  0.2479
  257loPI   PO4 4100  15.288   1.682   9.974 -0.2889 -0.2935  0.1350
  257loPI   GL1 4101  15.585   1.678   9.605  0.1957 -0.0505 -0.1422
  257loPI   GL2 4102  15.386   1.897   9.466  0.0648  0.2979 -0.1310
  257loPI   C1A 4103  15.451   1.328   9.360 -0.1139 -0.2368 -0.0218
  257loPI   C2A 4104  15.378   1.328   8.941  0.4994  0.3176 -0.3933
  257loPI   C3A 4105  15.544   1.263   8.710 -0.2647  0.1183  0.1093
  257loPI   C4A 4106  15.702   1.232   8.305 -0.0758 -0.0968  0.0859
  257loPI   C5A 4107  15.601   1.363   7.919 -0.0457 -0.0850 -0.1313
  257loPI   C6A 4108  15.245   1.405   7.757 -0.1450  0.2300 -0.1294
  257loPI   C1B 4109  15.535   1.807   9.042  0.1969 -0.3948 -0.0235
  257loPI   C2B 4110  15.630   1.736   8.457 -0.1153  0.0892  0.1005
  257loPI   C3B 4111  15.877   1.765   8.016  0.0886 -0.0205 -0.0915
  257loPI   C4B 4112  16.179   2.015   7.857  0.0513  0.0523  0.4201
  258loPI    C1 4113  10.691  19.089  10.148  0.0460  0.2159 -0.1743
  258loPI    C2 4114  11.036  19.237  10.009  0.2381 -0.1036 -0.0504
  258loPI    C3 4115  10.922  19.315  10.384  0.2225 -0.0776 -0.0606
  258loPI   PO4 4116  10.711  18.872   9.987  0.0732 -0.1494 -0.1399
  258loPI   GL1 4117  10.927  18.880   9.536  0.3088 -0.0366  0.0843
  258loPI   GL2 4118  11.102  19.166   9.501 -0.2394 -0.0828 -0.0628
  258loPI   C1A 4119  10.929  18.734   9.114  0.1267 -0.0757 -0.0074
  258loPI   C2A 4120  10.893  18.732   8.571  0.1359  0.2409 -0.0839
  258loPI   C3A 4121  10.848  18.415   8.170  0.0512  0.0970  0.4583
  258loPI   C4A 4122  10.714  17.959   7.996 -0.3145 -0.0791  0.0293
  258loPI   C5A 4123  10.774  17.751   7.550  0.2747 -0.1898 -0.0182
  258loPI   C6A 4124  11.074  17.794   7.108 -0.1184 -0.2988  0.1730
  258loPI   C1B 4125  11.240  19.137   9.072 -0.1647  0.0063  0.1810
  258loPI   C2B 4126  11.331  18.989   8.670 -0.3449 -0.1765 -0.1956
  258loPI   C3B 4127  11.225  18.775   8.197 -0.0240  0.2141  0.3222
  258loPI   C4B 4128  11.327  18.498   7.824  0.2630  0.0319 -0.2653
  259loPI    C1 4129   7.025   7.327   9.458 -0.0131 -0.0609 -0.0485
  259loPI    C2 4130   6.779   7.455   9.746 -0.0235  0.2511 -0.1916
  259loPI    C3 4131   7.143   7.316   9.840 -0.0812  0.2144 -0.0180
  259loPI   PO4 4132   6.995   7.612   9.243 -0.2724 -0.0875  0.2942
  259loPI   GL1 4133   6.666   7.889   8.943 -0.2059 -0.1008 -0.1753
  259loPI   GL2 4134   6.714   7.581   8.828  0.0973 -0.0811  0.0728
  259loPI   C1A 4135   6.555   8.009   8.556  0.1275 -0.0596  0.0140
  259loPI   C2A 4136   6.639   7.880   8.224 -0.1397 -0.0454  0.1736
  259loPI   C3A 4137   6.723   8.076   7.787  0.2322  0.3220  0.1098
  259loPI   C4A 4138   6.825   8.078   7.443 -0.0932  0.0133 -0.1013
  259loPI   C5A 4139   6.992   7.997   6.999 -0.5276 -0.0669  0.0548
  259loPI   C6A 4140   6.912   7.575   6.743  0.0378 -0.1205  0.0455
  259loPI   C1B 4141   6.966   7.620   8.495  0.2658 -0.0627 -0.3115
  259loPI   C2B 4142   7.095   7.580   8.049  0.1226 -0.3813  0.1382
  259loPI   C3B 4143   7.542   7.656   7.815  0.0916 -0.0035 -0.2918
  259loPI   C4B 4144   7.823   7.386   7.548 -0.1826 -0.2543 -0.2675
  260loPI    C1 4145   5.890   7.879   9.555 -0.2005  0.1664  0.1383
  260loPI    C2 4146   5.772   7.501   9.506  0.2090  0.0659 -0.1193
  260loPI    C3 4147   6.047   7.590   9.782  0.1549  0.1671 -0.0976
  260loPI   PO4 4148   5.896   8.001   9.419  0.0225 -0.1652  0.1952
  260loPI   GL1 4149   5.952   8.261   9.126  0.0416  0.0467 -0.0084
  260loPI   GL2 4150   5.728   8.477   9.039 -0.1814  0.1793  0.0237
  260loPI   C1A 4151   6.130   8.273   8.675 -0.2139 -0.0698  0.0920
  260loPI   C2A 4152   6.155   8.194   8.334 -0.1612  0.1939 -0.1154
  260loPI   C3A 4153   6.284   8.339   7.984  0.4246 -0.2264  0.2666
  260loPI   C4A 4154   6.431   8.434   7.653  0.1546 -0.0279 -0.0319
  260loPI   C5A 4155   6.510   8.387   7.249 -0.3449 -0.1183 -0.1174
  260loPI   C6A 4156   6.450   8.651   6.853  0.0180 -0.0454  0.1534
  260loPI   C1B 4157   5.666   8.321   8.594  0.0983  0.1735 -0.3074
  260loPI   C2B 4158   5.318   8.157   8.253 -0.0209 -0.1580  0.0503
  260loPI   C3B 4159   5.270   8.389   7.845 -0.0152  0.0167 -0.1503
  260loPI   C4B 4160   5.263   8.436   7.361  0.0678  0.0236 -0.0730
  261loPI    C1 4161  18.897   9.841  10.064 -0.1975  0.0777  0.0880
  261loPI    C2 4162  18.593   9.614  10.192  0.0904 -0.2453  0.2137
  261loPI    C3 4163  18.835   9.792  10.456  0.0788 -0.0790  0.1143
  261loPI   PO4 4164  18.771   9.976   9.903  0.0989 -0.2319  0.2727
  261loPI   GL1 4165  18.624  10.088   9.554  0.1461 -0.1434 -0.0891
  261loPI   GL2 4166  18.740  10.293   9.414 -0.1778  0.3364 -0.0533
  261loPI   C1A 4167  18.464  10.036   9.056 -0.0002  0.1894 -0.1331
  261loPI   C2A 4168  18.244   9.993   8.780  0.2483 -0.3757  0.0468
  261loPI   C3A 4169  18.196   9.939   8.381 -0.0473 -0.2005  0.0066
  261loPI   C4A 4170  17.937  10.149   7.989  0.2853 -0.0864  0.0459
  261loPI   C5A 4171  18.004  10.136   7.563 -0.0276  0.1378 -0.1297
  261loPI   C6A 4172  18.309  10.306   7.247 -0.2764  0.0457 -0.2631
  261loPI   C1B 4173  18.858  10.436   9.005  0.2148  0.1673 -0.3720
  261loPI   C2B 4174  18.834  10.451   8.615  0.0008 -0.0560 -0.1016
  261loPI   C3B 4175  18.849  10.625   8.161 -0.0485  0.0338 -0.1292
  261loPI   C4B 4176  19.031  10.798   7.802  0.2582  0.4098  0.1419
  262loPI    C1 4177  17.174   9.533  10.060 -0.2710  0.0200 -0.0554
  262loPI    C2 4178  17.011   9.379  10.391 -0.0952  0.0249  0.0349
  262loPI    C3 4179  17.331   9.618  10.419 -0.0554 -0.0068 -0.1417
  262loPI   PO4 4180  17.080   9.391   9.872 -0.0850  0.0675 -0.0463
  262loPI   GL1 4181  16.817   9.463   9.523  0.1015  0.0621  0.2775
  262loPI   GL2 4182  16.629   9.793   9.428  0.0558  0.1979 -0.2914
  262loPI   C1A 4183  16.873   9.503   9.052 -0.1058  0.1165  0.1298
  262loPI   C2A 4184  16.996   9.431   8.604 -0.3681  0.1252 -0.2733
  262loPI   C3A 4185  17.340   9.577   8.481 -0.0321  0.4319  0.1078
  262loPI   C4A 4186  17.760   9.487   8.285  0.4290  0.1104 -0.2587
  262loPI   C5A 4187  17.804   9.116   7.953  0.0772 -0.0357  0.3643
  262loPI   C6A 4188  18.138   8.893   7.874  0.0905  0.1524  0.0042
  262loPI   C1B 4189  16.513   9.805   9.021 -0.0208 -0.0224  0.1579
  262loPI   C2B 4190  16.535   9.625   8.587 -0.2274  0.1547 -0.7335
  262loPI   C3B 4191  16.607   9.756   8.183 -0.1785 -0.1634  0.0442
  262loPI   C4B 4192  16.899   9.612   7.926 -0.3075 -0.1928 -0.1393
  263loPI    C1 4193   9.912   3.367   9.059 -0.3274 -0.2420  0.1845
  263loPI    C2 4194   9.910   3.287   9.451 -0.2620  0.2283  0.2873
  263loPI    C3 4195  10.056   3.635   9.318 -0.0530 -0.0265 -0.1797
  263loPI   PO4 4196   9.638   3.361   9.018  0.1087  0.0114  0.0635
  263loPI   GL1 4197   9.698   3.374   8.569 -0.0658 -0.1524  0.1027
  263loPI   GL2 4198   9.502   3.653   8.698 -0.0354  0.1469 -0.3282
  263loPI   C1A 4199   9.999   3.557   8.318 -0.3688 -0.1271 -0.0635
  263loPI   C2A 4200  10.155   3.708   7.935  0.0669 -0.0879 -0.3681
  263loPI   C3A 4201  10.270   3.622   7.585 -0.1411  0.4050 -0.2064
  263loPI   C4A 4202  10.037   3.819   7.185 -0.3855 -0.1846 -0.2068
  263loPI   C5A 4203  10.152   3.704   6.821  0.1328 -0.0572 -0.0197
  263loPI   C6A 4204  10.188   3.482   6.564  0.1492  0.4528  0.2406
  263loPI   C1B 4205   9.460   3.754   8.204  0.4444 -0.0502  0.1257
  263loPI   C2B 4206   9.700   3.642   7.883 -0.0463 -0.5046  0.3078
  263loPI   C3B 4207   9.704   3.591   7.447 -0.0678  0.2766 -0.0708
  263loPI   C4B 4208   9.334   3.546   7.279 -0.0751 -0.1851 -0.1215
  264loPI    C1 4209  14.036  16.561  10.084  0.0336  0.1077  0.0167
  264loPI    C2 4210  14.284  16.481  10.387  0.1590  0.3073 -0.0312
  264loPI    C3 4211  13.889  16.450  10.439  0.1895  0.0553  0.0659
  264loPI   PO4 4212  14.128  16.659   9.819  0.1358  0.0255 -0.0297
  264loPI   GL1 4213  14.164  16.880   9.441 -0.0716  0.1257 -0.1963
  264loPI   GL2 4214  14.441  16.845   9.509 -0.2671 -0.0697 -0.0053
  264loPI   C1A 4215  14.084  17.137   9.101  0.0734 -0.1136  0.4017
  264loPI   C2A 4216  14.347  17.126   8.727 -0.1440  0.0724  0.1627
  264loPI   C3A 4217  14.447  17.198   8.331  0.0283  0.1458  0.2425
  264loPI   C4A 4218  14.375  17.009   7.860  0.0266  0.3878 -0.2071
  264loPI   C5A 4219  14.220  16.586   7.880  0.5287 -0.1239 -0.0978
  264loPI   C6A 4220  13.919  16.300   7.744  0.0223  0.2294 -0.0668
  264loPI   C1B 4221  14.584  17.115   9.159 -0.0772 -0.0649  0.1094
  264loPI   C2B 4222  14.862  17.077   8.752  0.0693  0.2086  0.1403
  264loPI   C3B 4223  15.022  17.078   8.331 -0.2242 -0.0566 -0.0948
  264loPI   C4B 4224  15.330  17.088   8.006  0.1835 -0.3794 -0.2209
  265loPI    C1 4225  10.291  12.446   9.880 -0.1297  0.1754  0.2140
  265loPI    C2 4226  10.563  12.157   9.934 -0.0219  0.2298 -0.0236
  265loPI    C3 4227  10.531  12.455  10.200 -0.1844 -0.0373  0.2623
  265loPI   PO4 4228  10.369  12.441   9.464 -0.2561  0.0266 -0.0746
  265loPI   GL1 4229  10.859  12.394   9.265  0.0071 -0.1424 -0.3264
  265loPI   GL2 4230  10.666  12.140   9.115  0.4107 -0.1062 -0.2377
  265loPI   C1A 4231  11.051  12.385   8.919  0.0903 -0.1435  0.0870
  265loPI   C2A 4232  11.030  12.262   8.456 -0.2493  0.0422 -0.0033
  265loPI   C3A 4233  11.070  12.152   8.026 -0.0243 -0.0599 -0.0717
  265loPI   C4A 4234  11.440  12.260   7.787  0.0261  0.1220  0.0734
  265loPI   C5A 4235  11.390  12.443   7.425  0.1855  0.1290  0.1780
  265loPI   C6A 4236  11.666  12.693   7.243  0.1539 -0.4165  0.2412
  265loPI   C1B 4237  10.560  12.338   8.692  0.0897  0.0531  0.3293
  265loPI   C2B 4238  10.558  12.115   8.240  0.0330  0.0629 -0.0305
  265loPI   C3B 4239  10.598  11.984   7.885 -0.2491  0.2465  0.1071
  265loPI   C4B 4240  10.579  11.818   7.439 -0.1996 -0.1622  0.1511
  266loPI    C1 4241   7.661  19.199   9.634 -0.0413 -0.0784 -0.0037
  266loPI    C2 4242   7.922  19.347   9.898 -0.0232  0.1527 -0.1482
  266loPI    C3 4243   7.630  19.102  10.021  0.0610  0.1566  0.0648
  266loPI   PO4 4244   7.841  19.142   9.419 -0.0641 -0.2183  0.0674
  266loPI   GL1 4245   7.914  18.897   8.978  0.1460  0.2542  0.1389
  266loPI   GL2 4246   7.575  18.768   9.015 -0.2130  0.1870 -0.2050
  266loPI   C1A 4247   7.884  18.983   8.554 -0.1240  0.2182  0.1917
  266loPI   C2A 4248   7.820  19.128   8.139  0.3588  0.2409 -0.0023
  266loPI   C3A 4249   7.857  19.267   7.697 -0.2024 -0.2624  0.1116
  266loPI   C4A 4250   8.102  19.513   7.447  0.0787  0.1923 -0.3365
  266loPI   C5A 4251   7.994  19.597   7.033  0.0508  0.1907  0.0266
  266loPI   C6A 4252   7.696  19.795   6.882  0.1998  0.0684 -0.1856
  266loPI   C1B 4253   7.400  18.633   8.611 -0.0843 -0.1356 -0.1469
  266loPI   C2B 4254   7.521  18.685   8.232 -0.0860 -0.3356  0.0289
  266loPI   C3B 4255   7.500  18.537   7.795 -0.1772  0.2888  0.1056
  266loPI   C4B 4256   7.536  18.416   7.233 -0.2364 -0.0912  0.4517
  267loPI    C1 4257   6.603   6.038   9.434 -0.1265  0.0466  0.3363
  267loPI    C2 4258   6.960   5.858   9.428 -0.0649  0.1701 -0.1822
  267loPI    C3 4259   6.714   5.803   9.738  0.2685 -0.1759  0.0307
  267loPI   PO4 4260   6.700   6.300   9.259 -0.0830  0.1529  0.1476
  267loPI   GL1 4261   6.415   6.591   8.912  0.2280  0.2714 -0.1127
  267loPI   GL2 4262   6.347   6.905   8.947  0.0128 -0.4091  0.0921
  267loPI   C1A 4263   6.503   6.690   8.518  0.0447  0.2428  0.1809
  267loPI   C2A 4264   6.485   6.825   8.138 -0.0372 -0.0524 -0.3161
  267loPI   C3A 4265   6.427   6.951   7.734  0.0122  0.0543  0.2492
  267loPI   C4A 4266   6.458   7.287   7.415 -0.1896  0.0966 -0.0976
  267loPI   C5A 4267   6.852   7.423   7.212 -0.0133 -0.0763  0.2135
  267loPI   C6A 4268   7.276   7.456   7.489  0.2247  0.1634  0.4044
  267loPI   C1B 4269   6.108   7.095   8.491 -0.0281 -0.1503 -0.0662
  267loPI   C2B 4270   6.154   7.246   8.017  0.1642 -0.2213 -0.1732
  267loPI   C3B 4271   5.991   7.271   7.624  0.0817 -0.0403 -0.2278
  267loPI   C4B 4272   5.608   6.973   7.420  0.2204 -0.0972 -0.3196
  268loPI    C1 4273   7.410   4.093   8.944 -0.2650 -0.1743  0.3421
  268loPI    C2 4274   7.271   4.122   9.318 -0.0348  0.1529  0.4069
  268loPI    C3 4275   7.651   4.220   9.237 -0.0628  0.0199  0.0973
  268loPI   PO4 4276   7.238   3.875   8.853  0.1043  0.0153 -0.2506
  268loPI   GL1 4277   7.074   3.997   8.423  0.1162  0.2451  0.1444
  268loPI   GL2 4278   7.030   3.710   8.387  0.1890 -0.0756 -0.0301
  268loPI   C1A 4279   7.387   3.919   8.085  0.0880  0.1652 -0.0993
  268loPI   C2A 4280   7.422   3.800   7.719  0.0887  0.1695  0.1694
  268loPI   C3A 4281   7.397   3.695   7.308  0.4197 -0.1983  0.1620
  268loPI   C4A 4282   7.457   3.400   7.099 -0.1757  0.3536  0.1111
  268loPI   C5A 4283   7.313   3.106   6.777 -0.3449  0.3272 -0.2848
  268loPI   C6A 4284   7.364   2.720   6.779  0.1811  0.1337  0.2336
  268loPI   C1B 4285   6.902   3.799   7.980  0.2969 -0.1391 -0.3584
  268loPI   C2B 4286   6.750   3.861   7.623  0.0868  0.0163 -0.0004
  268loPI   C3B 4287   6.616   3.969   7.226  0.0660  0.0453 -0.1558
  268loPI   C4B 4288   6.355   4.322   7.172  0.3290 -0.0845 -0.0570
  269loPI    C1 4289   8.418   9.507   9.114 -0.0397  0.2075 -0.1230
  269loPI    C2 4290   8.064   9.620   9.262  0.0457  0.1952  0.0950
  269loPI    C3 4291   8.376   9.572   9.507  0.1316 -0.0507 -0.0590
  269loPI   PO4 4292   8.409   9.551   8.867 -0.1770 -0.0642  0.0265
  269loPI   GL1 4293   8.401   9.779   8.518 -0.0627 -0.0411  0.0566
  269loPI   GL2 4294   8.495   9.557   8.362  0.1755 -0.0491 -0.1845
  269loPI   C1A 4295   8.405  10.083   8.240 -0.2806 -0.2867  0.1071
  269loPI   C2A 4296   8.804  10.225   7.897 -0.1344  0.2509 -0.1379
  269loPI   C3A 4297   9.157  10.464   7.711  0.0458 -0.0554  0.0919
  269loPI   C4A 4298   9.218  10.708   7.331 -0.1919  0.0369 -0.4301
  269loPI   C5A 4299   9.123  11.041   6.968 -0.1546 -0.2291  0.0502
  269loPI   C6A 4300   8.777  11.409   6.968 -0.0576  0.1216  0.0474
  269loPI   C1B 4301   8.770   9.778   8.122 -0.0414 -0.1579 -0.0859
  269loPI   C2B 4302   8.869   9.699   7.606 -0.0793  0.0738  0.1202
  269loPI   C3B 4303   8.797   9.729   7.272 -0.1384 -0.0702  0.1170
  269loPI   C4B 4304   8.742   9.561   6.821  0.1334  0.0404  0.1357
  270loPI    C1 4305   2.290  16.595  10.314 -0.0605  0.1759 -0.0651
  270loPI    C2 4306   2.026  16.886  10.388  0.1280  0.3683 -0.1369
  270loPI    C3 4307   2.152  16.650  10.685 -0.1409  0.2582 -0.1067
  270loPI   PO4 4308   2.230  16.573  10.052  0.1003  0.3980 -0.1764
  270loPI   GL1 4309   2.109  16.818   9.658 -0.3160  0.1888 -0.2221
  270loPI   GL2 4310   1.800  16.665   9.516 -0.0106 -0.3995  0.2263
  270loPI   C1A 4311   2.272  17.024   9.196  0.2885  0.1756 -0.1579
  270loPI   C2A 4312   2.326  17.252   8.817 -0.0319  0.4282 -0.0324
  270loPI   C3A 4313   2.170  17.289   8.377  0.1315  0.2079 -0.3979
  270loPI   C4A 4314   1.887  17.481   8.084  0.0122  0.3085  0.0749
  270loPI   C5A 4315   1.920  17.724   7.810 -0.1292  0.0240  0.2771
  270loPI   C6A 4316   2.059  17.778   7.427 -0.1263 -0.0453 -0.2930
  270loPI   C1B 4317   1.947  16.646   9.067  0.1226 -0.1012 -0.0132
  270loPI   C2B 4318   1.915  16.556   8.563  0.2455  0.2576  0.1540
  270loPI   C3B 4319   2.125  16.525   8.241 -0.2320 -0.1524 -0.0161
  270loPI   C4B 4320   1.989  16.381   7.760 -0.2222 -0.1188 -0.2652
  271loPI    C1 4321  10.421  11.949   9.516 -0.1637 -0.0273  0.2658
  271loPI    C2 4322  10.630  11.616   9.441 -0.0362  0.0245  0.3869
  271loPI    C3 4323  10.818  11.946   9.566 -0.1677  0.1288  0.3120
  271loPI   PO4 4324  10.284  11.947   9.332 -0.0762  0.0189  0.1617
  271loPI   GL1 4325  10.169  12.209   8.986  0.0417  0.0697 -0.0493
  271loPI   GL2 4326   9.840  12.412   8.869 -0.0679 -0.0031 -0.0305
  271loPI   C1A 4327  10.099  12.075   8.506 -0.0351  0.0552 -0.2154
  271loPI   C2A 4328  10.056  12.178   7.970  0.1996 -0.1075 -0.1452
  271loPI   C3A 4329   9.763  12.286   7.641  0.1469  0.0260 -0.2853
  271loPI   C4A 4330   9.480  12.407   7.519 -0.0416 -0.1741 -0.0716
  271loPI   C5A 4331   9.065  12.436   7.352  0.2652 -0.2768 -0.1794
  271loPI   C6A 4332   8.536  12.281   7.488  0.2077 -0.1646 -0.2732
  271loPI   C1B 4333   9.790  12.491   8.339  0.2284 -0.0190  0.0135
  271loPI   C2B 4334   9.911  12.696   8.073 -0.0121  0.1895  0.1441
  271loPI   C3B 4335   9.842  12.822   7.624 -0.1351  0.3144 -0.0423
  271loPI   C4B 4336   9.700  13.193   7.402  0.2072 -0.0448 -0.0571
  272loPI    C1 4337   1.858   1.890  10.039 -0.1775  0.0556 -0.2326
  272loPI    C2 4338   1.890   1.493  10.072  0.0939  0.0963  0.0363
  272loPI    C3 4339   2.220   1.719  10.044 -0.0460  0.3295  0.2366
  272loPI   PO4 4340   1.676   1.924   9.837 -0.1236 -0.0687 -0.2710
  272loPI   GL1 4341   1.804   2.145   9.482  0.0510  0.0612 -0.2994
  272loPI   GL2 4342   1.773   1.885   9.258  0.2123 -0.3100 -0.1480
  272loPI   C1A 4343   1.580   2.393   9.172 -0.2269  0.1223 -0.0629
  272loPI   C2A 4344   1.649   2.644   8.811  0.2018 -0.2194 -0.0534
  272loPI   C3A 4345   1.745   2.532   8.439 -0.1392 -0.1859  0.1531
  272loPI   C4A 4346   1.605   2.615   7.934 -0.1027 -0.1684  0.2368
  272loPI   C5A 4347   1.480   2.316   7.574  0.0954  0.1834  0.0319
  272loPI   C6A 4348   1.481   2.081   7.256  0.1700  0.2167 -0.1766
  272loPI   C1B 4349   1.362   1.939   9.001  0.0736 -0.4117 -0.0500
  272loPI   C2B 4350   1.129   1.815   8.643 -0.1093  0.0127  0.4111
  272loPI   C3B 4351   0.922   1.793   8.330 -0.3438  0.0432  0.0941
  272loPI   C4B 4352   0.934   1.405   8.096 -0.0088 -0.1665 -0.1532
  273loPI    C1 4353   5.764  17.221   9.541 -0.0724 -0.0443 -0.1248
  273loPI    C2 4354   6.124  17.356   9.651 -0.1888 -0.1010  0.3471
  273loPI    C3 4355   5.814  17.609   9.625 -0.2434 -0.1492  0.5152
  273loPI   PO4 4356   5.853  16.939   9.717 -0.0406 -0.4479  0.0692
  273loPI   GL1 4357   6.246  16.901   9.407 -0.1612 -0.1287 -0.1851
  273loPI   GL2 4358   5.932  16.657   9.338 -0.3005 -0.0193  0.0836
  273loPI   C1A 4359   6.332  16.740   9.061  0.0633 -0.2798  0.2019
  273loPI   C2A 4360   6.253  16.910   8.766 -0.2514 -0.1783 -0.0185
  273loPI   C3A 4361   6.018  16.869   8.389 -0.2044  0.2986  0.1918
  273loPI   C4A 4362   6.125  16.855   7.903  0.2269  0.2233  0.2160
  273loPI   C5A 4363   5.990  16.855   7.393 -0.3143 -0.2071 -0.0828
  273loPI   C6A 4364   5.603  16.857   7.261  0.1380 -0.2265 -0.2932
  273loPI   C1B 4365   5.837  16.756   8.943 -0.0507  0.0927 -0.1644
  273loPI   C2B 4366   5.626  16.670   8.672 -0.4585  0.1672  0.4106
  273loPI   C3B 4367   5.636  16.482   8.296 -0.1106  0.2193 -0.0187
  273loPI   C4B 4368   5.787  16.456   7.865 -0.0999 -0.1335  0.0770
  274loPI    C1 4369  16.694  12.333  10.131 -0.0081  0.1951 -0.2555
  274loPI    C2 4370  17.046  12.488  10.243 -0.0021  0.2818 -0.3916
  274loPI    C3 4371  16.813  12.305  10.512  0.0685  0.3766 -0.2647
  274loPI   PO4 4372  16.590  12.615   9.971 -0.0188  0.0522  0.0437
  274loPI   GL1 4373  16.878  12.431   9.573  0.0133  0.1170  0.0541
  274loPI   GL2 4374  16.735  12.772   9.518 -0.1243  0.0818 -0.3067
  274loPI   C1A 4375  16.992  12.172   9.276  0.3732  0.4496 -0.2201
  274loPI   C2A 4376  17.100  12.318   8.829 -0.1844 -0.3011  0.2254
  274loPI   C3A 4377  16.948  12.297   8.462 -0.2300 -0.0780  0.1849
  274loPI   C4A 4378  16.858  12.336   8.055  0.1633 -0.1371  0.0674
  274loPI   C5A 4379  16.670  12.407   7.682  0.1118 -0.0597 -0.1516
  274loPI   C6A 4380  16.344  12.512   7.346  0.0700  0.1425  0.0834
  274loPI   C1B 4381  16.360  12.904   9.341  0.0180  0.0239  0.2695
  274loPI   C2B 4382  16.320  13.178   9.124 -0.1384 -0.0461 -0.0377
  274loPI   C3B 4383  16.310  13.275   8.726 -0.0540  0.0931 -0.0593
  274loPI   C4B 4384  16.298  13.429   8.258 -0.3458 -0.0136 -0.0309
  275loPI    C1 4385  11.896   7.201   9.477 -0.2241 -0.0632  0.1279
  275loPI    C2 4386  11.683   7.533   9.412 -0.0547  0.0388  0.0876
  275loPI    C3 4387  11.543   7.250   9.657 -0.1117  0.2275  0.2755
  275loPI   PO4 4388  12.147   7.308   9.547  0.0744  0.1809 -0.2233
  275loPI   GL1 4389  12.482   7.293   9.252  0.3391 -0.0729 -0.2566
  275loPI   GL2 4390  12.284   7.552   9.100  0.1201 -0.2635  0.0699
  275loPI   C1A 4391  12.426   7.040   9.011 -0.0905  0.0473 -0.0730
  275loPI   C2A 4392  12.401   6.658   8.640 -0.0667  0.4743  0.0566
  275loPI   C3A 4393  12.493   6.588   8.335  0.2765 -0.2802  0.0886
  275loPI   C4A 4394  12.830   6.463   8.108 -0.2064 -0.3834  0.2340
  275loPI   C5A 4395  12.965   6.803   7.781 -0.0136  0.0443  0.1129
  275loPI   C6A 4396  13.368   6.786   7.509  0.4927  0.2175 -0.0426
  275loPI   C1B 4397  12.145   7.365   8.672  0.0282 -0.2274 -0.0841
  275loPI   C2B 4398  11.739   7.375   8.401  0.3162  0.2549  0.1661
  275loPI   C3B 4399  11.704   7.267   7.979 -0.5062  0.2197  0.0838
  275loPI   C4B 4400  11.701   7.017   7.619  0.1100  0.0944  0.3061
  276loPI    C1 4401  17.004   5.332   9.728 -0.0156 -0.1158 -0.0378
  276loPI    C2 4402  16.696   5.426   9.965 -0.1288 -0.3448 -0.0923
  276loPI    C3 4403  16.992   5.195  10.103  0.0059 -0.1485 -0.0490
  276loPI   PO4 4404  16.990   5.230   9.506  0.1891  0.0695 -0.0548
  276loPI   GL1 4405  16.826   4.989   9.248  0.0850  0.0787 -0.1331
  276loPI   GL2 4406  16.624   4.865   9.237 -0.0944  0.1211 -0.0286
  276loPI   C1A 4407  16.892   5.039   8.831  0.2912 -0.1197 -0.0024
  276loPI   C2A 4408  17.057   5.209   8.445  0.2109 -0.1064  0.1694
  276loPI   C3A 4409  17.158   5.466   8.040 -0.5647 -0.0879 -0.0911
  276loPI   C4A 4410  17.053   5.710   7.673 -0.1294  0.0008 -0.0223
  276loPI   C5A 4411  17.027   6.062   7.573  0.0805  0.1447  0.1691
  276loPI   C6A 4412  17.233   6.439   7.440  0.0751 -0.1529 -0.1088
  276loPI   C1B 4413  16.367   5.081   8.863 -0.2828 -0.0942  0.1487
  276loPI   C2B 4414  16.468   4.973   8.399  0.2271  0.0567  0.0268
  276loPI   C3B 4415  16.688   5.161   8.046  0.1371  0.1755 -0.0267
  276loPI   C4B 4416  16.711   5.109   7.680  0.2048 -0.1168  0.0213
  277loPI    C1 4417   0.960   3.465   9.766  0.1645 -0.1029 -0.0859
  277loPI    C2 4418   0.635   3.593   9.571  0.1362 -0.2062 -0.1074
  277loPI    C3 4419   0.597   3.407   9.923  0.2099  0.3367  0.1995
  277loPI   PO4 4420   1.171   3.677   9.711 -0.2005 -0.0493  0.2096
  277loPI   GL1 4421   1.399   3.712   9.335  0.0008 -0.2756 -0.0991
  277loPI   GL2 4422   1.630   3.768   9.296  0.0974  0.1494 -0.2388
  277loPI   C1A 4423   1.364   3.565   8.886 -0.6829  0.1849  0.2344
  277loPI   C2A 4424   1.274   3.660   8.487  0.0192  0.1077  0.0579
  277loPI   C3A 4425   1.190   3.681   8.095 -0.2044 -0.0740  0.1100
  277loPI   C4A 4426   1.116   3.723   7.710 -0.0424  0.1147  0.1530
  277loPI   C5A 4427   1.256   3.849   7.324  0.0755  0.0912  0.2801
  277loPI   C6A 4428   1.247   4.240   7.120 -0.0358  0.2596  0.1373
  277loPI   C1B 4429   1.654   3.919   8.852 -0.2384  0.0795  0.1697
  277loPI   C2B 4430   1.521   4.176   8.479  0.1316 -0.6126  0.1255
  277loPI   C3B 4431   1.335   4.219   8.145  0.1218 -0.1610  0.2162
  277loPI   C4B 4432   1.469   4.181   7.717  0.2198  0.3080 -0.0583
  278loPI    C1 4433  11.950  12.694  10.184  0.1011  0.0263  0.1890
  278loPI    C2 4434  12.001  13.063  10.037  0.0760  0.0365  0.2058
  278loPI    C3 4435  12.214  12.942  10.354  0.2707 -0.0523  0.0434
  278loPI   PO4 4436  11.989  12.536   9.998 -0.0882 -0.2625 -0.3688
  278loPI   GL1 4437  12.169  12.632   9.654 -0.2912  0.0022 -0.1596
  278loPI   GL2 4438  12.394  12.463   9.453 -0.1461  0.1817  0.1537
  278loPI   C1A 4439  11.939  13.033   9.524 -0.1597 -0.1496 -0.2451
  278loPI   C2A 4440  11.882  13.018   9.107  0.0101 -0.2109  0.2448
  278loPI   C3A 4441  11.905  12.832   8.695  0.0034  0.1755  0.1103
  278loPI   C4A 4442  11.876  12.723   8.236  0.1509  0.1167 -0.1600
  278loPI   C5A 4443  11.838  12.618   7.798  0.0950 -0.1491  0.2473
  278loPI   C6A 4444  12.046  12.443   7.490 -0.0265  0.1469 -0.0103
  278loPI   C1B 4445  12.665  12.551   9.062  0.5150 -0.4054 -0.0143
  278loPI   C2B 4446  12.658  12.423   8.548  0.1524  0.0474 -0.1661
  278loPI   C3B 4447  12.815  12.347   8.096  0.0135 -0.2675 -0.0478
  278loPI   C4B 4448  12.618  12.359   7.592  0.2533 -0.1924 -0.2614
  279loPI    C1 4449   9.102  18.088   9.772 -0.2494 -0.1926 -0.2943
  279loPI    C2 4450   9.464  17.984   9.909 -0.1910  0.0316 -0.2749
  279loPI    C3 4451   9.134  17.852  10.094 -0.1167  0.0176 -0.1513
  279loPI   PO4 4452   9.150  18.054   9.518  0.0509  0.0219  0.1253
  279loPI   GL1 4453   9.449  17.736   9.442  0.1214 -0.2597  0.2486
  279loPI   GL2 4454   9.331  17.466   9.400  0.2908  0.3118  0.1537
  279loPI   C1A 4455   9.616  17.968   9.035  0.2117 -0.1474  0.0441
  279loPI   C2A 4456   9.809  17.896   8.721  0.1401  0.3795  0.1238
  279loPI   C3A 4457   9.789  18.110   8.381 -0.0360 -0.2901 -0.5097
  279loPI   C4A 4458   9.820  18.251   8.010  0.1747  0.2531  0.0321
  279loPI   C5A 4459   9.607  18.234   7.574 -0.0121 -0.1316  0.0872
  279loPI   C6A 4460   9.559  18.021   7.161 -0.0671  0.0635 -0.3066
  279loPI   C1B 4461   9.406  17.483   9.005 -0.1571  0.1353  0.0552
  279loPI   C2B 4462   9.212  17.698   8.680  0.0174 -0.0169 -0.0460
  279loPI   C3B 4463   9.378  17.997   8.498  0.1686  0.1444 -0.0263
  279loPI   C4B 4464   9.296  18.154   8.071  0.1237  0.0884  0.2097
  280loPI    C1 4465  17.819   4.789  10.029  0.0362 -0.0075  0.0245
  280loPI    C2 4466  17.726   4.541  10.329 -0.3214  0.0081 -0.0695
  280loPI    C3 4467  17.798   4.927  10.404  0.1072 -0.0919  0.0601
  280loPI   PO4 4468  17.686   4.720   9.850 -0.2986 -0.2996 -0.0459
  280loPI   GL1 4469  17.646   4.861   9.401  0.0515  0.1837 -0.3423
  280loPI   GL2 4470  17.566   4.606   9.277  0.1590  0.0186  0.0089
  280loPI   C1A 4471  17.555   4.894   8.906  0.3350 -0.2986  0.0725
  280loPI   C2A 4472  17.506   4.973   8.492  0.1451 -0.3205  0.2488
  280loPI   C3A 4473  17.563   5.032   8.016  0.0684  0.0273 -0.3059
  280loPI   C4A 4474  17.515   5.240   7.686  0.3475 -0.2084  0.3173
  280loPI   C5A 4475  17.565   5.733   7.610 -0.2163  0.1169 -0.0740
  280loPI   C6A 4476  17.451   5.995   7.284  0.1643 -0.2233 -0.0472
  280loPI   C1B 4477  17.827   4.434   8.972  0.1629  0.2160 -0.0375
  280loPI   C2B 4478  18.051   4.244   8.684  0.2289 -0.2091  0.1906
  280loPI   C3B 4479  18.107   4.155   8.210 -0.0593  0.2583  0.0321
  280loPI   C4B 4480  18.249   4.404   7.909 -0.1727 -0.1019 -0.0303
  281loPI    C1 4481   1.314  16.769   9.926 -0.1401  0.0741  0.1665
  281loPI    C2 4482   1.708  16.764   9.995 -0.0378  0.3566 -0.3437
  281loPI    C3 4483   1.461  16.935  10.259  0.1648  0.0957  0.0247
  281loPI   PO4 4484   1.236  16.847   9.659  0.0393  0.1016 -0.1262
  281loPI   GL1 4485   1.285  16.673   9.282 -0.1080 -0.1081  0.1402
  281loPI   GL2 4486   1.458  16.624   8.928 -0.0096 -0.0912 -0.0673
  281loPI   C1A 4487   0.954  16.680   8.929  0.2542 -0.1199 -0.0902
  281loPI   C2A 4488   0.524  16.626   8.781 -0.0528 -0.0734 -0.1986
  281loPI   C3A 4489   0.445  16.913   8.550  0.0512  0.1386 -0.1430
  281loPI   C4A 4490   0.562  17.390   8.378 -0.0340  0.1199 -0.2205
  281loPI   C5A 4491   0.435  17.756   8.114 -0.0116 -0.0691  0.0022
  281loPI   C6A 4492   0.283  18.104   7.958 -0.3515  0.0750 -0.0929
  281loPI   C1B 4493   1.481  16.777   8.509  0.1394  0.3509  0.2122
  281loPI   C2B 4494   1.226  16.753   8.116  0.3168  0.1872  0.0584
  281loPI   C3B 4495   0.927  16.881   7.712 -0.0059  0.0899  0.3379
  281loPI   C4B 4496   0.902  16.636   7.317  0.2590  0.3537  0.1282
  282loPI    C1 4497   6.528  13.654   9.961  0.1956  0.0851  0.2935
  282loPI    C2 4498   6.534  13.349   9.702 -0.0532  0.3060  0.0206
  282loPI    C3 4499   6.433  13.285  10.083  0.0412  0.0241  0.0002
  282loPI   PO4 4500   6.548  13.826   9.767  0.0700 -0.1672 -0.1016
  282loPI   GL1 4501   6.308  13.721   9.383 -0.0795  0.0758  0.0763
  282loPI   GL2 4502   6.153  13.588   9.313 -0.2898  0.2483 -0.1297
  282loPI   C1A 4503   6.497  13.440   8.996 -0.1565 -0.0583  0.1025
  282loPI   C2A 4504   6.793  13.341   8.736  0.1796  0.0973 -0.1825
  282loPI   C3A 4505   7.063  13.655   8.549 -0.0007 -0.0932 -0.2114
  282loPI   C4A 4506   6.824  13.900   8.075  0.0195  0.1053 -0.4024
  282loPI   C5A 4507   6.886  14.130   7.736 -0.6091  0.0220 -0.0261
  282loPI   C6A 4508   7.301  14.242   7.644  0.2311  0.0179 -0.1639
  282loPI   C1B 4509   6.088  13.809   8.888  0.0035 -0.1862  0.0717
  282loPI   C2B 4510   6.061  13.743   8.481  0.2679 -0.1560 -0.0589
  282loPI   C3B 4511   6.098  13.546   8.020  0.2459  0.0061 -0.0291
  282loPI   C4B 4512   6.134  13.331   7.540  0.1185 -0.0994 -0.1434
  283loPI    C1 4513  13.673   1.188   9.810  0.0358  0.1021  0.0023
  283loPI    C2 4514  13.391   1.038  10.050  0.1399 -0.1844 -0.0510
  283loPI    C3 4515  13.724   1.196  10.207 -0.1403  0.3555  0.0222
  283loPI   PO4 4516  13.625   1.051   9.597 -0.3042  0.2336 -0.1062
  283loPI   GL1 4517  13.754   1.114   9.141  0.1520 -0.2550  0.1008
  283loPI   GL2 4518  13.468   0.837   9.166  0.0425 -0.1706  0.1019
  283loPI   C1A 4519  13.654   1.069   8.678 -0.2823 -0.2942 -0.0161
  283loPI   C2A 4520  13.625   1.095   8.158  0.1656  0.0881  0.3517
  283loPI   C3A 4521  13.510   1.148   7.733 -0.0479 -0.1431 -0.0167
  283loPI   C4A 4522  13.618   1.242   7.353 -0.2218  0.2830 -0.3662
  283loPI   C5A 4523  13.894   0.896   7.282 -0.2231 -0.0062 -0.0804
  283loPI   C6A 4524  13.828   0.569   7.602 -0.0135 -0.1737  0.1036
  283loPI   C1B 4525  13.342   0.577   8.747 -0.1976  0.0723 -0.0099
  283loPI   C2B 4526  13.200   0.318   8.347  0.0699 -0.1536  0.3681
  283loPI   C3B 4527  13.240   0.169   7.954 -0.0949 -0.2302 -0.0994
  283loPI   C4B 4528  13.188   0.113   7.448  0.0444 -0.0340 -0.0691
  284loPI    C1 4529   8.412   7.017   9.274 -0.1147  0.0454 -0.1325
  284loPI    C2 4530   8.537   7.224   9.593 -0.0249 -0.0189 -0.1259
  284loPI    C3 4531   8.231   6.969   9.628  0.1704 -0.2432 -0.0209
  284loPI   PO4 4532   8.306   7.157   9.072 -0.0969  0.1699  0.1456
  284loPI   GL1 4533   8.269   7.141   8.682 -0.0881 -0.1414  0.1100
  284loPI   GL2 4534   8.089   6.931   8.411  0.0599 -0.1214  0.0355
  284loPI   C1A 4535   8.490   7.266   8.371 -0.1189  0.1501  0.0277
  284loPI   C2A 4536   8.551   7.479   7.932 -0.1428 -0.1086 -0.2560
  284loPI   C3A 4537   8.414   7.411   7.547  0.0473 -0.0530 -0.0439
  284loPI   C4A 4538   8.211   7.417   7.213 -0.0416  0.0461 -0.3496
  284loPI   C5A 4539   8.241   7.428   6.758 -0.0057  0.0112 -0.1055
  284loPI   C6A 4540   8.227   7.305   6.414 -0.0662 -0.1157  0.0821
  284loPI   C1B 4541   8.154   6.897   7.961 -0.0987 -0.3164 -0.1982
  284loPI   C2B 4542   8.121   6.944   7.511 -0.2316  0.2105 -0.2834
  284loPI   C3B 4543   7.741   6.956   7.266 -0.2149 -0.0796  0.5547
  284loPI   C4B 4544   7.468   6.771   7.039  0.2566 -0.0516 -0.0844
  285loPI    C1 4545  18.908  16.737  10.088  0.0108 -0.1578  0.0554
  285loPI    C2 4546  19.229  16.576  10.265  0.1599  0.1658  0.0861
  285loPI    C3 4547  18.909  16.676  10.483  0.0247 -0.1782  0.0522
  285loPI   PO4 4548  18.961  16.686   9.844  0.2278  0.4390  0.0308
  285loPI   GL1 4549  18.550  16.640   9.534  0.0790 -0.1602 -0.0603
  285loPI   GL2 4550  18.595  16.491   9.261  0.1051 -0.1246  0.0487
  285loPI   C1A 4551  18.506  16.975   9.255 -0.1505  0.2295 -0.0199
  285loPI   C2A 4552  18.621  16.752   8.829  0.0666 -0.0039  0.2049
  285loPI   C3A 4553  18.519  16.855   8.498 -0.1021 -0.2812 -0.0541
  285loPI   C4A 4554  18.317  16.895   8.088 -0.0685 -0.0184  0.0370
  285loPI   C5A 4555  18.196  16.882   7.708 -0.1983  0.1206 -0.1559
  285loPI   C6A 4556  18.307  16.684   7.290  0.0506  0.2828  0.2344
  285loPI   C1B 4557  18.360  16.306   9.053  0.2213 -0.2791  0.0792
  285loPI   C2B 4558  18.371  16.316   8.607 -0.0469 -0.1095 -0.2521
  285loPI   C3B 4559  18.302  16.389   8.246  0.0308  0.3573 -0.0674
  285loPI   C4B 4560  17.976  16.256   7.845 -0.0907  0.1054 -0.1308
  286loPI    C1 4561   3.174   6.353   9.398  0.0529  0.1409  0.0735
  286loPI    C2 4562   2.831   6.421   9.205  0.0686  0.1683  0.0552
  286loPI    C3 4563   2.854   6.483   9.599 -0.0199 -0.0769  0.1010
  286loPI   PO4 4564   3.428   6.468   9.402  0.1736 -0.1430 -0.0465
  286loPI   GL1 4565   3.627   6.359   8.987 -0.1045  0.3287 -0.0384
  286loPI   GL2 4566   3.395   6.272   8.721 -0.0317 -0.0665  0.0860
  286loPI   C1A 4567   3.968   6.627   8.781 -0.1295 -0.0983 -0.1145
  286loPI   C2A 4568   4.244   6.872   8.530  0.1389  0.1187 -0.1776
  286loPI   C3A 4569   4.170   6.742   8.133  0.0160 -0.1373 -0.1438
  286loPI   C4A 4570   3.977   6.754   7.803 -0.3539 -0.1718  0.1798
  286loPI   C5A 4571   3.814   6.705   7.423 -0.0582  0.0306 -0.1134
  286loPI   C6A 4572   3.798   6.633   6.968 -0.1187 -0.0099  0.0414
  286loPI   C1B 4573   3.194   6.344   8.277  0.2437  0.1950  0.0938
  286loPI   C2B 4574   2.971   6.388   7.876  0.5576  0.4519 -0.1340
  286loPI   C3B 4575   2.882   6.635   7.540  0.1384  0.0170  0.0081
  286loPI   C4B 4576   2.722   6.935   7.208  0.1092 -0.0266  0.0865
  287loPI    C1 4577   4.369   0.998   9.876 -0.0296  0.0108  0.1271
  287loPI    C2 4578   4.747   1.043   9.998  0.0349  0.1654 -0.1227
  287loPI    C3 4579   4.496   0.811  10.206  0.2871  0.0002  0.0024
  287loPI   PO4 4580   4.257   1.058   9.541 -0.2535 -0.2077  0.4155
  287loPI   GL1 4581   4.320   1.096   9.227 -0.1921 -0.0621  0.2071
  287loPI   GL2 4582   4.587   0.962   9.017  0.0340  0.0348  0.1861
  287loPI   C1A 4583   3.990   1.275   8.884  0.1728  0.2133 -0.1341
  287loPI   C2A 4584   3.915   1.237   8.494 -0.0791 -0.0806  0.3784
  287loPI   C3A 4585   4.198   1.361   8.159  0.0139 -0.1025 -0.0558
  287loPI   C4A 4586   4.417   1.228   7.855  0.2078  0.3040  0.1085
  287loPI   C5A 4587   4.374   1.025   7.515  0.0458  0.1836  0.2155
  287loPI   C6A 4588   4.568   0.581   7.581 -0.1868  0.2504 -0.3137
  287loPI   C1B 4589   4.238   0.812   8.718 -0.2303  0.0337  0.1908
  287loPI   C2B 4590   4.187   0.847   8.245 -0.1601 -0.2401 -0.1967
  287loPI   C3B 4591   4.081   0.815   7.911 -0.1428 -0.1069  0.1957
  287loPI   C4B 4592   3.914   1.170   7.670 -0.0574  0.2729 -0.0369
  288loPI    C1 4593  14.033   3.269   9.849  0.1011  0.1362 -0.0615
  288loPI    C2 4594  14.172   3.075  10.170  0.1109 -0.0484 -0.1756
  288loPI    C3 4595  13.939   3.397  10.216  0.0422 -0.1236  0.0166
  288loPI   PO4 4596  14.272   3.211   9.702 -0.1554  0.2351 -0.0013
  288loPI   GL1 4597  14.383   3.145   9.332 -0.1592 -0.1533  0.3566
  288loPI   GL2 4598  14.499   2.868   9.205  0.2281  0.3914  0.1510
  288loPI   C1A 4599  14.448   3.363   8.911 -0.1831  0.0126 -0.1691
  288loPI   C2A 4600  14.443   3.391   8.491 -0.0850  0.0266  0.2125
  288loPI   C3A 4601  14.365   3.486   8.082  0.0621  0.2058  0.1926
  288loPI   C4A 4602  14.158   3.350   7.799  0.0718  0.1745 -0.0243
  288loPI   C5A 4603  14.056   3.097   7.410 -0.0678 -0.3343 -0.1046
  288loPI   C6A 4604  13.858   2.950   6.964 -0.1876  0.1611  0.0193
  288loPI   C1B 4605  14.712   2.870   8.767 -0.0758  0.2706 -0.2726
  288loPI   C2B 4606  14.684   2.831   8.332 -0.1744  0.1060  0.1677
  288loPI   C3B 4607  14.777   2.696   7.977  0.0580 -0.2070 -0.0380
  288loPI   C4B 4608  14.970   2.611   7.534 -0.0930 -0.0331 -0.0066
  289loPI    C1 4609   8.633  17.327  10.222 -0.1175 -0.0842  0.0914
  289loPI    C2 4610   8.942  17.520  10.388 -0.0639 -0.0627 -0.0322
  289loPI    C3 4611   8.606  17.718  10.300 -0.0081 -0.0241 -0.1609
  289loPI   PO4 4612   8.686  17.185  10.065  0.0240 -0.1539 -0.0074
  289loPI   GL1 4613   8.770  17.100   9.696  0.0366 -0.0664 -0.1422
  289loPI   GL2 4614   8.997  17.118   9.535  0.1197  0.1678  0.1239
  289loPI   C1A 4615   8.706  16.743   9.369  0.1642  0.0511  0.3501
  289loPI   C2A 4616   8.833  16.713   8.969 -0.1124  0.0669 -0.0696
  289loPI   C3A 4617   9.260  16.694   8.576 -0.1393  0.1178  0.4198
  289loPI   C4A 4618   9.506  16.489   8.379  0.0787  0.3042 -0.1038
  289loPI   C5A 4619   9.626  16.314   8.016 -0.1995 -0.2041 -0.3348
  289loPI   C6A 4620   9.814  16.038   8.007  0.1127 -0.2891  0.1760
  289loPI   C1B 4621   9.249  17.036   9.127 -0.1246 -0.1422  0.4088
  289loPI   C2B 4622   9.535  17.035   8.807  0.1133  0.1856 -0.3843
  289loPI   C3B 4623   9.700  16.969   8.435  0.3451  0.2303  0.0009
  289loPI   C4B 4624   9.640  16.927   8.023 -0.1546  0.0911  0.2617
  290loPI    C1 4625   4.787  12.768  10.638 -0.1319  0.1452  0.2420
  290loPI    C2 4626   4.612  12.424  10.532  0.0359  0.1775 -0.1557
  290loPI    C3 4627   4.584  12.555  10.909 -0.1113 -0.2211 -0.0235
  290loPI   PO4 4628   4.680  12.901  10.380  0.1672  0.0880  0.0239
  290loPI   GL1 4629   4.707  12.746   9.986  0.0400 -0.0151 -0.0028
  290loPI   GL2 4630   4.469  12.391   9.869 -0.2155 -0.2629  0.0559
  290loPI   C1A 4631   4.758  12.540   9.547 -0.0882  0.1512  0.0483
  290loPI   C2A 4632   4.675  12.704   9.140 -0.1531 -0.1912 -0.0167
  290loPI   C3A 4633   4.724  12.713   8.784  0.0744 -0.4169 -0.0042
  290loPI   C4A 4634   4.715  12.543   8.390  0.2391  0.0278  0.2641
  290loPI   C5A 4635   4.759  12.223   8.002 -0.1075  0.0607  0.0253
  290loPI   C6A 4636   4.642  12.123   7.660 -0.3249  0.2184 -0.0022
  290loPI   C1B 4637   4.227  12.470   9.420 -0.3055  0.3591  0.0586
  290loPI   C2B 4638   4.142  12.852   9.098  0.2097  0.0028  0.0242
  290loPI   C3B 4639   4.052  13.108   8.794  0.0911 -0.1462 -0.2673
  290loPI   C4B 4640   4.138  13.474   8.528 -0.2593  0.1786 -0.2837
  291loPI    C1 4641  11.247   5.472   9.963  0.0752  0.3512  0.0031
  291loPI    C2 4642  11.214   5.233  10.282  0.0802  0.2012 -0.1082
  291loPI    C3 4643  11.574   5.366  10.169  0.0704  0.3138 -0.0086
  291loPI   PO4 4644  11.149   5.400   9.784  0.2147 -0.3067 -0.1519
  291loPI   GL1 4645  11.168   5.421   9.331  0.1966  0.2599 -0.0868
  291loPI   GL2 4646  11.153   5.089   9.410 -0.1422 -0.2746  0.1686
  291loPI   C1A 4647  11.386   5.468   8.840 -0.0767  0.2102  0.3265
  291loPI   C2A 4648  11.383   5.387   8.375  0.0010 -0.0579 -0.1603
  291loPI   C3A 4649  11.558   5.509   7.946 -0.0770  0.0490 -0.3538
  291loPI   C4A 4650  11.509   5.503   7.569  0.0685 -0.0279  0.3389
  291loPI   C5A 4651  11.601   5.550   7.176 -0.1517  0.0394  0.0721
  291loPI   C6A 4652  11.486   5.319   6.801  0.0262  0.2403 -0.3116
  291loPI   C1B 4653  11.398   4.774   9.280  0.1869  0.2120  0.0928
  291loPI   C2B 4654  11.452   4.410   8.995  0.2252 -0.2138  0.0419
  291loPI   C3B 4655  11.651   4.332   8.642  0.1809 -0.2077 -0.0708
  291loPI   C4B 4656  11.705   4.455   8.222  0.2203 -0.1719 -0.1655
  292loPI    C1 4657  13.346  15.849  10.518 -0.2061 -0.1146 -0.0964
  292loPI    C2 4658  13.141  15.591  10.744 -0.0780 -0.1862 -0.0607
  292loPI    C3 4659  13.067  15.984  10.771 -0.1773 -0.2076 -0.0148
  292loPI   PO4 4660  13.314  15.835  10.220  0.0390  0.1462 -0.0272
  292loPI   GL1 4661  13.358  15.872   9.727  0.1632 -0.1941  0.3329
  292loPI   GL2 4662  13.606  15.950   9.604  0.1181 -0.0689  0.1891
  292loPI   C1A 4663  13.119  16.071   9.424 -0.0617 -0.1545  0.1843
  292loPI   C2A 4664  13.184  16.331   9.178  0.2129  0.1074  0.0947
  292loPI   C3A 4665  13.114  16.141   8.774  0.1691  0.1291  0.0509
  292loPI   C4A 4666  13.108  16.103   8.318  0.0756  0.0395 -0.2898
  292loPI   C5A 4667  12.941  15.791   8.076  0.1466 -0.1621  0.1131
  292loPI   C6A 4668  12.664  15.679   7.876 -0.0368  0.0074  0.0041
  292loPI   C1B 4669  13.663  16.025   9.110 -0.0283 -0.2485 -0.1711
  292loPI   C2B 4670  13.611  15.997   8.617  0.0042 -0.0804  0.0083
  292loPI   C3B 4671  13.507  15.844   8.253  0.1800 -0.1345 -0.1059
  292loPI   C4B 4672  13.483  15.766   7.854  0.0580  0.1158  0.2481
  293loPI    C1 4673   9.103  16.851  10.016  0.0248  0.1660  0.0683
  293loPI    C2 4674   9.231  17.033  10.348  0.0418  0.0960  0.1002
  293loPI    C3 4675   8.910  16.794  10.362 -0.0537  0.2192  0.0336
  293loPI   PO4 4676   9.339  16.700   9.954  0.3388 -0.4078 -0.3126
  293loPI   GL1 4677   9.513  16.500   9.631 -0.1042  0.5629 -0.2902
  293loPI   GL2 4678   9.167  16.621   9.463  0.0605 -0.1446  0.2607
  293loPI   C1A 4679   9.643  16.758   9.208  0.3343 -0.4156 -0.0404
  293loPI   C2A 4680   9.772  16.577   8.760 -0.1654  0.1647 -0.5141
  293loPI   C3A 4681  10.005  16.526   8.387 -0.1342  0.2204  0.0017
  293loPI   C4A 4682  10.063  16.470   7.942 -0.0600 -0.4147  0.0021
  293loPI   C5A 4683  10.403  16.371   7.695  0.2978  0.1008  0.0267
  293loPI   C6A 4684  10.677  15.968   7.550 -0.2494  0.0250 -0.2013
  293loPI   C1B 4685   9.269  16.510   9.059 -0.0678 -0.0691  0.1045
  293loPI   C2B 4686   9.368  16.213   8.807  0.1963  0.1403  0.0945
  293loPI   C3B 4687   9.597  15.985   8.465  0.1100  0.0283  0.0333
  293loPI   C4B 4688   9.643  15.620   8.186 -0.1344  0.1361 -0.2477
  294loPI    C1 4689   9.801   9.448   9.559 -0.4390 -0.0522 -0.2336
  294loPI    C2 4690   9.645   9.564   9.908  0.0752  0.1730 -0.0692
  294loPI    C3 4691   9.626   9.180   9.798  0.1330  0.0524  0.3272
  294loPI   PO4 4692   9.676   9.738   9.437 -0.3475 -0.1623 -0.0249
  294loPI   GL1 4693   9.624   9.846   8.987  0.1091  0.0917 -0.0140
  294loPI   GL2 4694   9.455  10.094   8.932  0.2837  0.0324  0.1008
  294loPI   C1A 4695   9.794   9.912   8.517  0.0905  0.0718  0.1479
  294loPI   C2A 4696   9.723  10.026   8.075 -0.0521  0.1812  0.1154
  294loPI   C3A 4697   9.619  10.284   7.727  0.0261  0.2909 -0.1237
  294loPI   C4A 4698   9.651  10.401   7.260  0.0017  0.0726 -0.1024
  294loPI   C5A 4699   9.559  10.735   6.946 -0.1396  0.0460 -0.0331
  294loPI   C6A 4700   9.820  10.995   6.825 -0.2827 -0.2280  0.1401
  294loPI   C1B 4701   9.413  10.292   8.564  0.3337  0.1131  0.0346
  294loPI   C2B 4702   9.331  10.413   8.180 -0.1017 -0.1507 -0.0798
  294loPI   C3B 4703   9.347  10.799   8.051 -0.4324 -0.2518 -0.1897
  294loPI   C4B 4704   9.072  11.079   8.188 -0.2540 -0.1544  0.0558
  295loPI    C1 4705   4.779  11.134  10.100 -0.1097  0.1505  0.0021
  295loPI    C2 4706   4.473  11.114  10.357  0.0502  0.0124  0.1850
  295loPI    C3 4707   4.700  10.791  10.290  0.0732  0.0759 -0.0542
  295loPI   PO4 4708   4.633  11.190   9.883  0.1145  0.0426  0.0800
  295loPI   GL1 4709   4.421  11.358   9.620  0.3386  0.1262  0.3246
  295loPI   GL2 4710   4.643  11.573   9.563  0.0453  0.1447  0.0693
  295loPI   C1A 4711   4.350  11.217   9.136 -0.1310 -0.0649  0.2642
  295loPI   C2A 4712   4.227  11.032   8.656 -0.2153  0.0089 -0.1126
  295loPI   C3A 4713   4.139  10.889   8.276  0.3773  0.1584  0.1530
  295loPI   C4A 4714   4.400  10.822   7.862  0.0693 -0.0281 -0.0438
  295loPI   C5A 4715   4.516  11.110   7.585 -0.0854  0.1487  0.2529
  295loPI   C6A 4716   4.509  11.601   7.511  0.4302  0.0902  0.0885
  295loPI   C1B 4717   4.461  11.783   9.103  0.2554  0.0026 -0.0739
  295loPI   C2B 4718   4.534  11.869   8.763  0.1363 -0.1597  0.0258
  295loPI   C3B 4719   4.439  12.122   8.421  0.2118 -0.3061  0.3610
  295loPI   C4B 4720   4.125  12.318   8.263  0.0573  0.2281  0.0230
  296loPI    C1 4721   5.600   2.514   9.328 -0.1347 -0.2597  0.0211
  296loPI    C2 4722   5.689   2.152   9.184  0.0548 -0.1753 -0.0773
  296loPI    C3 4723   5.933   2.328   9.447  0.0487 -0.0492 -0.1555
  296loPI   PO4 4724   5.564   2.686   9.093 -0.0649  0.0507 -0.1285
  296loPI   GL1 4725   5.646   3.079   8.776 -0.0620 -0.2104 -0.3003
  296loPI   GL2 4726   5.845   2.847   8.717 -0.3629  0.1749 -0.0216
  296loPI   C1A 4727   5.658   3.410   8.546 -0.0434 -0.0578 -0.0672
  296loPI   C2A 4728   5.364   3.532   8.234  0.0313 -0.2538 -0.1178
  296loPI   C3A 4729   5.112   3.598   7.904  0.0073 -0.2482 -0.0251
  296loPI   C4A 4730   4.933   3.434   7.464  0.2082 -0.1216 -0.2846
  296loPI   C5A 4731   5.190   3.264   7.126 -0.0358  0.0454  0.0685
  296loPI   C6A 4732   5.102   3.117   6.674 -0.0525 -0.0154 -0.1110
  296loPI   C1B 4733   5.595   2.996   8.337 -0.1445 -0.2671  0.0414
  296loPI   C2B 4734   5.459   2.722   7.960 -0.4012 -0.1247  0.2517
  296loPI   C3B 4735   5.347   2.558   7.566  0.2197  0.0069 -0.2756
  296loPI   C4B 4736   5.165   2.218   7.541  0.0301  0.2109  0.0622
  297loPI    C1 4737   8.974   1.216   9.021  0.0179  0.1447 -0.1710
  297loPI    C2 4738   8.964   1.132   9.412 -0.0866  0.0715 -0.1890
  297loPI    C3 4739   8.673   1.351   9.247 -0.1182 -0.0182 -0.2530
  297loPI   PO4 4740   9.240   1.326   9.034  0.0157  0.0907  0.1470
  297loPI   GL1 4741   9.582   1.188   8.876 -0.0562  0.1773 -0.2522
  297loPI   GL2 4742   9.441   1.158   8.587  0.1362 -0.3159  0.1666
  297loPI   C1A 4743   9.855   0.882   8.662  0.0786  0.0644 -0.2384
  297loPI   C2A 4744  10.217   0.994   8.431  0.1224  0.0435 -0.0404
  297loPI   C3A 4745  10.380   0.877   8.005  0.2938 -0.0761 -0.1431
  297loPI   C4A 4746  10.543   0.781   7.735 -0.0937  0.0526 -0.0646
  297loPI   C5A 4747  10.793   0.759   7.429  0.0367 -0.1994  0.0990
  297loPI   C6A 4748  11.108   0.417   7.600 -0.1240  0.0579  0.1120
  297loPI   C1B 4749   9.467   1.521   8.149  0.1042  0.0037 -0.1495
  297loPI   C2B 4750   9.348   1.838   7.867 -0.3929 -0.2354  0.1260
  297loPI   C3B 4751   9.207   2.327   7.668 -0.3387  0.1099 -0.2343
  297loPI   C4B 4752   9.160   2.441   7.211  0.2613  0.1091  0.0501
  298loPI    C1 4753   0.012   5.638  10.196 -0.1120  0.0619 -0.0862
  298loPI    C2 4754  -0.260   5.390  10.350  0.1148 -0.1165  0.0336
  298loPI    C3 4755   0.097   5.428  10.525  0.1988  0.0509 -0.1702
  298loPI   PO4 4756  -0.116   5.829  10.118 -0.1187  0.1478 -0.2794
  298loPI   GL1 4757  -0.153   5.766   9.624  0.0003  0.1940 -0.1801
  298loPI   GL2 4758  -0.181   6.047   9.431  0.1158  0.3803 -0.2101
  298loPI   C1A 4759   0.021   5.722   9.127  0.0527 -0.0078 -0.5148
  298loPI   C2A 4760   0.057   5.577   8.675 -0.0251 -0.1436  0.1352
  298loPI   C3A 4761  -0.140   5.601   8.260  0.1300 -0.1172 -0.0078
  298loPI   C4A 4762  -0.085   5.731   7.816 -0.0869 -0.1221  0.1372
  298loPI   C5A 4763   0.227   5.853   7.493 -0.0626 -0.0508 -0.0445
  298loPI   C6A 4764   0.160   6.141   7.226  0.3025 -0.1239 -0.1910
  298loPI   C1B 4765  -0.151   6.207   9.039 -0.2738  0.1038  0.1597
  298loPI   C2B 4766  -0.189   5.989   8.610 -0.1090 -0.0814 -0.0864
  298loPI   C3B 4767  -0.514   5.962   8.315 -0.0679  0.1279 -0.1110
  298loPI   C4B 4768  -0.557   5.660   7.975 -0.3739  0.3024  0.2678
  299loPI    C1 4769  15.384   0.240   9.879  0.1191 -0.0975 -0.0780
  299loPI    C2 4770  15.218   0.281  10.240  0.1676  0.1337 -0.0804
  299loPI    C3 4771  15.510   0.013  10.183  0.0083 -0.0584 -0.0025
  299loPI   PO4 4772  15.362   0.437   9.748 -0.0344  0.1666 -0.1006
  299loPI   GL1 4773  15.422   0.384   9.381  0.2542 -0.1556  0.2081
  299loPI   GL2 4774  15.705   0.356   9.384 -0.2041 -0.3237  0.0594
  299loPI   C1A 4775  15.585   0.290   8.936  0.2584  0.2273  0.0854
  299loPI   C2A 4776  15.530   0.395   8.475 -0.1600  0.0521 -0.1404
  299loPI   C3A 4777  15.515   0.424   8.047  0.0069  0.0786  0.0900
  299loPI   C4A 4778  15.583   0.524   7.615 -0.2664  0.3639  0.0939
  299loPI   C5A 4779  15.852   0.591   7.305  0.0282  0.2698  0.1223
  299loPI   C6A 4780  15.734   0.490   6.793 -0.0026  0.0863  0.1969
  299loPI   C1B 4781  16.064   0.251   8.936  0.0235 -0.0066 -0.1157
  299loPI   C2B 4782  16.000   0.279   8.516 -0.2863  0.1713 -0.3928
  299loPI   C3B 4783  16.019   0.220   8.025  0.2482  0.1660  0.3289
  299loPI   C4B 4784  15.834   0.096   7.649 -0.2632  0.1760 -0.1763
  300loPI    C1 4785  12.735  13.442  10.359  0.0217 -0.1741 -0.1152
  300loPI    C2 4786  13.021  13.166  10.399  0.1166 -0.0701 -0.0718
  300loPI    C3 4787  12.898  13.375  10.718  0.2810  0.1704 -0.1633
  300loPI   PO4 4788  12.464  13.311  10.236  0.0442 -0.1310  0.2171
  300loPI   GL1 4789  12.342  13.343   9.786  0.1784  0.0366 -0.1328
  300loPI   GL2 4790  12.545  13.261   9.510 -0.1719  0.1670  0.2474
  300loPI   C1A 4791  12.090  13.566   9.507 -0.1256 -0.0213  0.1989
  300loPI   C2A 4792  11.901  13.567   9.159  0.1075 -0.0072 -0.1807
  300loPI   C3A 4793  11.880  13.507   8.689 -0.1307 -0.4542 -0.0039
  300loPI   C4A 4794  11.931  13.264   8.277  0.2913  0.1268 -0.1376
  300loPI   C5A 4795  12.146  13.062   7.985  0.2349 -0.0940 -0.0712
  300loPI   C6A 4796  12.274  12.821   7.689 -0.1554  0.1314 -0.1023
  300loPI   C1B 4797  12.404  12.935   9.242  0.1847  0.3804 -0.0169
  300loPI   C2B 4798  12.429  12.852   8.797 -0.3311 -0.0769 -0.0779
  300loPI   C3B 4799  12.323  12.754   8.369  0.2067 -0.2573 -0.3070
  300loPI   C4B 4800  12.321  12.489   8.039  0.0057 -0.3275 -0.1995
  301loPI    C1 4801  16.937   2.669  10.018  0.1589  0.2343  0.1074
  301loPI    C2 4802  17.019   2.921  10.317  0.0460  0.0154  0.3270
  301loPI    C3 4803  17.045   2.526  10.376  0.3221 -0.0268 -0.0426
  301loPI   PO4 4804  16.754   2.719   9.833 -0.0165 -0.1516  0.2159
  301loPI   GL1 4805  16.690   2.664   9.452  0.0262  0.0933  0.3526
  301loPI   GL2 4806  16.859   3.004   9.355  0.3511  0.3450 -0.2635
  301loPI   C1A 4807  16.603   2.505   9.134  0.1007 -0.1737 -0.1166
  301loPI   C2A 4808  16.792   2.191   9.036  0.3192  0.1039 -0.0010
  301loPI   C3A 4809  17.132   1.886   8.894  0.3507 -0.4283 -0.1204
  301loPI   C4A 4810  17.212   1.722   8.599  0.2294  0.2880 -0.1873
  301loPI   C5A 4811  17.097   1.608   8.215 -0.0294  0.0913  0.1243
  301loPI   C6A 4812  16.982   1.880   7.919 -0.0271 -0.0575 -0.3324
  301loPI   C1B 4813  16.579   3.026   8.984  0.1379 -0.0568  0.1931
  301loPI   C2B 4814  16.507   2.941   8.601  0.3587 -0.1172 -0.0905
  301loPI   C3B 4815  16.448   2.816   8.216  0.1829  0.1403 -0.2829
  301loPI   C4B 4816  16.379   2.644   7.780 -0.1413  0.0147 -0.1688
  302loPI    C1 4817   5.895  14.832  10.128  0.0044  0.2725  0.0748
  302loPI    C2 4818   5.598  15.099  10.153 -0.3881 -0.1617  0.1906
  302loPI    C3 4819   5.665  14.846  10.455 -0.0117 -0.1899  0.0887
  302loPI   PO4 4820   6.022  14.977   9.790 -0.2741  0.1381  0.1309
  302loPI   GL1 4821   6.145  15.084   9.319  0.0591 -0.1903  0.1248
  302loPI   GL2 4822   5.919  14.811   9.231  0.2288  0.1131  0.4705
  302loPI   C1A 4823   6.520  15.230   9.054  0.3743  0.2689  0.0206
  302loPI   C2A 4824   6.555  15.198   8.626  0.1163 -0.0704 -0.0915
  302loPI   C3A 4825   6.569  15.351   8.218  0.0967  0.0523  0.2416
  302loPI   C4A 4826   6.693  15.465   7.846  0.1548 -0.2484 -0.0590
  302loPI   C5A 4827   6.633  15.521   7.471 -0.3953 -0.0009  0.0528
  302loPI   C6A 4828   6.575  15.428   7.012 -0.0384 -0.1024 -0.0406
  302loPI   C1B 4829   5.735  14.552   8.931  0.0369 -0.0610 -0.1367
  302loPI   C2B 4830   5.886  14.558   8.500  0.0569 -0.1874 -0.1856
  302loPI   C3B 4831   6.044  14.597   8.139 -0.0715 -0.0594  0.1476
  302loPI   C4B 4832   5.937  14.667   7.763  0.0605 -0.0176 -0.0937
  303loPI    C1 4833   8.316   2.944   9.025  0.2479 -0.0449 -0.1590
  303loPI    C2 4834   8.703   2.995   9.111  0.1594 -0.1285  0.3137
  303loPI    C3 4835   8.425   3.063   9.391 -0.1870  0.1532 -0.0867
  303loPI   PO4 4836   8.234   3.049   8.661 -0.2004 -0.1347  0.1446
  303loPI   GL1 4837   7.954   3.135   8.382  0.3448  0.1149 -0.0193
  303loPI   GL2 4838   7.680   2.929   8.401  0.3843  0.2776  0.1268
  303loPI   C1A 4839   8.092   3.176   7.892 -0.0812  0.0258  0.1998
  303loPI   C2A 4840   8.401   2.955   7.586  0.2842  0.1101  0.0793
  303loPI   C3A 4841   8.553   3.033   7.254  0.1072  0.0985  0.3115
  303loPI   C4A 4842   8.885   3.333   7.032 -0.1781 -0.1901  0.3720
  303loPI   C5A 4843   9.139   3.616   6.805 -0.2713 -0.2009 -0.1922
  303loPI   C6A 4844   9.125   3.778   6.449 -0.2279  0.1802  0.0208
  303loPI   C1B 4845   7.649   3.047   7.961  0.1125  0.0074  0.0762
  303loPI   C2B 4846   7.599   3.073   7.603  0.1300  0.1953  0.0384
  303loPI   C3B 4847   7.379   2.903   7.315 -0.0887  0.0055 -0.0556
  303loPI   C4B 4848   6.958   3.051   7.144  0.2676  0.0667  0.1203
  304loPI    C1 4849  15.545  12.929   9.988  0.1249  0.0532 -0.1994
  304loPI    C2 4850  15.874  13.030  10.192  0.1798  0.1513 -0.3351
  304loPI    C3 4851  15.751  12.649  10.188  0.0699  0.1785  0.0362
  304loPI   PO4 4852  15.563  13.017   9.810 -0.2565  0.0425  0.0385
  304loPI   GL1 4853  15.516  13.005   9.385 -0.2911  0.2243 -0.0496
  304loPI   GL2 4854  15.859  12.968   9.360  0.1909  0.0614 -0.1087
  304loPI   C1A 4855  15.301  12.962   8.999  0.1253 -0.0397  0.3953
  304loPI   C2A 4856  15.301  13.126   8.639 -0.1093  0.3392  0.1357
  304loPI   C3A 4857  15.287  13.457   8.316 -0.2970  0.2545 -0.3593
  304loPI   C4A 4858  15.137  13.663   7.958  0.4152  0.1666  0.1057
  304loPI   C5A 4859  15.000  13.879   7.686 -0.0273  0.0249 -0.0263
  304loPI   C6A 4860  14.638  13.803   7.461  0.0263  0.1857 -0.1946
  304loPI   C1B 4861  15.803  13.003   8.902 -0.0258  0.1643  0.1257
  304loPI   C2B 4862  15.831  13.249   8.488  0.0468  0.1779  0.0904
  304loPI   C3B 4863  15.839  13.544   8.021  0.0906 -0.1335  0.0465
  304loPI   C4B 4864  16.150  13.756   7.797 -0.3050  0.0086  0.0819
  305loPI    C1 4865  16.139  18.967  10.052 -0.0514 -0.0808  0.1384
  305loPI    C2 4866  16.450  18.804  10.243  0.0217  0.0630  0.1436
  305loPI    C3 4867  16.080  18.762  10.390  0.0284 -0.1728  0.0971
  305loPI   PO4 4868  16.223  19.074   9.762 -0.3206 -0.2355  0.0183
  305loPI   GL1 4869  16.204  18.926   9.341 -0.2230 -0.1923  0.1798
  305loPI   GL2 4870  16.007  19.280   9.367 -0.1565  0.0536 -0.1741
  305loPI   C1A 4871  16.252  19.134   8.954  0.1333 -0.1687  0.0872
  305loPI   C2A 4872  16.189  19.199   8.510  0.1883 -0.0690  0.0450
  305loPI   C3A 4873  16.023  19.170   8.254  0.0376  0.1994 -0.3244
  305loPI   C4A 4874  15.933  19.046   7.862 -0.3036  0.3492  0.2398
  305loPI   C5A 4875  15.781  19.042   7.456 -0.0896 -0.0141  0.2499
  305loPI   C6A 4876  15.791  18.998   7.043 -0.2232 -0.1131 -0.1840
  305loPI   C1B 4877  15.757  19.179   9.112  0.3711 -0.3456  0.1887
  305loPI   C2B 4878  15.697  19.294   8.622 -0.0297 -0.1117 -0.2367
  305loPI   C3B 4879  15.529  19.299   8.120  0.0009  0.0174  0.0763
  305loPI   C4B 4880  15.300  19.146   7.682  0.2761 -0.2314 -0.1411
  306loPI    C1 4881  11.596  13.432  10.358 -0.0317  0.1356 -0.0421
  306loPI    C2 4882  11.614  13.207  10.688 -0.1224  0.2242  0.0238
  306loPI    C3 4883  11.951  13.329  10.510 -0.0713 -0.0510 -0.0730
  306loPI   PO4 4884  11.538  13.486  10.088 -0.3516 -0.2455  0.1629
  306loPI   GL1 4885  11.618  13.401   9.686  0.1418 -0.1891 -0.1884
  306loPI   GL2 4886  11.391  13.247   9.457 -0.2199 -0.2830 -0.0902
  306loPI   C1A 4887  11.425  13.777   9.276 -0.0426  0.1556 -0.2562
  306loPI   C2A 4888  11.491  13.743   8.822 -0.1319  0.2551  0.0498
  306loPI   C3A 4889  11.606  13.716   8.382  0.2271  0.2385 -0.2913
  306loPI   C4A 4890  11.800  13.975   8.089 -0.4350  0.0876 -0.1804
  306loPI   C5A 4891  11.995  13.920   7.694 -0.3310 -0.2499  0.0048
  306loPI   C6A 4892  12.101  13.933   7.333  0.2138 -0.1756 -0.0697
  306loPI   C1B 4893  11.479  13.255   9.028  0.0980 -0.1541 -0.1377
  306loPI   C2B 4894  11.494  13.287   8.602  0.4417  0.1141  0.2875
  306loPI   C3B 4895  11.457  13.146   8.154  0.0355  0.2484 -0.2030
  306loPI   C4B 4896  11.231  13.226   7.753 -0.0212 -0.0624 -0.1708
  307loPI    C1 4897  17.586   2.522  10.246  0.0621 -0.0726  0.0123
  307loPI    C2 4898  17.580   2.812  10.522  0.0016 -0.1182  0.0591
  307loPI    C3 4899  17.477   2.439  10.622  0.0028 -0.1397 -0.0197
  307loPI   PO4 4900  17.432   2.662  10.025  0.1254  0.0189  0.0206
  307loPI   GL1 4901  17.268   2.631   9.608  0.0325 -0.2415 -0.1747
  307loPI   GL2 4902  17.475   2.501   9.547 -0.0513  0.1665 -0.2018
  307loPI   C1A 4903  17.106   2.547   9.230 -0.0421 -0.0096 -0.0618
  307loPI   C2A 4904  17.099   2.446   8.731 -0.0301 -0.0845 -0.1808
  307loPI   C3A 4905  16.864   2.637   8.466 -0.2427 -0.4432  0.0011
  307loPI   C4A 4906  16.862   2.663   8.040 -0.1059 -0.0730 -0.0219
  307loPI   C5A 4907  16.886   2.750   7.645  0.1588 -0.1984  0.1269
  307loPI   C6A 4908  17.024   2.612   7.188  0.0678 -0.2840  0.0765
  307loPI   C1B 4909  17.516   2.307   9.097  0.3940  0.2975 -0.2298
  307loPI   C2B 4910  17.567   2.189   8.661 -0.0309 -0.0288 -0.0891
  307loPI   C3B 4911  17.708   2.316   8.209  0.1515 -0.2670 -0.1120
  307loPI   C4B 4912  17.895   2.576   7.910 -0.2152  0.3887 -0.0397
  308loPI    C1 4913   6.855  17.796   9.979 -0.0346  0.0219  0.0608
  308loPI    C2 4914   7.019  18.115  10.156  0.1253 -0.0418  0.0298
  308loPI    C3 4915   6.703  18.161   9.914  0.1608  0.0953  0.0083
  308loPI   PO4 4916   7.058  17.633   9.831 -0.3950  0.2021  0.0038
  308loPI   GL1 4917   7.104  17.521   9.362 -0.0576  0.0998 -0.1150
  308loPI   GL2 4918   7.388  17.766   9.233  0.0849  0.0263  0.2602
  308loPI   C1A 4919   7.170  17.222   9.069  0.0037  0.4356  0.2455
  308loPI   C2A 4920   7.009  17.257   8.615 -0.2715  0.2456 -0.0864
  308loPI   C3A 4921   6.895  17.306   8.191  0.0748 -0.0802  0.1543
  308loPI   C4A 4922   6.677  17.377   7.712  0.0511  0.0964 -0.1461
  308loPI   C5A 4923   6.866  17.611   7.449  0.0873 -0.1790  0.1624
  308loPI   C6A 4924   7.140  17.916   7.232  0.1540  0.0439  0.0085
  308loPI   C1B 4925   7.211  17.721   8.812 -0.0379 -0.0942  0.0908
  308loPI   C2B 4926   7.102  17.739   8.359 -0.1600 -0.3936  0.0997
  308loPI   C3B 4927   7.002  17.930   7.923  0.2599 -0.0409  0.2656
  308loPI   C4B 4928   6.645  18.024   7.695 -0.0887 -0.0314 -0.1547
  309loPI    C1 4929   8.816  15.437  10.058 -0.1147  0.0769  0.1261
  309loPI    C2 4930   9.120  15.237  10.224 -0.2128  0.0184  0.2359
  309loPI    C3 4931   9.021  15.600  10.360 -0.2899 -0.0275  0.3032
  309loPI   PO4 4932   8.831  15.311   9.759 -0.2045 -0.2750  0.4433
  309loPI   GL1 4933   9.017  15.145   9.280  0.0743  0.2488 -0.0810
  309loPI   GL2 4934   9.025  14.874   9.485 -0.2348 -0.0390 -0.2461
  309loPI   C1A 4935   8.833  14.820   8.953 -0.0486  0.0170  0.1566
  309loPI   C2A 4936   8.792  14.478   8.757  0.0914 -0.2086 -0.1706
  309loPI   C3A 4937   8.783  14.334   8.428 -0.0789  0.1013 -0.2381
  309loPI   C4A 4938   8.864  14.416   7.987  0.0364 -0.4413 -0.0440
  309loPI   C5A 4939   8.880  14.411   7.457 -0.4015  0.1998  0.0196
  309loPI   C6A 4940   8.958  14.045   7.233  0.0676 -0.1321 -0.0435
  309loPI   C1B 4941   9.327  14.748   9.101  0.0334  0.1482 -0.0268
  309loPI   C2B 4942   9.241  14.700   8.645 -0.2302 -0.0001  0.0835
  309loPI   C3B 4943   8.976  14.842   8.284 -0.1924  0.2259  0.1537
  309loPI   C4B 4944   8.758  14.862   8.512  0.2890  0.0934 -0.2636
  310loPI    C1 4945  13.981  10.757   9.844  0.1412  0.0593 -0.0393
  310loPI    C2 4946  13.637  10.902   9.989  0.2138 -0.0174  0.2141
  310loPI    C3 4947  13.969  11.125  10.002  0.2028  0.0066  0.0900
  310loPI   PO4 4948  13.932  10.731   9.531  0.3508 -0.0686 -0.1776
  310loPI   GL1 4949  13.740  10.892   9.082  0.0778  0.0033  0.1734
  310loPI   GL2 4950  13.507  10.878   9.001 -0.1189  0.3046  0.2086
  310loPI   C1A 4951  13.877  10.893   8.617  0.3205  0.2103  0.2259
  310loPI   C2A 4952  14.329  10.884   8.483  0.3503 -0.2756 -0.4820
  310loPI   C3A 4953  14.704  10.937   8.280  0.0578  0.1037  0.0671
  310loPI   C4A 4954  14.895  10.755   8.019  0.1303 -0.1344  0.1999
  310loPI   C5A 4955  15.325  10.726   7.756  0.1174  0.3023  0.3461
  310loPI   C6A 4956  15.654  10.463   7.583 -0.0149  0.1191  0.3306
  310loPI   C1B 4957  13.430  10.668   8.642  0.2826  0.0641  0.2186
  310loPI   C2B 4958  13.256  10.595   8.208 -0.2543  0.0361 -0.1795
  310loPI   C3B 4959  13.028  10.227   8.022 -0.1179 -0.3119 -0.3553
  310loPI   C4B 4960  12.773  10.096   7.651 -0.1875  0.0637  0.1978
  311loPI    C1 4961   1.688  15.647   9.941  0.1769  0.0654  0.1994
  311loPI    C2 4962   1.387  15.441   9.776  0.0194  0.3187  0.1633
  311loPI    C3 4963   1.422  15.461  10.174  0.4529 -0.3700  0.1769
  311loPI   PO4 4964   1.679  15.809   9.823  0.0744 -0.1995 -0.0995
  311loPI   GL1 4965   1.783  16.018   9.489 -0.1041  0.3482  0.1559
  311loPI   GL2 4966   1.616  16.271   9.361  0.3451  0.2436  0.2649
  311loPI   C1A 4967   2.046  16.201   9.091 -0.1741  0.3297 -0.1978
  311loPI   C2A 4968   2.290  16.250   8.671  0.1241  0.0845 -0.3679
  311loPI   C3A 4969   2.584  16.225   8.336  0.2674  0.2472 -0.3191
  311loPI   C4A 4970   2.790  15.996   7.927 -0.4219 -0.1825 -0.1659
  311loPI   C5A 4971   2.939  15.931   7.569 -0.1949  0.2173 -0.2042
  311loPI   C6A 4972   3.288  15.697   7.490  0.0889  0.0292 -0.0223
  311loPI   C1B 4973   1.508  16.151   8.924 -0.1064 -0.1146 -0.0526
  311loPI   C2B 4974   1.483  16.241   8.502 -0.3346 -0.1611 -0.0597
  311loPI   C3B 4975   1.577  16.446   8.129 -0.1320 -0.2695 -0.1749
  311loPI   C4B 4976   1.487  16.553   7.616  0.1147  0.1539 -0.1910
  312loPI    C1 4977  15.255   8.725   9.713 -0.3219 -0.0627  0.0769
  312loPI    C2 4978  15.100   8.412   9.907 -0.1017 -0.1382  0.1343
  312loPI    C3 4979  15.495   8.435   9.850 -0.1329  0.0497 -0.0125
  312loPI   PO4 4980  15.010   8.806   9.603 -0.1627 -0.1727  0.1218
  312loPI   GL1 4981  14.782   8.966   9.373 -0.2732  0.1751  0.1868
  312loPI   GL2 4982  14.526   8.698   9.327 -0.1316 -0.0128 -0.2765
  312loPI   C1A 4983  14.684   9.096   9.074  0.3597  0.0633  0.1304
  312loPI   C2A 4984  14.750   9.330   8.712 -0.0199  0.0250 -0.1637
  312loPI   C3A 4985  14.842   9.129   8.219  0.0994  0.1252  0.0128
  312loPI   C4A 4986  14.788   9.010   7.783 -0.2767  0.1812 -0.0571
  312loPI   C5A 4987  14.412   8.793   7.607  0.2405 -0.0431 -0.0481
  312loPI   C6A 4988  14.319   8.572   7.234 -0.2927 -0.0549 -0.1180
  312loPI   C1B 4989  14.670   8.641   8.924 -0.0780 -0.0437  0.2448
  312loPI   C2B 4990  14.919   8.803   8.630  0.0813  0.1020 -0.1417
  312loPI   C3B 4991  15.200   8.858   8.322 -0.0173 -0.2146  0.3513
  312loPI   C4B 4992  15.178   8.793   7.958  0.0789  0.0232 -0.1299
  313loPI    C1 4993   5.457  17.409   9.923 -0.2501 -0.3712  0.2151
  313loPI    C2 4994   5.474  17.532  10.303  0.4821  0.0021  0.0805
  313loPI    C3 4995   5.811  17.446  10.105  0.1062 -0.2893 -0.4597
  313loPI   PO4 4996   5.338  17.234   9.801 -0.2345  0.3012  0.2202
  313loPI   GL1 4997   5.336  17.022   9.437  0.0818  0.1553  0.0388
  313loPI   GL2 4998   5.462  16.793   9.289 -0.0888  0.0443  0.4156
  313loPI   C1A 4999   5.006  17.112   9.138 -0.1161 -0.1161 -0.0956
  313loPI   C2A 5000   4.782  16.961   8.812 -0.1411 -0.2404 -0.2462
  313loPI   C3A 5001   4.651  16.781   8.391  0.1063  0.2926 -0.1584
  313loPI   C4A 5002   4.552  16.572   7.958  0.0560 -0.3148  0.0582
  313loPI   C5A 5003   4.739  16.538   7.600 -0.0463 -0.0483  0.0101
  313loPI   C6A 5004   4.808  16.709   7.219  0.0093  0.0078  0.0084
  313loPI   C1B 5005   5.193  16.709   8.957 -0.0090 -0.1105 -0.1302
  313loPI   C2B 5006   5.171  16.749   8.527  0.0373 -0.0291 -0.0326
  313loPI   C3B 5007   5.071  16.945   8.152  0.0778  0.1119  0.2602
  313loPI   C4B 5008   5.047  17.005   7.722  0.1823 -0.0560 -0.0680
  314loPI    C1 5009  10.533   5.250   9.276  0.1155  0.0625 -0.3814
  314loPI    C2 5010  10.175   5.391   9.383  0.1661  0.0640 -0.2112
  314loPI    C3 5011  10.273   5.013   9.466  0.1809  0.0449 -0.3137
  314loPI   PO4 5012  10.651   5.478   9.447  0.1967 -0.2263  0.1896
  314loPI   GL1 5013  10.869   5.821   9.126 -0.2126 -0.0040 -0.0329
  314loPI   GL2 5014  10.743   5.567   8.896 -0.0985 -0.4655 -0.5671
  314loPI   C1A 5015  11.249   5.914   8.986  0.1191 -0.0615  0.2701
  314loPI   C2A 5016  11.466   6.100   8.699 -0.1489 -0.1936  0.0374
  314loPI   C3A 5017  11.517   6.364   8.294 -0.2096 -0.2397  0.2475
  314loPI   C4A 5018  11.713   6.545   7.946  0.0273  0.2852 -0.0430
  314loPI   C5A 5019  12.026   6.444   7.587  0.0262 -0.3720 -0.3271
  314loPI   C6A 5020  11.927   6.592   7.288 -0.0219  0.0761 -0.1005
  314loPI   C1B 5021  10.938   5.726   8.508  0.2097  0.1839 -0.2717
  314loPI   C2B 5022  11.276   5.873   8.216  0.0709 -0.3970 -0.1563
  314loPI   C3B 5023  11.198   5.883   7.817 -0.1992  0.2815 -0.2177
  314loPI   C4B 5024  11.070   6.003   7.465 -0.1813  0.0828  0.0928
  315loPI    C1 5025   1.498  11.838  10.160  0.1350 -0.0035 -0.1546
  315loPI    C2 5026   1.776  11.603  10.327  0.0446  0.1398  0.2076
  315loPI    C3 5027   1.480  11.753  10.551  0.0081  0.4678 -0.0519
  315loPI   PO4 5028   1.725  12.001   9.877  0.2840 -0.3910  0.0695
  315loPI   GL1 5029   1.987  12.009   9.442 -0.1839  0.1943 -0.0888
  315loPI   GL2 5030   2.228  11.993   9.211  0.0120  0.2481  0.1219
  315loPI   C1A 5031   1.757  12.139   9.111  0.0875 -0.1299 -0.1281
  315loPI   C2A 5032   1.856  12.139   8.740  0.2211 -0.3216 -0.0773
  315loPI   C3A 5033   2.041  12.084   8.477 -0.2229  0.0481 -0.0616
  315loPI   C4A 5034   2.140  11.888   8.197  0.2137  0.2090 -0.0802
  315loPI   C5A 5035   1.772  11.702   7.979  0.0850  0.3679  0.0729
  315loPI   C6A 5036   1.593  11.697   7.593 -0.0581 -0.1923 -0.3086
  315loPI   C1B 5037   1.968  11.671   8.807 -0.3457  0.2042  0.0083
  315loPI   C2B 5038   1.900  11.443   8.482  0.2421 -0.0008 -0.1638
  315loPI   C3B 5039   2.012  11.240   8.085  0.0383 -0.2357 -0.1405
  315loPI   C4B 5040   2.206  11.044   7.803 -0.0136 -0.2716 -0.0356
  316loPI    C1 5041   1.919  15.107  10.280  0.1586 -0.2069 -0.1353
  316loPI    C2 5042   1.889  15.485  10.404 -0.1553 -0.3939  0.3926
  316loPI    C3 5043   2.171  15.246  10.557 -0.0019 -0.3982  0.1108
  316loPI   PO4 5044   1.897  15.157  10.039  0.1302  0.5477 -0.1663
  316loPI   GL1 5045   1.668  15.065   9.727  0.1359  0.0470 -0.1066
  316loPI   GL2 5046   1.849  15.351   9.579  0.5054 -0.1737 -0.0956
  316loPI   C1A 5047   1.461  15.033   9.320 -0.2605 -0.0154 -0.3102
  316loPI   C2A 5048   1.509  15.118   8.872  0.2004 -0.1024 -0.1338
  316loPI   C3A 5049   1.281  15.152   8.506  0.1540  0.1023 -0.4350
  316loPI   C4A 5050   1.161  15.448   8.104 -0.0620 -0.1740 -0.1963
  316loPI   C5A 5051   1.357  15.418   7.748  0.0146 -0.0818  0.0425
  316loPI   C6A 5052   1.569  15.567   7.495 -0.0549  0.1355 -0.0886
  316loPI   C1B 5053   1.945  15.191   9.186  0.0128  0.1129 -0.2061
  316loPI   C2B 5054   1.962  15.131   8.653 -0.1591  0.0806 -0.1429
  316loPI   C3B 5055   1.985  15.471   8.341  0.2306 -0.2421  0.0072
  316loPI   C4B 5056   1.829  15.638   7.951 -0.2526  0.2982 -0.0045
  317loPI    C1 5057   4.272   2.696   9.496 -0.0516  0.0999 -0.0840
  317loPI    C2 5058   4.169   2.968   9.770  0.0420 -0.0788  0.1315
  317loPI    C3 5059   4.503   2.754   9.817  0.1437  0.0010 -0.2053
  317loPI   PO4 5060   3.988   2.603   9.421  0.0814 -0.0748 -0.0757
  317loPI   GL1 5061   3.713   2.650   9.088  0.0238  0.0416 -0.1774
  317loPI   GL2 5062   3.606   2.994   8.985  0.3840 -0.0693 -0.1154
  317loPI   C1A 5063   3.723   2.380   8.734  0.1988 -0.3585 -0.0413
  317loPI   C2A 5064   3.720   2.179   8.352  0.0031 -0.1911  0.0960
  317loPI   C3A 5065   3.500   2.184   7.920 -0.0002  0.1548  0.0701
  317loPI   C4A 5066   3.336   2.352   7.630 -0.2102  0.0826 -0.0691
  317loPI   C5A 5067   3.010   2.590   7.484  0.1910  0.1977 -0.0902
  317loPI   C6A 5068   2.735   2.844   7.264  0.2106  0.0124 -0.1057
  317loPI   C1B 5069   3.489   3.226   8.741  0.1314  0.0050  0.2171
  317loPI   C2B 5070   3.226   3.382   8.509  0.2609  0.1898  0.1709
  317loPI   C3B 5071   3.144   3.826   8.627  0.3799 -0.2981  0.3074
  317loPI   C4B 5072   2.994   3.878   8.989 -0.3232 -0.0653 -0.2556
  318loPI    C1 5073   5.405  17.882   9.725 -0.2823 -0.0928  0.4636
  318loPI    C2 5074   5.723  17.909   9.966 -0.1635  0.0132  0.2979
  318loPI    C3 5075   5.357  17.991  10.106 -0.0902  0.1212  0.4289
  318loPI   PO4 5076   5.510  18.014   9.430 -0.0147  0.2078  0.2885
  318loPI   GL1 5077   5.704  17.681   9.121  0.0693 -0.1232  0.0912
  318loPI   GL2 5078   6.160  17.714   9.266  0.2251  0.1557  0.2539
  318loPI   C1A 5079   5.755  17.825   8.769  0.2151  0.0774  0.0660
  318loPI   C2A 5080   5.914  17.821   8.289 -0.0703  0.0892 -0.0296
  318loPI   C3A 5081   5.802  17.839   7.879 -0.1383 -0.0186 -0.1059
  318loPI   C4A 5082   6.020  17.738   7.500  0.0021  0.1276  0.0326
  318loPI   C5A 5083   6.404  17.908   7.297  0.2675  0.1296  0.1914
  318loPI   C6A 5084   6.683  18.238   7.224 -0.3008  0.2562  0.2981
  318loPI   C1B 5085   6.157  18.093   9.085 -0.0369  0.1182  0.3446
  318loPI   C2B 5086   6.171  18.200   8.534  0.0963 -0.2532  0.1137
  318loPI   C3B 5087   6.299  18.206   8.082  0.1520  0.0389 -0.2289
  318loPI   C4B 5088   6.247  18.288   7.659  0.1593 -0.1133  0.1524
  319loPI    C1 5089   5.427   8.373   9.380 -0.2038  0.2248  0.0505
  319loPI    C2 5090   5.381   7.977   9.339 -0.0365  0.2013  0.0826
  319loPI    C3 5091   5.478   8.132   9.695 -0.0113  0.2624  0.0493
  319loPI   PO4 5092   5.133   8.512   9.228  0.1022  0.4808 -0.1821
  319loPI   GL1 5093   4.994   8.534   8.791 -0.1386 -0.0406  0.0896
  319loPI   GL2 5094   5.329   8.627   8.783 -0.3125 -0.0353  0.0244
  319loPI   C1A 5095   4.952   8.658   8.315 -0.0260  0.0529 -0.1779
  319loPI   C2A 5096   4.757   8.613   7.959 -0.0012 -0.0804 -0.2159
  319loPI   C3A 5097   4.811   8.537   7.550 -0.1692 -0.3567 -0.1696
  319loPI   C4A 5098   4.448   8.434   7.245 -0.2192 -0.1723 -0.3440
  319loPI   C5A 5099   4.025   8.574   7.025  0.0436  0.1304  0.1784
  319loPI   C6A 5100   3.600   8.702   6.970  0.2841 -0.1387  0.1797
  319loPI   C1B 5101   5.455   8.708   8.355  0.0538 -0.1685 -0.0263
  319loPI   C2B 5102   5.385   8.836   7.984  0.2516  0.2278 -0.0287
  319loPI   C3B 5103   5.652   9.109   7.762  0.2773 -0.0299  0.0701
  319loPI   C4B 5104   5.773   9.098   7.338 -0.1348 -0.0305  0.1091
  320loPI    C1 5105  11.349  16.512   9.836  0.2758 -0.2068 -0.2041
  320loPI    C2 5106  11.566  16.548  10.170 -0.2425  0.3560  0.0921
  320loPI    C3 5107  11.590  16.827   9.885  0.1056 -0.0597 -0.2996
  320loPI   PO4 5108  11.274  16.282   9.734 -0.2952 -0.2102 -0.1546
  320loPI   GL1 5109  11.154  16.253   9.307  0.1980 -0.0507  0.1993
  320loPI   GL2 5110  10.929  16.494   9.234 -0.0010 -0.0025  0.1481
  320loPI   C1A 5111  11.318  16.270   8.869 -0.1573  0.2060  0.0198
  320loPI   C2A 5112  11.211  16.159   8.393  0.4928  0.1257 -0.0532
  320loPI   C3A 5113  11.453  16.010   8.081 -0.1509 -0.2663  0.1409
  320loPI   C4A 5114  11.431  16.178   7.715  0.0396 -0.0834 -0.1826
  320loPI   C5A 5115  11.136  16.479   7.607 -0.3379 -0.2366 -0.0818
  320loPI   C6A 5116  11.162  16.902   7.449 -0.2457  0.3966 -0.2520
  320loPI   C1B 5117  10.806  16.288   8.904  0.0488  0.0392 -0.1076
  320loPI   C2B 5118  10.724  16.333   8.489 -0.0526  0.0275  0.0997
  320loPI   C3B 5119  10.819  16.219   8.006 -0.2294  0.0311 -0.1663
  320loPI   C4B 5120  11.020  15.846   7.946  0.4174 -0.0712  0.1158
  321loPI    C1 5121  11.320  11.514   9.976  0.0238 -0.0646 -0.1956
  321loPI    C2 5122  11.364  11.121  10.033 -0.1237 -0.0482  0.0461
  321loPI    C3 5123  11.063  11.316  10.210  0.0181  0.1952  0.0243
  321loPI   PO4 5124  11.262  11.517   9.708 -0.2462 -0.3395  0.0105
  321loPI   GL1 5125  11.099  11.452   9.313  0.3134 -0.0092  0.2359
  321loPI   GL2 5126  11.178  11.258   9.174 -0.1586 -0.0087  0.0141
  321loPI   C1A 5127  10.832  11.639   8.999  0.2397  0.2217  0.1247
  321loPI   C2A 5128  10.719  11.880   8.726 -0.0765 -0.3142 -0.3334
  321loPI   C3A 5129  11.003  11.779   8.367  0.0909 -0.3865 -0.0376
  321loPI   C4A 5130  10.981  11.490   7.981  0.0492  0.0906  0.1224
  321loPI   C5A 5131  11.048  11.659   7.703  0.3492 -0.2244  0.0017
  321loPI   C6A 5132  11.112  12.047   7.502 -0.2627  0.2830 -0.0748
  321loPI   C1B 5133  11.395  11.418   8.900 -0.6031  0.0642  0.2527
  321loPI   C2B 5134  11.489  11.512   8.559  0.1215  0.0442  0.0653
  321loPI   C3B 5135  11.355  11.296   8.169  0.1805  0.3599 -0.3720
  321loPI   C4B 5136  11.330  11.259   7.656 -0.2545 -0.1740  0.0193
  322loPI    C1 5137  15.299  14.913  10.080 -0.2254 -0.3444 -0.2200
  322loPI    C2 5138  15.368  14.623  10.347  0.3057  0.1048  0.1513
  322loPI    C3 5139  15.137  14.935  10.445  0.3858  0.2007  0.0383
  322loPI   PO4 5140  15.299  14.801   9.886 -0.0659 -0.1650  0.1897
  322loPI   GL1 5141  15.448  14.698   9.510  0.3212 -0.1626  0.1990
  322loPI   GL2 5142  15.630  14.484   9.599  0.1606  0.0448 -0.2277
  322loPI   C1A 5143  15.425  14.867   9.123  0.0116  0.2833  0.0288
  322loPI   C2A 5144  15.517  14.999   8.818 -0.1327  0.0997 -0.0155
  322loPI   C3A 5145  15.706  14.825   8.417 -0.0697 -0.1192 -0.2297
  322loPI   C4A 5146  15.879  14.791   8.038 -0.1675 -0.0184 -0.1667
  322loPI   C5A 5147  15.982  14.661   7.691 -0.4057 -0.1510  0.1287
  322loPI   C6A 5148  16.305  14.571   7.319  0.1548 -0.0811  0.4765
  322loPI   C1B 5149  15.747  14.451   9.188 -0.0413 -0.0963 -0.3453
  322loPI   C2B 5150  15.933  14.590   8.802  0.2302 -0.1443 -0.1638
  322loPI   C3B 5151  16.156  14.512   8.472  0.0657 -0.1910 -0.0808
  322loPI   C4B 5152  16.277  14.472   8.220  0.2356 -0.0800  0.0599
  323loPI    C1 5153   7.304   5.639   9.157 -0.1852 -0.1801 -0.1191
  323loPI    C2 5154   7.517   5.313   9.249  0.3267  0.1478 -0.1034
  323loPI    C3 5155   7.291   5.489   9.528 -0.0969 -0.2881 -0.1589
  323loPI   PO4 5156   7.272   5.542   8.842  0.0233 -0.0145 -0.0998
  323loPI   GL1 5157   6.984   5.610   8.559  0.1405  0.0744  0.0572
  323loPI   GL2 5158   7.068   5.251   8.506  0.3315 -0.0358 -0.1647
  323loPI   C1A 5159   6.924   5.960   8.238 -0.1969 -0.2091 -0.1008
  323loPI   C2A 5160   7.193   6.023   7.804 -0.2906  0.1509  0.0742
  323loPI   C3A 5161   7.340   6.176   7.446  0.1007 -0.4148 -0.2285
  323loPI   C4A 5162   7.003   6.272   7.055  0.0382  0.0902  0.2706
  323loPI   C5A 5163   6.586   6.231   7.020  0.2052 -0.1256 -0.1871
  323loPI   C6A 5164   6.389   5.815   7.052  0.3423 -0.0423  0.0707
  323loPI   C1B 5165   7.214   5.522   8.138  0.2151 -0.2528 -0.2643
  323loPI   C2B 5166   7.322   5.581   7.727  0.0066  0.1145  0.0109
  323loPI   C3B 5167   7.353   5.677   7.277 -0.2091  0.0338  0.1351
  323loPI   C4B 5168   7.196   5.845   6.944 -0.1969  0.2543 -0.1568
  324loPI    C1 5169  14.470   1.386   9.808  0.2346 -0.0856  0.0815
  324loPI    C2 5170  14.249   1.106   9.989 -0.0329  0.2093  0.2208
  324loPI    C3 5171  14.425   1.393  10.205  0.1753  0.1967  0.0720
  324loPI   PO4 5172  14.603   1.190   9.586  0.1654 -0.0080 -0.1748
  324loPI   GL1 5173  14.866   1.023   9.173 -0.0332  0.1475 -0.2470
  324loPI   GL2 5174  14.951   1.433   9.237 -0.2429 -0.2381 -0.1137
  324loPI   C1A 5175  14.437   1.108   8.937  0.2329  0.0891 -0.2846
  324loPI   C2A 5176  14.258   1.206   8.483  0.2791  0.2636  0.0346
  324loPI   C3A 5177  14.140   0.835   8.226 -0.0684  0.0163 -0.0574
  324loPI   C4A 5178  14.055   0.391   8.069 -0.0706 -0.0673 -0.1061
  324loPI   C5A 5179  14.293   0.180   7.746  0.2063 -0.1115 -0.0903
  324loPI   C6A 5180  14.500  -0.053   7.440 -0.1061  0.1419  0.0030
  324loPI   C1B 5181  14.708   1.498   8.888  0.0692 -0.0343 -0.1124
  324loPI   C2B 5182  14.648   1.501   8.352 -0.0603  0.2449  0.3018
  324loPI   C3B 5183  14.841   1.660   8.041  0.1336  0.1306  0.0407
  324loPI   C4B 5184  15.148   1.988   7.783 -0.0673 -0.0072  0.0678
  325loPI    C1 5185   5.967  16.597  10.132 -0.1104  0.3145 -0.2032
  325loPI    C2 5186   6.336  16.462  10.207 -0.1518  0.1589 -0.2763
  325loPI    C3 5187   6.125  16.639  10.497 -0.0616  0.1491 -0.2046
  325loPI   PO4 5188   5.811  16.420   9.932  0.0724 -0.3329 -0.0150
  325loPI   GL1 5189   5.624  16.362   9.628  0.1277  0.2121  0.0376
  325loPI   GL2 5190   5.804  16.136   9.413 -0.2751 -0.1702  0.3486
  325loPI   C1A 5191   5.579  16.373   9.061 -0.0441  0.1077 -0.0665
  325loPI   C2A 5192   5.753  16.192   8.691 -0.0132  0.0642  0.0732
  325loPI   C3A 5193   5.908  16.014   8.259 -0.0674  0.0569  0.0799
  325loPI   C4A 5194   5.796  15.961   7.826 -0.0228  0.2582 -0.1715
  325loPI   C5A 5195   5.621  16.209   7.400  0.2088 -0.2262  0.3872
  325loPI   C6A 5196   5.895  16.457   7.095  0.0086 -0.1527  0.0893
  325loPI   C1B 5197   6.075  16.230   9.059  0.3109 -0.1250 -0.0255
  325loPI   C2B 5198   6.153  16.434   8.668  0.1517  0.1078 -0.1997
  325loPI   C3B 5199   6.376  16.511   8.363 -0.0088  0.3957 -0.0150
  325loPI   C4B 5200   6.256  16.412   8.021  0.3255 -0.0613 -0.0463
  326loPI    C1 5201   0.344   4.633  10.032 -0.2762  0.0410  0.0310
  326loPI    C2 5202   0.728   4.702   9.943 -0.2584 -0.3827 -0.2509
  326loPI    C3 5203   0.608   4.702  10.325  0.0307 -0.2991 -0.1569
  326loPI   PO4 5204   0.166   4.764   9.848 -0.0436 -0.0892  0.0732
  326loPI   GL1 5205   0.135   4.877   9.407 -0.3270  0.0817  0.2420
  326loPI   GL2 5206  -0.026   4.711   9.186 -0.0142  0.2475  0.0462
  326loPI   C1A 5207   0.039   5.184   9.092  0.1583  0.1750 -0.5722
  326loPI   C2A 5208   0.271   5.107   8.762 -0.0486  0.2839 -0.0966
  326loPI   C3A 5209   0.278   5.268   8.289  0.3811 -0.0951  0.2539
  326loPI   C4A 5210   0.261   5.327   7.811  0.0593  0.0512  0.0685
  326loPI   C5A 5211  -0.072   5.405   7.442  0.1038 -0.0886  0.0783
  326loPI   C6A 5212  -0.253   5.105   7.227 -0.1530  0.0811 -0.3772
  326loPI   C1B 5213  -0.135   4.736   8.748 -0.0557 -0.1292  0.1937
  326loPI   C2B 5214  -0.467   4.632   8.388  0.0823 -0.1463  0.0654
  326loPI   C3B 5215  -0.379   4.735   7.916  0.1799  0.0545 -0.2143
  326loPI   C4B 5216  -0.071   4.811   7.675  0.2272 -0.0682 -0.0099
  327loPI    C1 5217   6.655   1.490   9.202 -0.1040  0.1384 -0.3420
  327loPI    C2 5218   7.008   1.305   9.164  0.0017  0.2640 -0.0105
  327loPI    C3 5219   6.992   1.704   9.183 -0.1712  0.2649 -0.1463
  327loPI   PO4 5220   6.518   1.320   9.045  0.0809 -0.3224  0.0952
  327loPI   GL1 5221   6.451   1.147   8.633  0.0138  0.0568 -0.0036
  327loPI   GL2 5222   6.449   0.798   8.683 -0.2848  0.2531 -0.2693
  327loPI   C1A 5223   6.457   1.136   8.224 -0.2658  0.0409 -0.0107
  327loPI   C2A 5224   6.543   1.023   7.738  0.1521 -0.0582 -0.1133
  327loPI   C3A 5225   6.530   0.711   7.405  0.0664 -0.2275  0.0617
  327loPI   C4A 5226   6.880   0.383   7.314 -0.2735  0.0025 -0.0094
  327loPI   C5A 5227   7.098   0.294   6.895  0.0078  0.1554  0.1295
  327loPI   C6A 5228   7.295   0.322   6.548 -0.1730 -0.2055 -0.0006
  327loPI   C1B 5229   6.185   0.689   8.277 -0.0953 -0.1257 -0.2590
  327loPI   C2B 5230   6.157   0.827   7.902 -0.2928 -0.0925 -0.1271
  327loPI   C3B 5231   6.070   1.067   7.499 -0.0142  0.2409 -0.3485
  327loPI   C4B 5232   6.136   0.956   7.049  0.0605  0.1213  0.2731
  328loPI    C1 5233   8.500   4.988   9.058  0.0116  0.1126  0.0978
  328loPI    C2 5234   8.675   4.681   9.245 -0.1196 -0.0307 -0.0127
  328loPI    C3 5235   8.336   4.836   9.389 -0.0401  0.0793  0.0570
  328loPI   PO4 5236   8.711   5.052   8.825 -0.2582 -0.0493 -0.4460
  328loPI   GL1 5237   8.881   5.170   8.475 -0.0679 -0.4019 -0.0070
  328loPI   GL2 5238   9.129   5.397   8.443  0.2881 -0.1330  0.1262
  328loPI   C1A 5239   9.078   4.994   8.083  0.1053 -0.3034 -0.2301
  328loPI   C2A 5240   9.097   5.040   7.707  0.0090 -0.0646 -0.1332
  328loPI   C3A 5241   8.927   5.131   7.341 -0.3639  0.0439  0.2540
  328loPI   C4A 5242   9.161   5.320   6.955  0.1696 -0.0108 -0.0528
  328loPI   C5A 5243   9.023   5.512   6.600  0.3654  0.0510  0.2609
  328loPI   C6A 5244   8.777   5.533   6.225 -0.1568  0.1291  0.0533
  328loPI   C1B 5245   9.173   5.547   8.024 -0.1618  0.0422 -0.3507
  328loPI   C2B 5246   9.279   5.937   7.814 -0.1187  0.0839 -0.4225
  328loPI   C3B 5247   9.400   6.124   7.398 -0.0905 -0.0918 -0.1417
  328loPI   C4B 5248   9.559   6.613   7.434 -0.2622  0.1847  0.3926
  329loPI    C1 5249   5.978   2.989   9.178 -0.1042 -0.3756  0.1298
  329loPI    C2 5250   6.280   2.848   9.398  0.0757 -0.1090  0.0590
  329loPI    C3 5251   5.905   2.828   9.537  0.1913  0.1055  0.4177
  329loPI   PO4 5252   6.138   3.226   8.976 -0.1706  0.1096 -0.3026
  329loPI   GL1 5253   6.116   3.276   8.643 -0.0331 -0.1830  0.0678
  329loPI   GL2 5254   6.314   3.661   8.649 -0.0000 -0.4091 -0.0191
  329loPI   C1A 5255   6.009   3.286   8.184 -0.1457  0.1142 -0.3749
  329loPI   C2A 5256   5.731   3.311   7.920 -0.2520 -0.0690  0.2267
  329loPI   C3A 5257   5.440   3.462   7.575  0.0264 -0.3536 -0.2045
  329loPI   C4A 5258   5.403   3.741   7.241  0.1287 -0.4281 -0.2231
  329loPI   C5A 5259   5.637   3.843   6.899  0.1762 -0.1587  0.1300
  329loPI   C6A 5260   5.651   4.046   6.525  0.3313  0.0549  0.2619
  329loPI   C1B 5261   6.407   3.664   8.236 -0.0289  0.1264  0.0830
  329loPI   C2B 5262   6.327   3.567   7.892  0.0797 -0.1061 -0.0384
  329loPI   C3B 5263   6.021   3.505   7.569  0.0684  0.0256 -0.0941
  329loPI   C4B 5264   5.790   3.405   7.255  0.0155 -0.2012  0.1486
  330loPI    C1 5265   0.664   6.005  10.021 -0.1748  0.2146  0.0114
  330loPI    C2 5266   0.381   6.021  10.302 -0.0987  0.1022  0.0954
  330loPI    C3 5267   0.761   6.102  10.397 -0.0749  0.0769  0.0221
  330loPI   PO4 5268   0.592   6.073   9.840  0.2135  0.3001  0.2544
  330loPI   GL1 5269   0.709   5.925   9.501 -0.0885 -0.2380  0.2361
  330loPI   GL2 5270   0.896   6.237   9.388 -0.1286  0.3585 -0.1248
  330loPI   C1A 5271   0.785   5.933   8.999  0.2504  0.0634  0.1852
  330loPI   C2A 5272   0.964   5.746   8.651  0.2015  0.0593 -0.0303
  330loPI   C3A 5273   1.185   5.457   8.443  0.1191 -0.1229 -0.1279
  330loPI   C4A 5274   1.251   5.547   8.047  0.0169  0.0837  0.3059
  330loPI   C5A 5275   1.266   5.781   7.743  0.0332 -0.1152  0.0555
  330loPI   C6A 5276   1.617   6.091   7.556 -0.3335 -0.1057 -0.0607
  330loPI   C1B 5277   0.970   6.446   8.997  0.4467 -0.3606  0.1279
  330loPI   C2B 5278   0.868   6.602   8.551  0.1863 -0.2032 -0.1787
  330loPI   C3B 5279   0.752   6.683   8.129 -0.2067  0.1252  0.0291
  330loPI   C4B 5280   0.941   6.588   7.700 -0.0076 -0.1531 -0.0892
  331loPI    C1 5281   9.355   4.543   9.128  0.0603 -0.1169 -0.1137
  331loPI    C2 5282   9.580   4.574   9.457  0.2006 -0.1242 -0.2084
  331loPI    C3 5283   9.230   4.766   9.436  0.1435 -0.2046 -0.0155
  331loPI   PO4 5284   9.565   4.562   8.900 -0.1225 -0.0960  0.0537
  331loPI   GL1 5285   9.881   4.481   8.684 -0.0086 -0.0520 -0.0441
  331loPI   GL2 5286  10.192   4.312   8.682 -0.0893 -0.1463 -0.0956
  331loPI   C1A 5287   9.764   4.727   8.216 -0.0497  0.0343  0.3390
  331loPI   C2A 5288   9.508   4.692   7.873 -0.0284 -0.1049  0.0784
  331loPI   C3A 5289   9.348   4.688   7.483 -0.0473  0.0545  0.3170
  331loPI   C4A 5290   9.300   4.329   7.205  0.0333  0.0157  0.0729
  331loPI   C5A 5291   9.134   4.091   6.965 -0.0947  0.0370 -0.2323
  331loPI   C6A 5292   8.714   3.938   6.874 -0.0521 -0.0266  0.0157
  331loPI   C1B 5293  10.307   4.416   8.225  0.1374 -0.3677  0.1317
  331loPI   C2B 5294  10.232   4.781   7.846 -0.1776  0.0226  0.0308
  331loPI   C3B 5295  10.394   4.738   7.406  0.2935 -0.1868  0.0039
  331loPI   C4B 5296  10.390   4.766   6.981  0.2797  0.2096  0.3792
  332loPI    C1 5297   2.108  10.975   9.890  0.1287 -0.0531 -0.1075
  332loPI    C2 5298   1.914  11.104  10.215  0.0244 -0.0721 -0.1617
  332loPI    C3 5299   2.029  10.722  10.188 -0.1144 -0.1105 -0.2181
  332loPI   PO4 5300   2.122  11.108   9.742  0.1827 -0.0648  0.0298
  332loPI   GL1 5301   2.307  11.086   9.341 -0.3864 -0.2791 -0.2179
  332loPI   GL2 5302   2.167  10.862   9.273  0.3862 -0.1711  0.1003
  332loPI   C1A 5303   2.118  11.139   8.902  0.1150  0.0230  0.2330
  332loPI   C2A 5304   2.099  10.930   8.482 -0.2621 -0.0501 -0.4413
  332loPI   C3A 5305   2.128  10.741   8.161  0.0749 -0.2155  0.2240
  332loPI   C4A 5306   2.162  10.277   8.071 -0.2501 -0.0965  0.1851
  332loPI   C5A 5307   2.232  10.024   7.750 -0.2365 -0.0546 -0.0852
  332loPI   C6A 5308   2.324   9.706   7.553 -0.1919 -0.2850  0.1149
  332loPI   C1B 5309   2.552  10.713   9.103  0.0210 -0.0017 -0.2037
  332loPI   C2B 5310   2.804  10.537   8.819 -0.0355  0.1466  0.1611
  332loPI   C3B 5311   3.003  10.226   8.544 -0.1139 -0.1042  0.0407
  332loPI   C4B 5312   3.052   9.920   8.245 -0.1591  0.1413 -0.1189
  333loPI    C1 5313   3.315   5.058   9.849 -0.1524  0.0229 -0.0483
  333loPI    C2 5314   2.983   5.243   9.973 -0.1245 -0.0496  0.1379
  333loPI    C3 5315   3.292   5.198  10.222 -0.0387 -0.1321  0.0179
  333loPI   PO4 5316   3.411   5.124   9.662  0.0553  0.3696  0.2011
  333loPI   GL1 5317   3.289   5.082   9.297  0.2321 -0.0394 -0.2263
  333loPI   GL2 5318   2.937   5.201   9.440  0.4027  0.0890  0.2843
  333loPI   C1A 5319   3.371   5.087   8.883 -0.2652 -0.1068  0.0481
  333loPI   C2A 5320   3.378   4.844   8.505 -0.2391  0.3573  0.2464
  333loPI   C3A 5321   3.279   4.637   8.177 -0.0090  0.4822 -0.1876
  333loPI   C4A 5322   3.070   4.355   8.047  0.2058 -0.0859  0.1675
  333loPI   C5A 5323   3.106   4.094   7.697  0.2008  0.3181 -0.2153
  333loPI   C6A 5324   3.168   3.797   7.325  0.1223  0.1220  0.2288
  333loPI   C1B 5325   2.677   5.499   9.113 -0.2927 -0.0242  0.0631
  333loPI   C2B 5326   2.767   5.701   8.732 -0.1624  0.2578 -0.0627
  333loPI   C3B 5327   3.135   5.803   8.480  0.0143 -0.0104 -0.0790
  333loPI   C4B 5328   3.549   5.967   8.233  0.2595 -0.2638 -0.0975
  334loPI    C1 5329  12.798  14.306   9.854 -0.0550 -0.0923 -0.0994
  334loPI    C2 5330  13.073  14.015   9.868  0.1855  0.1367  0.0293
  334loPI    C3 5331  12.833  14.078  10.181  0.0794  0.0274 -0.0292
  334loPI   PO4 5332  12.933  14.647   9.730 -0.1365 -0.0296 -0.0870
  334loPI   GL1 5333  12.779  14.550   9.325  0.0702  0.0375  0.0093
  334loPI   GL2 5334  13.193  14.731   9.267  0.0336  0.0038  0.0761
  334loPI   C1A 5335  12.537  14.707   8.959  0.0520  0.0396  0.1973
  334loPI   C2A 5336  12.439  14.826   8.594 -0.0018  0.2093  0.0457
  334loPI   C3A 5337  12.312  14.738   8.239 -0.0225  0.1452  0.0098
  334loPI   C4A 5338  11.952  14.685   7.975  0.1451  0.0997  0.1391
  334loPI   C5A 5339  11.777  14.373   7.745 -0.0970  0.0824 -0.2051
  334loPI   C6A 5340  11.614  14.092   7.387 -0.0011 -0.1692 -0.0739
  334loPI   C1B 5341  13.219  14.642   8.777 -0.1718 -0.1012  0.0177
  334loPI   C2B 5342  12.983  14.464   8.482 -0.1627 -0.0227 -0.2333
  334loPI   C3B 5343  12.769  14.424   8.177  0.3457  0.0221  0.0302
  334loPI   C4B 5344  12.770  14.530   7.713 -0.0238  0.1423 -0.3532
  335loPI    C1 5345   6.012  15.441  10.131  0.0140  0.0662  0.2491
  335loPI    C2 5346   5.786  15.549  10.443 -0.1343  0.0617  0.1445
  335loPI    C3 5347   6.040  15.241  10.476 -0.2922 -0.0637  0.2023
  335loPI   PO4 5348   5.788  15.502   9.943 -0.2138  0.0112  0.4260
  335loPI   GL1 5349   5.830  15.545   9.417  0.1078 -0.0818 -0.2023
  335loPI   GL2 5350   5.615  15.300   9.418  0.1286  0.1941  0.0477
  335loPI   C1A 5351   5.611  15.847   9.069 -0.2935  0.0911  0.0777
  335loPI   C2A 5352   5.714  15.646   8.589 -0.1809 -0.2021  0.0496
  335loPI   C3A 5353   5.764  15.500   8.142 -0.1820  0.4511 -0.5213
  335loPI   C4A 5354   5.688  15.462   7.742 -0.0006  0.1383  0.1792
  335loPI   C5A 5355   5.777  15.646   7.376  0.1798 -0.0812 -0.0283
  335loPI   C6A 5356   5.740  15.667   6.934 -0.4786 -0.0081  0.1612
  335loPI   C1B 5357   5.547  15.300   9.074 -0.2563  0.0280 -0.3577
  335loPI   C2B 5358   5.401  14.889   8.801  0.1902 -0.2163  0.0016
  335loPI   C3B 5359   5.353  14.476   8.598 -0.0364 -0.1225  0.1545
  335loPI   C4B 5360   5.725  14.128   8.433 -0.0021  0.1597  0.0508
  336loPI    C1 5361   6.797   3.903   9.126  0.2586  0.0291 -0.1637
  336loPI    C2 5362   6.732   3.889   8.732  0.0588  0.0576 -0.1326
  336loPI    C3 5363   6.815   3.554   8.933  0.0464  0.0259 -0.1803
  336loPI   PO4 5364   6.541   4.074   9.128  0.0064 -0.0165 -0.0265
  336loPI   GL1 5365   6.316   4.208   8.784 -0.0910 -0.0376 -0.1395
  336loPI   GL2 5366   6.495   4.445   8.824  0.0417  0.4384  0.1487
  336loPI   C1A 5367   6.367   4.186   8.387  0.0212  0.1092  0.2131
  336loPI   C2A 5368   6.405   4.108   7.885 -0.2011  0.5972  0.2811
  336loPI   C3A 5369   6.192   3.976   7.509 -0.0839  0.1591 -0.0027
  336loPI   C4A 5370   5.827   3.986   7.332 -0.2000 -0.2337  0.0796
  336loPI   C5A 5371   5.475   4.231   7.221  0.2130  0.2040 -0.0586
  336loPI   C6A 5372   5.139   4.278   7.187  0.1372  0.0862  0.1337
  336loPI   C1B 5373   6.341   4.668   8.440  0.0214  0.0918 -0.1895
  336loPI   C2B 5374   6.116   4.721   8.100  0.1790  0.1448 -0.0791
  336loPI   C3B 5375   6.161   4.777   7.680 -0.1711 -0.2611 -0.4565
  336loPI   C4B 5376   6.507   4.882   7.390 -0.2993 -0.0355 -0.0382
  337loPI    C1 5377   1.465  12.393  10.101  0.0551 -0.1462 -0.0781
  337loPI    C2 5378   1.366  12.236  10.456 -0.0295  0.1559  0.0348
  337loPI    C3 5379   1.690  12.469  10.423  0.1387 -0.0983 -0.1473
  337loPI   PO4 5380   1.249  12.459   9.961 -0.0570  0.1346  0.2335
  337loPI   GL1 5381   1.036  12.613   9.624 -0.0855 -0.0606  0.0205
  337loPI   GL2 5382   1.040  12.344   9.405 -0.0487  0.1265  0.0508
  337loPI   C1A 5383   1.152  12.939   9.347 -0.0929 -0.2577 -0.3610
  337loPI   C2A 5384   1.019  12.927   8.912 -0.0730  0.0498  0.2906
  337loPI   C3A 5385   1.071  12.770   8.440 -0.0783 -0.2574 -0.4016
  337loPI   C4A 5386   1.272  12.762   8.166 -0.1661 -0.1312  0.0002
  337loPI   C5A 5387   1.473  13.036   7.761 -0.0519 -0.3351 -0.2194
  337loPI   C6A 5388   1.813  13.048   7.653 -0.0737  0.0593 -0.1301
  337loPI   C1B 5389   0.858  12.434   9.051  0.1701 -0.1144  0.3865
  337loPI   C2B 5390   0.654  12.509   8.559  0.1141  0.2914 -0.2677
  337loPI   C3B 5391   0.722  12.739   8.125  0.0726  0.2256  0.1517
  337loPI   C4B 5392   0.869  12.793   7.655  0.1074 -0.3645  0.0634
  338loPI    C1 5393   7.450  10.451   9.453  0.1605 -0.1011  0.2728
  338loPI    C2 5394   7.320  10.454   9.832  0.1005 -0.2660  0.2548
  338loPI    C3 5395   7.252  10.135   9.600 -0.2460  0.0047 -0.0283
  338loPI   PO4 5396   7.536  10.680   9.421 -0.3561 -0.1327 -0.3639
  338loPI   GL1 5397   7.875  10.779   9.084 -0.0325 -0.2596 -0.0371
  338loPI   GL2 5398   8.201  10.584   8.950  0.1351 -0.0641 -0.0010
  338loPI   C1A 5399   7.927  11.108   8.768 -0.2640 -0.2730 -0.0695
  338loPI   C2A 5400   8.104  10.976   8.342  0.0245 -0.0162 -0.0437
  338loPI   C3A 5401   8.145  11.221   7.934  0.1188 -0.0300  0.1160
  338loPI   C4A 5402   7.898  11.637   7.849 -0.0670 -0.0191  0.3394
  338loPI   C5A 5403   7.448  11.725   7.732  0.1847 -0.0868 -0.4485
  338loPI   C6A 5404   7.066  11.847   7.480  0.1320 -0.0750  0.1507
  338loPI   C1B 5405   8.300  10.421   8.540 -0.0532  0.0132 -0.1058
  338loPI   C2B 5406   8.306  10.551   8.080  0.1512  0.2386  0.3776
  338loPI   C3B 5407   8.429  10.680   7.711  0.3557 -0.3774  0.4097
  338loPI   C4B 5408   8.390  11.129   7.530 -0.3243  0.0073  0.5146
  339loPI    C1 5409  18.753  11.584  10.328 -0.0137  0.1486 -0.1259
  339loPI    C2 5410  18.388  11.505  10.473  0.0996  0.1551  0.1691
  339loPI    C3 5411  18.709  11.325  10.629  0.2182  0.0902 -0.1411
  339loPI   PO4 5412  18.768  11.645  10.119 -0.1903 -0.1857 -0.2100
  339loPI   GL1 5413  18.638  11.734   9.694  0.0808  0.0460 -0.5225
  339loPI   GL2 5414  18.878  11.750   9.660 -0.1791 -0.0600  0.2658
  339loPI   C1A 5415  18.512  11.441   9.344  0.1382  0.0307 -0.1570
  339loPI   C2A 5416  18.631  11.427   8.954  0.1794  0.2475 -0.1529
  339loPI   C3A 5417  18.756  11.559   8.461  0.0872  0.2343 -0.0704
  339loPI   C4A 5418  18.851  11.875   8.117 -0.0920 -0.0197  0.2217
  339loPI   C5A 5419  19.215  12.063   7.849 -0.1073 -0.3414  0.1429
  339loPI   C6A 5420  19.740  12.348   7.959 -0.1992 -0.0741  0.1171
  339loPI   C1B 5421  18.934  11.673   9.295  0.1360 -0.0925 -0.0789
  339loPI   C2B 5422  18.955  11.844   8.883  0.0880  0.0132  0.0043
  339loPI   C3B 5423  19.144  11.878   8.522 -0.2263 -0.0190 -0.0115
  339loPI   C4B 5424  19.422  11.818   8.270 -0.0008  0.0529 -0.0599
  340loPI    C1 5425  10.140   2.104   8.767  0.1133  0.1301 -0.3261
  340loPI    C2 5426   9.912   2.431   8.734  0.0187  0.0699 -0.2759
  340loPI    C3 5427  10.246   2.441   8.955 -0.1445  0.0483 -0.0237
  340loPI   PO4 5428   9.984   1.918   8.790 -0.1243  0.0732  0.0348
  340loPI   GL1 5429   9.812   1.728   8.506 -0.0116  0.0304 -0.3529
  340loPI   GL2 5430  10.034   1.935   8.217 -0.0246  0.3024 -0.2135
  340loPI   C1A 5431   9.863   1.341   8.366 -0.1157 -0.1140 -0.1367
  340loPI   C2A 5432   9.886   1.137   8.038 -0.0890 -0.4489 -0.2461
  340loPI   C3A 5433   9.730   1.269   7.592  0.0689  0.0432  0.0032
  340loPI   C4A 5434   9.930   1.489   7.214  0.3489  0.3908 -0.1785
  340loPI   C5A 5435   9.763   1.678   6.730 -0.0962 -0.1272 -0.1641
  340loPI   C6A 5436   9.538   1.724   6.360 -0.0303  0.2000  0.0495
  340loPI   C1B 5437   9.891   1.771   7.889  0.1802  0.0316  0.2059
  340loPI   C2B 5438   9.753   1.803   7.479 -0.0879  0.0832 -0.1885
  340loPI   C3B 5439   9.485   2.006   7.399  0.2063 -0.1110  0.0555
  340loPI   C4B 5440   9.048   1.919   7.182 -0.2502  0.2401 -0.0244
  341loPI    C1 5441   8.132  11.810  10.065  0.1158 -0.1775  0.0677
  341loPI    C2 5442   8.461  11.673  10.247  0.1110  0.0991  0.2915
  341loPI    C3 5443   8.184  11.872  10.457 -0.2743 -0.2580  0.1363
  341loPI   PO4 5444   8.254  11.766   9.798 -0.2898 -0.1131  0.0877
  341loPI   GL1 5445   8.479  12.028   9.448  0.2110 -0.3149  0.2297
  341loPI   GL2 5446   8.755  12.044   9.207  0.0494 -0.1637 -0.2971
  341loPI   C1A 5447   8.196  12.048   9.077 -0.0315  0.1828 -0.0248
  341loPI   C2A 5448   8.394  12.034   8.674  0.0289 -0.3975 -0.0333
  341loPI   C3A 5449   8.189  12.067   8.268  0.2702  0.1148 -0.0010
  341loPI   C4A 5450   7.999  12.116   7.837 -0.0345 -0.7088 -0.1045
  341loPI   C5A 5451   7.800  12.304   7.489 -0.1306 -0.2214  0.5095
  341loPI   C6A 5452   7.625  12.606   7.198 -0.0228 -0.1464  0.3060
  341loPI   C1B 5453   8.587  11.726   8.969  0.2646 -0.1827 -0.1491
  341loPI   C2B 5454   8.068  11.587   8.842 -0.0642  0.2001 -0.1552
  341loPI   C3B 5455   7.768  11.920   8.757 -0.0507 -0.0464 -0.0187
  341loPI   C4B 5456   7.571  12.091   9.109 -0.3179 -0.2068 -0.1529
  342loPI    C1 5457   3.734   1.870   9.753  0.0978 -0.1041 -0.0246
  342loPI    C2 5458   3.683   2.102  10.075  0.0589 -0.0689 -0.0559
  342loPI    C3 5459   3.850   1.740  10.113  0.4570  0.1092 -0.0589
  342loPI   PO4 5460   3.578   1.835   9.615 -0.0570 -0.2219 -0.0873
  342loPI   GL1 5461   3.587   1.600   9.292  0.2556  0.2090 -0.0812
  342loPI   GL2 5462   3.183   1.526   9.258  0.2827 -0.2840  0.0023
  342loPI   C1A 5463   3.633   1.624   8.889 -0.1099 -0.2011  0.3391
  342loPI   C2A 5464   3.476   1.745   8.502 -0.1843  0.0539 -0.0290
  342loPI   C3A 5465   3.219   1.730   8.131 -0.0979  0.1691 -0.0058
  342loPI   C4A 5466   3.197   1.847   7.715 -0.4981 -0.0562 -0.2217
  342loPI   C5A 5467   3.171   1.701   7.321 -0.0875  0.1902 -0.0180
  342loPI   C6A 5468   3.183   1.668   6.872 -0.2243 -0.1162  0.0255
  342loPI   C1B 5469   3.106   1.683   8.911 -0.2019  0.1257  0.2172
  342loPI   C2B 5470   3.111   2.051   8.699 -0.2359 -0.0122  0.0721
  342loPI   C3B 5471   3.234   2.325   8.364  0.0701 -0.0959 -0.2835
  342loPI   C4B 5472   3.286   2.676   7.993 -0.0942 -0.0184  0.2906
  343loPI    C1 5473  14.318  17.150   9.917  0.2126  0.0876 -0.0482
  343loPI    C2 5474  13.982  17.313  10.062  0.2703  0.2247 -0.0674
  343loPI    C3 5475  14.157  17.010  10.255 -0.0127 -0.0290 -0.2010
  343loPI   PO4 5476  14.348  17.378   9.705  0.0923 -0.1073  0.1761
  343loPI   GL1 5477  14.280  17.598   9.356  0.1156 -0.0117  0.0522
  343loPI   GL2 5478  14.068  17.911   9.465 -0.1824  0.0646 -0.3063
  343loPI   C1A 5479  14.498  17.626   9.047  0.0827 -0.2611  0.3185
  343loPI   C2A 5480  14.648  17.538   8.668  0.0287 -0.2009 -0.1542
  343loPI   C3A 5481  14.605  17.646   8.251 -0.0596 -0.0781 -0.0147
  343loPI   C4A 5482  14.361  18.017   8.045 -0.0649 -0.0557 -0.3938
  343loPI   C5A 5483  14.154  18.260   7.622  0.0797  0.0569 -0.1193
  343loPI   C6A 5484  14.311  18.500   7.373  0.0098  0.0613  0.1465
  343loPI   C1B 5485  14.416  18.222   9.264  0.0023  0.0248 -0.1019
  343loPI   C2B 5486  14.746  18.044   9.051  0.1472  0.0629 -0.0487
  343loPI   C3B 5487  14.963  18.014   8.727  0.2099  0.1935  0.2752
  343loPI   C4B 5488  15.351  18.021   8.494 -0.0858  0.2656 -0.0988
  344loPI    C1 5489   9.931   2.869   9.237  0.1337  0.0876  0.0786
  344loPI    C2 5490   9.972   2.498   9.380  0.1326  0.0524 -0.0121
  344loPI    C3 5491   9.867   2.796   9.625  0.0722 -0.0186  0.0488
  344loPI   PO4 5492  10.037   2.863   9.037 -0.0173 -0.0543  0.2791
  344loPI   GL1 5493  10.276   2.856   8.592  0.1376  0.1270  0.1549
  344loPI   GL2 5494  10.111   3.185   8.640 -0.3411 -0.0498 -0.0309
  344loPI   C1A 5495  10.628   2.795   8.285  0.2317  0.2579 -0.2218
  344loPI   C2A 5496  10.753   2.764   7.767  0.2707 -0.1953  0.0964
  344loPI   C3A 5497  10.932   2.687   7.356  0.0545 -0.0055  0.0525
  344loPI   C4A 5498  11.131   2.402   7.072  0.1686 -0.1457 -0.0240
  344loPI   C5A 5499  11.495   2.116   7.144 -0.2435  0.0505  0.0621
  344loPI   C6A 5500  11.591   1.767   6.853  0.0677  0.0438 -0.1702
  344loPI   C1B 5501  10.469   3.251   8.358  0.0915 -0.2291  0.0785
  344loPI   C2B 5502  10.521   3.378   7.970 -0.1840 -0.0824 -0.1474
  344loPI   C3B 5503  10.617   3.203   7.559  0.2395  0.0099 -0.1511
  344loPI   C4B 5504  10.557   3.036   7.219  0.0975  0.0325 -0.3910
  345loPI    C1 5505   1.047   2.606   9.935  0.1387  0.1887 -0.0342
  345loPI    C2 5506   1.251   2.317  10.123 -0.1290 -0.0170 -0.0528
  345loPI    C3 5507   1.303   2.700  10.228  0.0247 -0.0948  0.1614
  345loPI   PO4 5508   0.919   2.513   9.773 -0.3046  0.1360  0.0434
  345loPI   GL1 5509   1.043   2.654   9.411 -0.0673  0.1275 -0.2578
  345loPI   GL2 5510   0.873   2.930   9.131 -0.2529  0.1910 -0.2501
  345loPI   C1A 5511   1.087   2.421   9.042 -0.2318 -0.1234 -0.0744
  345loPI   C2A 5512   1.246   2.304   8.640  0.3247 -0.0184 -0.1337
  345loPI   C3A 5513   1.240   2.263   8.229  0.0732 -0.0896  0.0276
  345loPI   C4A 5514   0.985   2.347   7.885  0.0981  0.1772 -0.1799
  345loPI   C5A 5515   0.928   2.421   7.473 -0.0708  0.2388 -0.1119
  345loPI   C6A 5516   1.088   2.464   7.088 -0.2271  0.6093  0.0808
  345loPI   C1B 5517   1.008   2.777   8.679 -0.1364 -0.1790 -0.1454
  345loPI   C2B 5518   1.115   2.716   8.244  0.0608 -0.1320  0.0005
  345loPI   C3B 5519   1.102   2.834   7.787  0.0183 -0.0576  0.2601
  345loPI   C4B 5520   1.362   2.802   7.378  0.3477  0.1062 -0.0362
  346loPI    C1 5521   6.841  13.107  10.425  0.1344  0.1246  0.1441
  346loPI    C2 5522   6.732  13.492  10.427 -0.2220  0.0276  0.1441
  346loPI    C3 5523   6.833  13.310  10.769  0.3339  0.2212  0.0930
  346loPI   PO4 5524   6.888  13.031  10.099  0.1735  0.0746  0.0598
  346loPI   GL1 5525   7.112  12.757   9.788 -0.0873  0.1846  0.0256
  346loPI   GL2 5526   6.969  13.089   9.611  0.1142 -0.1511  0.3084
  346loPI   C1A 5527   7.146  12.778   9.275 -0.0028 -0.1016  0.2391
  346loPI   C2A 5528   7.077  12.936   8.861 -0.1493  0.1383 -0.2725
  346loPI   C3A 5529   7.065  13.052   8.382 -0.4150 -0.1269 -0.0540
  346loPI   C4A 5530   6.910  13.255   8.095  0.3296 -0.2058  0.1799
  346loPI   C5A 5531   6.627  13.485   7.809 -0.0056  0.1837  0.0482
  346loPI   C6A 5532   6.410  13.809   7.762 -0.1989  0.0156  0.0348
  346loPI   C1B 5533   6.700  13.067   9.251  0.0287 -0.0798 -0.1034
  346loPI   C2B 5534   6.413  12.961   8.903  0.2677  0.0251 -0.0075
  346loPI   C3B 5535   6.332  13.129   8.507 -0.2338 -0.2380 -0.1210
  346loPI   C4B 5536   6.392  13.121   8.078  0.0830 -0.3298  0.3347
  347loPI    C1 5537   5.083   5.063   9.738 -0.0269  0.0341  0.0159
  347loPI    C2 5538   4.699   5.068   9.626  0.0342  0.3663 -0.1919
  347loPI    C3 5539   4.814   5.266   9.954  0.0075  0.1531 -0.0520
  347loPI   PO4 5540   5.224   5.135   9.497 -0.0200 -0.1090  0.0091
  347loPI   GL1 5541   4.819   5.145   9.137 -0.0530  0.2069 -0.0624
  347loPI   GL2 5542   4.903   4.828   9.228 -0.0699  0.3430 -0.0954
  347loPI   C1A 5543   5.151   5.295   8.776 -0.1738  0.1829  0.3195
  347loPI   C2A 5544   5.304   5.503   8.350  0.1909 -0.3856 -0.0841
  347loPI   C3A 5545   5.550   5.447   7.960 -0.1428 -0.3208  0.1887
  347loPI   C4A 5546   5.467   5.396   7.413  0.0874 -0.0702 -0.0763
  347loPI   C5A 5547   5.538   5.244   7.080 -0.4486  0.0758 -0.1074
  347loPI   C6A 5548   5.870   5.297   6.836 -0.1285 -0.3117 -0.3997
  347loPI   C1B 5549   4.896   4.800   8.762  0.0197 -0.3488 -0.0706
  347loPI   C2B 5550   4.878   4.965   8.493  0.0801 -0.1856 -0.0048
  347loPI   C3B 5551   4.727   5.048   8.050 -0.0939  0.0459 -0.1930
  347loPI   C4B 5552   4.595   5.257   7.683  0.1124 -0.0050 -0.0120
  348loPI    C1 5553   9.287  11.106   9.614 -0.0953  0.2377 -0.0691
  348loPI    C2 5554   9.165  11.174   9.988  0.1603  0.3256  0.0000
  348loPI    C3 5555   8.917  11.242   9.682 -0.1247  0.0472  0.1633
  348loPI   PO4 5556   9.585  11.145   9.645  0.3495 -0.2869  0.2778
  348loPI   GL1 5557   9.725  11.338   9.166  0.0069  0.0736 -0.1051
  348loPI   GL2 5558   9.403  11.067   9.062  0.0333 -0.3357 -0.0711
  348loPI   C1A 5559   9.781  11.534   8.718 -0.0446 -0.2221  0.0329
  348loPI   C2A 5560   9.821  11.736   8.298  0.4153 -0.2201  0.3607
  348loPI   C3A 5561   9.628  11.814   7.852  0.0953  0.0076 -0.0086
  348loPI   C4A 5562   9.305  11.855   7.555 -0.0894  0.1737  0.0311
  348loPI   C5A 5563   9.336  12.093   7.102 -0.0423 -0.1500  0.2331
  348loPI   C6A 5564   9.372  12.177   6.660 -0.1387 -0.4139 -0.1145
  348loPI   C1B 5565   9.264  11.511   8.972 -0.2031  0.0848  0.1079
  348loPI   C2B 5566   9.009  11.857   8.804 -0.1224 -0.1148 -0.0038
  348loPI   C3B 5567   8.845  12.195   8.683 -0.0681 -0.1545  0.0673
  348loPI   C4B 5568   8.855  12.657   8.757 -0.1619 -0.2921  0.1634
  349loPI    C1 5569   7.539  14.589  10.301  0.1061 -0.0531  0.2674
  349loPI    C2 5570   7.329  14.890  10.461 -0.0914 -0.0858  0.0742
  349loPI    C3 5571   7.726  14.877  10.506 -0.1030  0.1020  0.2442
  349loPI   PO4 5572   7.476  14.631   9.981 -0.1560  0.3004  0.0586
  349loPI   GL1 5573   7.679  14.841   9.561 -0.2397  0.1106  0.0789
  349loPI   GL2 5574   7.405  14.504   9.497 -0.1186  0.1812 -0.1348
  349loPI   C1A 5575   7.606  14.769   9.150 -0.3524 -0.1913 -0.1442
  349loPI   C2A 5576   7.743  14.531   8.785 -0.1857 -0.1482 -0.0879
  349loPI   C3A 5577   7.817  14.388   8.317  0.1185 -0.1694 -0.0906
  349loPI   C4A 5578   7.724  14.233   7.881 -0.1899  0.1308 -0.0095
  349loPI   C5A 5579   7.995  14.089   7.515 -0.1576  0.3571  0.0804
  349loPI   C6A 5580   8.124  13.771   7.193  0.2456  0.0431 -0.2057
  349loPI   C1B 5581   7.187  14.433   9.072  0.1370  0.1786  0.0108
  349loPI   C2B 5582   6.795  14.098   8.922  0.2132 -0.1136 -0.3805
  349loPI   C3B 5583   6.640  13.907   8.579  0.0516 -0.2602 -0.2121
  349loPI   C4B 5584   6.543  13.555   8.330 -0.3263 -0.0605 -0.2614
  350loPI    C1 5585   8.156   2.450   9.135  0.0337 -0.0424  0.3569
  350loPI    C2 5586   7.806   2.419   9.327 -0.2346  0.1495 -0.0855
  350loPI    C3 5587   8.036   2.742   9.382 -0.1215  0.0231  0.2058
  350loPI   PO4 5588   8.042   2.304   8.909 -0.0618 -0.0617 -0.1210
  350loPI   GL1 5589   8.207   2.339   8.465  0.1121 -0.2736 -0.3572
  350loPI   GL2 5590   8.111   2.672   8.371 -0.0677  0.1556 -0.0708
  350loPI   C1A 5591   8.287   2.192   8.010 -0.0377 -0.4581  0.0322
  350loPI   C2A 5592   8.167   2.234   7.644 -0.0486 -0.1033  0.2808
  350loPI   C3A 5593   8.193   2.080   7.216 -0.2890 -0.1364 -0.3770
  350loPI   C4A 5594   7.985   1.927   6.906  0.0976 -0.1584 -0.0276
  350loPI   C5A 5595   7.889   1.618   6.667 -0.0827 -0.1120  0.4102
  350loPI   C6A 5596   7.917   1.381   6.495 -0.1382 -0.0425 -0.1076
  350loPI   C1B 5597   7.967   2.660   7.952  0.2753  0.0374  0.2147
  350loPI   C2B 5598   7.984   2.691   7.500  0.0755  0.0826  0.0203
  350loPI   C3B 5599   8.109   2.732   7.168  0.1637 -0.0293  0.0766
  350loPI   C4B 5600   8.262   2.498   6.884 -0.4575 -0.0821 -0.3427
  351loPI    C1 5601  10.708   3.817   9.345  0.2085 -0.1214 -0.0988
  351loPI    C2 5602  10.901   3.525   9.539 -0.0294 -0.0848  0.1986
  351loPI    C3 5603  11.093   3.863   9.445  0.2278 -0.3043 -0.0854
  351loPI   PO4 5604  10.604   3.746   9.210 -0.1746  0.1452  0.0616
  351loPI   GL1 5605  10.552   3.843   8.839 -0.3820 -0.1412  0.3566
  351loPI   GL2 5606  10.432   3.567   8.759  0.0219  0.2249 -0.0977
  351loPI   C1A 5607  10.761   4.204   8.501 -0.1432  0.3192 -0.1954
  351loPI   C2A 5608  11.020   4.114   8.095  0.0061 -0.2806  0.0557
  351loPI   C3A 5609  11.254   4.071   7.770 -0.1269  0.0979 -0.1104
  351loPI   C4A 5610  11.615   4.018   7.464 -0.0424 -0.0595 -0.0706
  351loPI   C5A 5611  12.040   3.922   7.311 -0.3745  0.0759 -0.2888
  351loPI   C6A 5612  12.306   3.786   7.400 -0.1213  0.1615 -0.2321
  351loPI   C1B 5613  10.494   3.745   8.351  0.0733  0.2815 -0.0947
  351loPI   C2B 5614  10.537   3.969   7.997 -0.1728 -0.0014 -0.2778
  351loPI   C3B 5615  10.739   4.103   7.562 -0.0017  0.2831  0.1876
  351loPI   C4B 5616  10.731   4.442   7.280 -0.0917 -0.2066 -0.2265
  352loPI    C1 5617  11.873   8.300   9.489 -0.0059 -0.3954  0.0174
  352loPI    C2 5618  11.808   8.426   9.862  0.1547  0.1285 -0.1226
  352loPI    C3 5619  11.519   8.456   9.588  0.0515 -0.2152 -0.0560
  352loPI   PO4 5620  12.074   8.351   9.460  0.1881  0.0730 -0.0974
  352loPI   GL1 5621  12.261   8.538   9.124 -0.1565  0.0476  0.1002
  352loPI   GL2 5622  12.482   8.713   9.008 -0.3579 -0.4380  0.1654
  352loPI   C1A 5623  12.119   8.359   8.764  0.1436 -0.0154 -0.1359
  352loPI   C2A 5624  11.993   8.425   8.353 -0.0407  0.1202  0.0126
  352loPI   C3A 5625  11.960   8.214   7.915  0.0521 -0.1812  0.0947
  352loPI   C4A 5626  12.041   7.856   7.629  0.1233 -0.0869  0.0594
  352loPI   C5A 5627  12.019   7.364   7.368  0.0785  0.2072 -0.3039
  352loPI   C6A 5628  12.123   6.987   7.440  0.3405 -0.1284  0.4072
  352loPI   C1B 5629  12.366   8.781   8.543 -0.0128  0.1228  0.0401
  352loPI   C2B 5630  12.325   8.675   8.013  0.1967  0.0214 -0.0757
  352loPI   C3B 5631  12.231   8.969   7.675  0.0287  0.1414 -0.1111
  352loPI   C4B 5632  12.176   9.169   7.228  0.0691 -0.0284 -0.1063
  353loPI    C1 5633  13.417  11.327   9.952 -0.1088  0.2613  0.0259
  353loPI    C2 5634  13.205  11.505  10.241  0.0004  0.0468  0.2418
  353loPI    C3 5635  13.467  11.218  10.334  0.0795  0.0162 -0.0666
  353loPI   PO4 5636  13.192  11.329   9.724 -0.5612  0.4360  0.0325
  353loPI   GL1 5637  13.186  11.180   9.284 -0.1025 -0.0996  0.1426
  353loPI   GL2 5638  13.472  11.370   9.145  0.0784 -0.1880  0.0133
  353loPI   C1A 5639  13.081  11.082   8.852 -0.0322 -0.1153 -0.1220
  353loPI   C2A 5640  13.155  11.054   8.453  0.0880 -0.4636  0.2785
  353loPI   C3A 5641  13.098  11.081   8.082 -0.0888 -0.0188  0.0671
  353loPI   C4A 5642  13.135  11.190   7.631  0.5140  0.0044  0.2637
  353loPI   C5A 5643  13.075  10.842   7.266  0.0475  0.1404 -0.0799
  353loPI   C6A 5644  13.314  10.856   6.914 -0.0599  0.0089  0.1585
  353loPI   C1B 5645  13.631  11.324   8.733 -0.2533  0.0934  0.0477
  353loPI   C2B 5646  13.792  11.282   8.297 -0.0476  0.0148  0.1986
  353loPI   C3B 5647  13.622  11.157   7.758  0.0230  0.0411 -0.1499
  353loPI   C4B 5648  13.550  10.961   7.395 -0.0191  0.0734  0.1824
  354loPI    C1 5649  13.444  17.442  10.375 -0.0947  0.0549  0.2136
  354loPI    C2 5650  13.084  17.479  10.544 -0.1341  0.1636  0.1081
  354loPI    C3 5651  13.401  17.658  10.709 -0.1732  0.2737  0.0650
  354loPI   PO4 5652  13.472  17.565  10.124  0.0422  0.0596 -0.1886
  354loPI   GL1 5653  13.280  17.954   9.851 -0.1157 -0.1448  0.0548
  354loPI   GL2 5654  13.493  17.927   9.717 -0.1893 -0.1660  0.1573
  354loPI   C1A 5655  12.944  17.958   9.547  0.0670  0.0870  0.1400
  354loPI   C2A 5656  12.960  17.774   9.098 -0.0275 -0.1023  0.1735
  354loPI   C3A 5657  12.948  17.872   8.620  0.1339  0.0761 -0.0322
  354loPI   C4A 5658  13.021  17.588   8.277  0.1730  0.3051  0.1703
  354loPI   C5A 5659  13.191  17.421   7.857 -0.1778 -0.1750  0.3378
  354loPI   C6A 5660  13.098  17.178   7.568  0.0625 -0.0909  0.1959
  354loPI   C1B 5661  13.527  17.981   9.198 -0.2937  0.0519  0.1859
  354loPI   C2B 5662  13.617  17.853   8.793 -0.1445 -0.3411  0.0681
  354loPI   C3B 5663  13.416  17.942   8.377  0.0908  0.2771  0.3606
  354loPI   C4B 5664  13.202  18.087   7.987  0.0918  0.1875 -0.1002
  355loPI    C1 5665  16.010   7.009   9.786  0.4739  0.0046  0.1620
  355loPI    C2 5666  15.863   6.755  10.058 -0.0626  0.2007  0.0674
  355loPI    C3 5667  16.019   7.105  10.174  0.3706 -0.0203  0.1710
  355loPI   PO4 5668  15.728   7.121   9.632  0.2499  0.3901  0.3521
  355loPI   GL1 5669  15.458   7.363   9.321 -0.2049 -0.1405 -0.3951
  355loPI   GL2 5670  15.644   7.165   9.133 -0.0118  0.1549 -0.1658
  355loPI   C1A 5671  15.508   7.568   8.875 -0.1167 -0.0477 -0.0963
  355loPI   C2A 5672  15.400   7.564   8.507 -0.1111  0.2031 -0.2315
  355loPI   C3A 5673  15.268   7.402   8.172  0.0529  0.1305  0.1150
  355loPI   C4A 5674  15.048   7.496   7.829 -0.1141  0.0878  0.1785
  355loPI   C5A 5675  14.893   7.618   7.497  0.1505  0.1763  0.0892
  355loPI   C6A 5676  14.622   7.733   7.175  0.2283 -0.3313  0.2181
  355loPI   C1B 5677  15.777   7.064   8.762 -0.3466  0.2731 -0.0154
  355loPI   C2B 5678  15.663   7.089   8.299 -0.0031  0.3651  0.0647
  355loPI   C3B 5679  15.527   7.057   7.873 -0.1657 -0.0277  0.0859
  355loPI   C4B 5680  15.634   7.195   7.446  0.2470  0.2232  0.0179
  356loPI    C1 5681   1.480  14.221  10.585 -0.1276 -0.0647 -0.0025
  356loPI    C2 5682   1.858  14.279  10.704 -0.0343  0.0833 -0.3594
  356loPI    C3 5683   1.573  14.540  10.808 -0.0437 -0.0370 -0.0764
  356loPI   PO4 5684   1.485  14.224  10.290 -0.2660 -0.1891 -0.3133
  356loPI   GL1 5685   1.554  14.255   9.907 -0.0093  0.0478  0.4048
  356loPI   GL2 5686   1.776  14.068   9.692 -0.0869 -0.2937 -0.0026
  356loPI   C1A 5687   1.417  14.439   9.516  0.0707  0.0984  0.1690
  356loPI   C2A 5688   1.305  14.647   9.133 -0.3048 -0.0244 -0.1325
  356loPI   C3A 5689   1.339  14.638   8.773 -0.0461 -0.1245 -0.1382
  356loPI   C4A 5690   1.304  14.470   8.384 -0.1976 -0.0337  0.1851
  356loPI   C5A 5691   1.032  14.299   8.024  0.0954  0.1089 -0.1986
  356loPI   C6A 5692   0.915  14.099   7.693 -0.2159  0.3545  0.0131
  356loPI   C1B 5693   1.937  13.888   9.296  0.0887 -0.2098 -0.0486
  356loPI   C2B 5694   1.706  13.678   8.987  0.0071  0.1230 -0.4793
  356loPI   C3B 5695   1.778  13.391   8.663 -0.0814  0.1412 -0.0400
  356loPI   C4B 5696   2.070  13.300   8.488 -0.1712 -0.0998  0.1593
  357loPI    C1 5697  15.350   7.973   9.743  0.1999 -0.1158 -0.0472
  357loPI    C2 5698  15.158   7.632   9.660  0.1125 -0.1102  0.1255
  357loPI    C3 5699  15.503   7.623   9.862  0.0015 -0.0833  0.3178
  357loPI   PO4 5700  15.393   8.069   9.528 -0.3201  0.0167  0.1707
  357loPI   GL1 5701  15.399   7.998   9.120 -0.1911  0.1378  0.1345
  357loPI   GL2 5702  15.150   7.836   9.132 -0.2957  0.0079  0.0362
  357loPI   C1A 5703  15.475   8.056   8.633 -0.1499 -0.0247 -0.2231
  357loPI   C2A 5704  15.531   8.325   8.329 -0.0751  0.1604  0.1334
  357loPI   C3A 5705  15.543   8.299   7.964 -0.0059  0.0433  0.0140
  357loPI   C4A 5706  15.709   8.093   7.585  0.1651 -0.1102 -0.0478
  357loPI   C5A 5707  16.044   8.047   7.457  0.0831  0.0659  0.1002
  357loPI   C6A 5708  16.375   8.386   7.320 -0.0306  0.1041 -0.0164
  357loPI   C1B 5709  15.008   7.724   8.758 -0.0941  0.0086 -0.1154
  357loPI   C2B 5710  14.915   7.499   8.551  0.3842  0.2965 -0.0055
  357loPI   C3B 5711  14.831   7.131   8.185 -0.0660 -0.2992  0.1585
  357loPI   C4B 5712  14.698   7.056   7.793  0.1378  0.2012  0.3838
  358loPI    C1 5713   0.608  17.227  10.127  0.1131  0.3430 -0.0544
  358loPI    C2 5714   0.231  17.250  10.262  0.0607  0.4470 -0.2155
  358loPI    C3 5715   0.530  17.166  10.515 -0.1338 -0.1870 -0.1781
  358loPI   PO4 5716   0.626  17.094   9.889 -0.2383 -0.0079  0.1089
  358loPI   GL1 5717   0.554  17.174   9.515  0.1707  0.1339  0.4357
  358loPI   GL2 5718   0.794  16.830   9.443 -0.2951  0.3274  0.2658
  358loPI   C1A 5719   0.428  16.989   9.108  0.2098 -0.0521 -0.5077
  358loPI   C2A 5720   0.069  16.858   8.874 -0.0632 -0.0912  0.2719
  358loPI   C3A 5721  -0.067  16.773   8.435 -0.0463  0.0483 -0.2031
  358loPI   C4A 5722  -0.109  16.577   8.006  0.4635  0.2192 -0.3340
  358loPI   C5A 5723   0.074  16.461   7.746 -0.1254 -0.2358 -0.1478
  358loPI   C6A 5724   0.497  16.586   7.632 -0.0900 -0.0564 -0.2245
  358loPI   C1B 5725   0.952  17.153   9.175 -0.1583 -0.1792 -0.1399
  358loPI   C2B 5726   0.720  17.323   8.862  0.0492  0.1728 -0.1623
  358loPI   C3B 5727   0.581  17.728   8.696  0.3355 -0.0010  0.2098
  358loPI   C4B 5728   0.269  17.782   8.577 -0.2264 -0.1156 -0.1988
  359loPI    C1 5729   6.100  11.444  10.249 -0.1358  0.0468 -0.0561
  359loPI    C2 5730   5.745  11.618  10.310 -0.0130  0.3250 -0.1199
  359loPI    C3 5731   6.079  11.789  10.450  0.0970  0.0608 -0.0527
  359loPI   PO4 5732   6.120  11.388   9.970  0.0880 -0.1230  0.2997
  359loPI   GL1 5733   6.287  11.517   9.563  0.2415  0.2626  0.3041
  359loPI   GL2 5734   6.065  11.626   9.421  0.0248  0.1598  0.1211
  359loPI   C1A 5735   6.524  11.543   9.149 -0.0508  0.1273  0.2000
  359loPI   C2A 5736   6.377  11.590   8.732 -0.0068  0.0656  0.2153
  359loPI   C3A 5737   6.207  11.741   8.313  0.1246 -0.4214  0.0536
  359loPI   C4A 5738   5.976  11.622   7.977  0.1860 -0.5167  0.0113
  359loPI   C5A 5739   5.649  11.833   7.782  0.0374  0.2486  0.2042
  359loPI   C6A 5740   5.685  12.336   7.705  0.0581 -0.0350 -0.4512
  359loPI   C1B 5741   5.876  11.534   9.069 -0.0242  0.1648  0.2647
  359loPI   C2B 5742   5.861  11.683   8.676 -0.0630 -0.2688  0.0030
  359loPI   C3B 5743   5.676  11.835   8.321  0.0857  0.0178  0.1280
  359loPI   C4B 5744   6.030  12.169   8.110 -0.1458 -0.3057  0.0803
  360loPI    C1 5745   6.739  11.549   9.783  0.0059  0.1329 -0.1430
  360loPI    C2 5746   6.971  11.460   9.469  0.0051  0.0124 -0.1100
  360loPI    C3 5747   6.826  11.831   9.513 -0.1282 -0.0109 -0.3393
  360loPI   PO4 5748   6.717  11.264   9.838 -0.1512  0.4770  0.5114
  360loPI   GL1 5749   6.448  11.072   9.534  0.1067  0.3087 -0.1449
  360loPI   GL2 5750   6.739  11.026   9.362 -0.0328 -0.2086  0.2166
  360loPI   C1A 5751   6.238  11.090   9.107 -0.4556 -0.0030  0.1138
  360loPI   C2A 5752   6.002  11.164   8.752  0.1438  0.1766 -0.1166
  360loPI   C3A 5753   5.785  11.344   8.391  0.0771  0.1385  0.0149
  360loPI   C4A 5754   5.697  11.251   8.074  0.2952  0.0830  0.0652
  360loPI   C5A 5755   5.571  11.350   7.698  0.0963  0.1427  0.1553
  360loPI   C6A 5756   5.597  11.297   7.223  0.1173 -0.0420  0.1235
  360loPI   C1B 5757   6.888  11.167   8.981  0.0066  0.2876  0.2198
  360loPI   C2B 5758   6.979  11.089   8.559  0.1363 -0.1339 -0.0905
  360loPI   C3B 5759   7.124  10.915   8.083  0.2360 -0.1283  0.3542
  360loPI   C4B 5760   7.275  10.854   7.692 -0.2260  0.0257 -0.2218
  361loPI    C1 5761  19.249  13.947  10.045 -0.0954 -0.2575 -0.3448
  361loPI    C2 5762  19.216  13.555  10.116  0.2453 -0.2263  0.0208
  361loPI    C3 5763  19.319  13.804  10.412  0.0381  0.1415 -0.2090
  361loPI   PO4 5764  19.497  13.935   9.909 -0.0086 -0.1879  0.0286
  361loPI   GL1 5765  19.651  13.988   9.543  0.0280  0.1207 -0.2292
  361loPI   GL2 5766  19.508  13.642   9.496  0.0244  0.0296 -0.0251
  361loPI   C1A 5767  20.021  13.768   9.269  0.0894 -0.0305  0.2182
  361loPI   C2A 5768  20.024  13.950   8.852  0.1740  0.0348 -0.0150
  361loPI   C3A 5769  19.886  14.019   8.512 -0.1335  0.1663  0.1374
  361loPI   C4A 5770  19.463  14.120   8.268 -0.2973  0.2233 -0.3582
  361loPI   C5A 5771  19.170  14.094   7.855 -0.0079 -0.1133  0.0254
  361loPI   C6A 5772  19.153  14.146   7.456  0.1341 -0.1598  0.1643
  361loPI   C1B 5773  19.526  13.935   9.079  0.0560 -0.0782 -0.0896
  361loPI   C2B 5774  19.180  14.177   8.800  0.1375 -0.0360  0.0672
  361loPI   C3B 5775  18.931  14.158   8.349 -0.0387 -0.0735 -0.0320
  361loPI   C4B 5776  18.735  14.315   7.997 -0.2453  0.0579  0.2446
  362loPI    C1 5777   9.509   6.543   9.230  0.0674  0.0798 -0.1278
  362loPI    C2 5778   9.804   6.791   9.337 -0.1081  0.2044  0.0743
  362loPI    C3 5779   9.601   6.590   9.617  0.0269 -0.1644 -0.0869
  362loPI   PO4 5780   9.346   6.637   9.079  0.2467 -0.0499  0.0324
  362loPI   GL1 5781   9.466   6.771   8.708  0.0028 -0.3174 -0.1309
  362loPI   GL2 5782   9.779   6.607   8.781 -0.0493  0.0280  0.1162
  362loPI   C1A 5783   9.256   6.793   8.305 -0.2366  0.0886 -0.1145
  362loPI   C2A 5784   9.139   6.875   7.984 -0.0292 -0.0370 -0.2731
  362loPI   C3A 5785   9.192   6.940   7.541  0.1237  0.3068 -0.0272
  362loPI   C4A 5786   9.106   6.905   7.170 -0.1055 -0.1883 -0.2051
  362loPI   C5A 5787   8.822   6.672   6.906  0.0431 -0.0147 -0.2006
  362loPI   C6A 5788   8.424   6.503   6.815 -0.2229 -0.1843  0.3017
  362loPI   C1B 5789   9.778   6.751   8.345 -0.1417  0.1098  0.3416
  362loPI   C2B 5790  10.043   7.043   8.016 -0.1992  0.0706  0.0500
  362loPI   C3B 5791  10.239   7.214   7.593  0.1375  0.0521  0.2974
  362loPI   C4B 5792  10.173   7.081   7.141 -0.1722  0.0501 -0.1683
  363loPI    C1 5793  10.726  11.142   9.295  0.1315  0.0604  0.0894
  363loPI    C2 5794  10.498  11.159   9.623  0.0910  0.2367  0.0537
  363loPI    C3 5795  10.895  11.204   9.652  0.1492 -0.2737  0.1416
  363loPI   PO4 5796  10.554  11.022   9.172  0.1192  0.3483 -0.1994
  363loPI   GL1 5797  10.344  11.144   8.725  0.4315 -0.0189  0.3722
  363loPI   GL2 5798  10.016  11.021   8.828 -0.0352 -0.1075 -0.3865
  363loPI   C1A 5799  10.179  11.382   8.328  0.2584  0.0335 -0.0822
  363loPI   C2A 5800  10.258  11.678   8.017  0.3531  0.3459 -0.2157
  363loPI   C3A 5801  10.100  11.840   7.584  0.1179 -0.2713 -0.1678
  363loPI   C4A 5802   9.708  11.738   7.292 -0.0197  0.0747  0.1631
  363loPI   C5A 5803   9.633  11.449   6.933  0.1460 -0.0619 -0.1132
  363loPI   C6A 5804   9.675  11.423   6.534  0.3097 -0.0428 -0.1000
  363loPI   C1B 5805   9.833  11.092   8.433  0.1741 -0.3044 -0.1974
  363loPI   C2B 5806   9.571  11.298   8.053 -0.2049 -0.0073  0.4409
  363loPI   C3B 5807   9.268  11.293   7.744 -0.0926 -0.0652  0.2551
  363loPI   C4B 5808   9.402  11.152   7.307  0.0536  0.0160 -0.1334
  364loPI    C1 5809   4.153  19.059   9.833 -0.0756  0.1298 -0.1332
  364loPI    C2 5810   4.184  19.420  10.003  0.0641  0.0018  0.1174
  364loPI    C3 5811   4.491  19.163  10.019  0.0144 -0.0797 -0.1763
  364loPI   PO4 5812   4.123  19.094   9.647  0.0004 -0.0457 -0.0974
  364loPI   GL1 5813   3.992  18.972   9.336  0.0830  0.4324  0.0424
  364loPI   GL2 5814   3.681  18.897   9.260 -0.0034  0.1617 -0.1824
  364loPI   C1A 5815   4.110  19.053   8.882 -0.0776  0.0518  0.1482
  364loPI   C2A 5816   4.030  19.131   8.441 -0.3040  0.0184  0.0246
  364loPI   C3A 5817   3.948  18.860   8.135 -0.2789 -0.0159  0.2044
  364loPI   C4A 5818   3.995  18.841   7.666  0.2524  0.1005 -0.3080
  364loPI   C5A 5819   4.022  18.931   7.299 -0.2362  0.0724 -0.0486
  364loPI   C6A 5820   4.107  19.223   6.934 -0.2477 -0.1024  0.0940
  364loPI   C1B 5821   3.638  18.889   8.766 -0.0515  0.2965 -0.2874
  364loPI   C2B 5822   3.455  18.828   8.363 -0.4176  0.0224 -0.0623
  364loPI   C3B 5823   3.450  18.822   7.885 -0.2763  0.2125 -0.2217
  364loPI   C4B 5824   3.548  19.012   7.510 -0.0227  0.1406  0.0403
  365loPI    C1 5825  16.187  17.349  10.215  0.1703 -0.0452  0.1770
  365loPI    C2 5826  16.189  17.640  10.489  0.0253 -0.0132  0.1447
  365loPI    C3 5827  16.150  17.259  10.603 -0.1862  0.0114  0.1601
  365loPI   PO4 5828  16.257  17.534  10.002  0.1270 -0.2384  0.1959
  365loPI   GL1 5829  16.503  17.702   9.500  0.0499  0.1959 -0.1127
  365loPI   GL2 5830  16.714  17.505   9.517  0.0977 -0.2040  0.1251
  365loPI   C1A 5831  16.277  17.809   9.208  0.1147 -0.0575 -0.0962
  365loPI   C2A 5832  16.006  17.746   8.807 -0.1659  0.4014  0.0842
  365loPI   C3A 5833  16.037  17.801   8.382  0.0969  0.0117 -0.2279
  365loPI   C4A 5834  16.073  17.870   8.062 -0.0581 -0.1509  0.0153
  365loPI   C5A 5835  16.344  17.704   7.889  0.0953  0.0681 -0.4736
  365loPI   C6A 5836  16.743  17.781   7.781 -0.0008 -0.1328  0.2747
  365loPI   C1B 5837  16.779  17.535   9.108  0.0023  0.0201  0.2689
  365loPI   C2B 5838  16.904  17.533   8.694  0.0585  0.0269 -0.0281
  365loPI   C3B 5839  16.876  17.455   8.325  0.4097 -0.0241 -0.1187
  365loPI   C4B 5840  17.093  17.620   8.079  0.2346 -0.3203 -0.1104
  366loPI    C1 5841  13.307   2.004   9.736 -0.0952 -0.1071 -0.2681
  366loPI    C2 5842  13.229   2.396   9.749  0.2399 -0.0458  0.0671
  366loPI    C3 5843  13.054   2.148  10.010  0.2199 -0.0843  0.0173
  366loPI   PO4 5844  13.346   2.008   9.382  0.1752 -0.5030  0.0779
  366loPI   GL1 5845  13.732   1.899   9.184  0.2157 -0.1752  0.1507
  366loPI   GL2 5846  13.869   1.641   9.097 -0.1532  0.3498 -0.1142
  366loPI   C1A 5847  13.825   1.970   8.766  0.0498  0.1998 -0.0215
  366loPI   C2A 5848  13.776   1.962   8.269  0.2358 -0.1245  0.1091
  366loPI   C3A 5849  13.890   2.040   7.971 -0.2970  0.0833 -0.1152
  366loPI   C4A 5850  13.772   2.131   7.588 -0.2926 -0.0301  0.4417
  366loPI   C5A 5851  13.517   2.223   7.383 -0.2319  0.0058  0.1406
  366loPI   C6A 5852  13.376   2.514   7.489 -0.3690 -0.0309  0.3485
  366loPI   C1B 5853  14.213   1.646   8.800 -0.1815  0.0157  0.0328
  366loPI   C2B 5854  14.215   1.943   8.405 -0.0683 -0.1020 -0.0119
  366loPI   C3B 5855  14.326   1.800   7.998 -0.1600 -0.0603 -0.1186
  366loPI   C4B 5856  14.346   2.001   7.442  0.1954  0.5607 -0.3134
  367loPI    C1 5857   9.884   0.561   9.455  0.1160  0.0412  0.1014
  367loPI    C2 5858   9.825   0.528   9.849 -0.0096  0.1972  0.0968
  367loPI    C3 5859   9.908   0.885   9.689  0.3400  0.0853  0.0197
  367loPI   PO4 5860   9.729   0.499   9.336 -0.2073  0.1091  0.0675
  367loPI   GL1 5861   9.493   0.709   8.938  0.5284  0.0460 -0.0915
  367loPI   GL2 5862   9.141   0.754   8.925  0.1580 -0.1518 -0.2888
  367loPI   C1A 5863   9.470   0.555   8.558  0.2480 -0.3690  0.2729
  367loPI   C2A 5864   9.617   0.729   8.035 -0.0208 -0.2761 -0.1124
  367loPI   C3A 5865   9.834   0.763   7.578  0.0698 -0.3154 -0.2645
  367loPI   C4A 5866   9.746   0.527   7.072  0.1512  0.1131 -0.1480
  367loPI   C5A 5867   9.576   0.492   6.683 -0.1184  0.1706  0.3364
  367loPI   C6A 5868   9.646   0.658   6.239  0.1066  0.0469 -0.1623
  367loPI   C1B 5869   9.001   0.772   8.601 -0.4578 -0.1720  0.1911
  367loPI   C2B 5870   8.884   0.595   8.228 -0.0838 -0.2066  0.0675
  367loPI   C3B 5871   8.775   0.715   7.814  0.2772  0.0381  0.0165
  367loPI   C4B 5872   8.837   0.595   7.407 -0.0179 -0.0316 -0.1425
  368loPI    C1 5873  14.066  18.700  10.085 -0.1554  0.1865  0.0155
  368loPI    C2 5874  14.081  18.485  10.422  0.2089  0.0546 -0.0798
  368loPI    C3 5875  14.244  18.850  10.411 -0.0503  0.1743 -0.0360
  368loPI   PO4 5876  13.857  18.682   9.946  0.1269 -0.0715  0.0287
  368loPI   GL1 5877  13.334  18.714   9.884  0.2840  0.1884  0.0837
  368loPI   GL2 5878  13.424  18.441   9.816  0.0322  0.1786  0.1127
  368loPI   C1A 5879  12.952  18.893   9.626  0.0022 -0.1003  0.2863
  368loPI   C2A 5880  12.949  18.951   9.172 -0.2933  0.0432 -0.2706
  368loPI   C3A 5881  12.834  18.672   8.864 -0.2053 -0.4595 -0.1021
  368loPI   C4A 5882  12.856  18.756   8.367 -0.0096  0.1310 -0.0406
  368loPI   C5A 5883  13.070  18.719   7.961 -0.0336  0.1347  0.5173
  368loPI   C6A 5884  13.302  18.544   7.599  0.0743 -0.1787 -0.3714
  368loPI   C1B 5885  13.509  18.416   9.409  0.3555  0.1093 -0.0137
  368loPI   C2B 5886  13.641  18.457   8.907 -0.3962 -0.1389 -0.1684
  368loPI   C3B 5887  13.735  18.310   8.569 -0.1212 -0.1770 -0.0719
  368loPI   C4B 5888  13.949  18.143   8.376  0.0034 -0.1644 -0.0895
  369loPI    C1 5889   8.594  10.385   9.513  0.1504  0.1426 -0.0815
  369loPI    C2 5890   8.410  10.455   9.861 -0.0810 -0.0115 -0.1704
  369loPI    C3 5891   8.603  10.109   9.803 -0.0196  0.0252 -0.1859
  369loPI   PO4 5892   8.511  10.470   9.301  0.3209  0.2490  0.0601
  369loPI   GL1 5893   8.677  10.437   8.894 -0.0173  0.0174  0.0678
  369loPI   GL2 5894   9.024  10.335   8.992 -0.0608  0.0468 -0.1849
  369loPI   C1A 5895   8.701  10.738   8.640  0.0951 -0.1369  0.1632
  369loPI   C2A 5896   8.576  11.028   8.264  0.0107 -0.1002 -0.0851
  369loPI   C3A 5897   8.698  11.361   7.963  0.1775  0.1601  0.0873
  369loPI   C4A 5898   8.854  11.624   7.762  0.4404 -0.0107 -0.1535
  369loPI   C5A 5899   8.838  11.903   7.442  0.2647  0.0616 -0.0769
  369loPI   C6A 5900   8.878  11.964   6.991  0.0047 -0.0068  0.0649
  369loPI   C1B 5901   9.172  10.684   8.578  0.2231 -0.3583 -0.1021
  369loPI   C2B 5902   9.377  11.043   8.550  0.0903  0.3150 -0.0436
  369loPI   C3B 5903   9.345  11.489   8.503  0.1770  0.2591  0.1500
  369loPI   C4B 5904   9.181  11.653   8.131  0.0229  0.0196  0.0365
  370loPI    C1 5905  14.808   6.089   9.838 -0.0325 -0.0545  0.0593
  370loPI    C2 5906  15.001   5.744   9.902  0.0637  0.0182  0.1641
  370loPI    C3 5907  14.835   5.941  10.208 -0.2901 -0.1079  0.0588
  370loPI   PO4 5908  14.601   6.035   9.664  0.2042  0.2770  0.2059
  370loPI   GL1 5909  14.363   6.226   9.320 -0.1107 -0.1573 -0.0726
  370loPI   GL2 5910  14.585   6.458   9.305 -0.1575  0.1208 -0.4514
  370loPI   C1A 5911  14.358   6.053   8.885  0.1450 -0.0678 -0.1318
  370loPI   C2A 5912  14.337   5.845   8.415 -0.3041  0.1774 -0.0492
  370loPI   C3A 5913  14.093   5.975   8.069 -0.0750  0.2312  0.0173
  370loPI   C4A 5914  14.444   5.896   7.763 -0.0279  0.0889  0.0845
  370loPI   C5A 5915  14.638   5.697   7.512  0.1473 -0.0429  0.0067
  370loPI   C6A 5916  14.930   5.450   7.254 -0.2954  0.0353  0.1200
  370loPI   C1B 5917  14.864   6.672   9.069  0.0490 -0.0619  0.0451
  370loPI   C2B 5918  15.297   6.710   9.008 -0.3315  0.0007 -0.1819
  370loPI   C3B 5919  15.681   6.601   9.112 -0.0126 -0.1394 -0.0435
  370loPI   C4B 5920  16.145   6.775   9.035 -0.0138  0.0591  0.1317
  371loPI    C1 5921   2.150  14.011  10.392  0.2008 -0.0803 -0.2552
  371loPI    C2 5922   1.803  13.838  10.492  0.3289 -0.0991  0.1766
  371loPI    C3 5923   2.136  13.618  10.463  0.3676 -0.0287  0.0799
  371loPI   PO4 5924   1.983  14.182  10.111 -0.5095 -0.0304  0.2224
  371loPI   GL1 5925   2.296  14.443   9.722 -0.3787 -0.3471  0.2228
  371loPI   GL2 5926   2.027  14.621   9.821 -0.1977  0.1019 -0.0651
  371loPI   C1A 5927   2.182  14.337   9.319  0.0877  0.2630  0.0863
  371loPI   C2A 5928   2.208  14.216   8.872  0.0168  0.2578  0.0986
  371loPI   C3A 5929   2.100  14.224   8.441 -0.2335 -0.1973  0.2889
  371loPI   C4A 5930   2.308  14.341   8.031  0.0154  0.0341  0.0680
  371loPI   C5A 5931   2.547  14.625   7.766 -0.0345  0.1782 -0.1106
  371loPI   C6A 5932   2.632  14.893   7.408 -0.0757  0.0949 -0.1541
  371loPI   C1B 5933   1.881  14.713   9.399  0.0275  0.1797  0.0190
  371loPI   C2B 5934   1.779  14.623   9.029 -0.2906 -0.1224  0.2127
  371loPI   C3B 5935   1.786  14.681   8.575 -0.1936  0.0741  0.2452
  371loPI   C4B 5936   1.771  14.578   8.179  0.1227  0.0151  0.1445
  372loPI    C1 5937   6.464   7.811   9.615  0.1251  0.1169  0.0413
  372loPI    C2 5938   6.341   8.190   9.584  0.0321  0.0860  0.0282
  372loPI    C3 5939   6.297   7.993   9.929 -0.1190  0.0186 -0.0286
  372loPI   PO4 5940   6.426   7.758   9.383 -0.2327 -0.3449 -0.1229
  372loPI   GL1 5941   6.107   7.828   9.005  0.0687  0.1952 -0.2089
  372loPI   GL2 5942   6.188   7.489   9.040 -0.1191 -0.3724  0.3738
  372loPI   C1A 5943   5.816   7.815   8.610 -0.0889  0.1391  0.0197
  372loPI   C2A 5944   5.752   7.995   8.145  0.1496  0.2345  0.0538
  372loPI   C3A 5945   5.472   7.928   7.830  0.5730 -0.4311 -0.2128
  372loPI   C4A 5946   5.567   7.989   7.440  0.1497  0.1162  0.0092
  372loPI   C5A 5947   5.639   7.825   7.044  0.1556 -0.0831 -0.3479
  372loPI   C6A 5948   5.736   7.765   6.706 -0.0954 -0.1229  0.0389
  372loPI   C1B 5949   6.281   7.557   8.589 -0.1497 -0.0986  0.2445
  372loPI   C2B 5950   6.178   7.653   8.281 -0.1922  0.1014 -0.2103
  372loPI   C3B 5951   5.982   7.694   7.863 -0.3125 -0.0433  0.1512
  372loPI   C4B 5952   6.017   8.096   7.609  0.1328  0.1781 -0.1756
  373loPI    C1 5953   6.031   6.468   9.383 -0.0711 -0.3072  0.1394
  373loPI    C2 5954   5.841   6.799   9.503  0.2615 -0.1097  0.1317
  373loPI    C3 5955   6.056   6.586   9.765  0.0322 -0.3335  0.1410
  373loPI   PO4 5956   5.957   6.574   9.056 -0.0103 -0.2945  0.2605
  373loPI   GL1 5957   5.889   6.531   8.707  0.2414  0.0764 -0.0822
  373loPI   GL2 5958   5.625   6.759   8.584 -0.3391  0.0231  0.3007
  373loPI   C1A 5959   6.033   6.678   8.244  0.3508 -0.0897 -0.1335
  373loPI   C2A 5960   6.016   6.688   7.847  0.0023 -0.1888  0.1226
  373loPI   C3A 5961   6.037   6.684   7.441 -0.0578  0.1087 -0.4020
  373loPI   C4A 5962   5.717   6.610   7.114  0.0879 -0.0299 -0.0160
  373loPI   C5A 5963   5.700   6.278   6.787 -0.2450  0.0355 -0.1779
  373loPI   C6A 5964   5.675   6.353   6.357  0.0819  0.2607 -0.2200
  373loPI   C1B 5965   5.604   6.490   8.267 -0.0262 -0.2158 -0.3058
  373loPI   C2B 5966   5.484   6.565   7.757  0.0241 -0.0103  0.2664
  373loPI   C3B 5967   5.208   6.644   7.536 -0.0771 -0.0679 -0.0999
  373loPI   C4B 5968   4.930   6.631   7.215  0.4134 -0.0714  0.2596
  374loPI    C1 5969   4.234   5.341   9.653 -0.3018  0.2064 -0.0748
  374loPI    C2 5970   4.136   5.609   9.933 -0.0251  0.2102  0.0219
  374loPI    C3 5971   4.288   5.255  10.040  0.2275  0.2711 -0.1261
  374loPI   PO4 5972   4.171   5.385   9.403  0.1085  0.0912  0.1384
  374loPI   GL1 5973   4.222   5.275   9.040 -0.0364  0.2199  0.2782
  374loPI   GL2 5974   3.877   5.277   8.950 -0.0535  0.1214 -0.0085
  374loPI   C1A 5975   4.243   5.654   8.692  0.0312 -0.0333 -0.0278
  374loPI   C2A 5976   3.980   5.709   8.312  0.1426 -0.0878 -0.1680
  374loPI   C3A 5977   3.958   5.822   7.901 -0.3126 -0.1275  0.3037
  374loPI   C4A 5978   3.651   6.027   7.641  0.1588  0.0978 -0.1099
  374loPI   C5A 5979   3.243   6.026   7.714  0.0230 -0.2206 -0.0705
  374loPI   C6A 5980   2.811   5.786   7.681 -0.1029 -0.0571 -0.0318
  374loPI   C1B 5981   3.826   5.103   8.557  0.3678  0.3230 -0.3047
  374loPI   C2B 5982   3.703   5.146   8.093 -0.2979 -0.2608  0.0347
  374loPI   C3B 5983   3.524   5.522   7.880 -0.0987 -0.0674  0.0245
  374loPI   C4B 5984   3.290   5.485   7.500  0.3849  0.2804  0.0491
  375loPI    C1 5985  13.404   2.839   9.829 -0.1042 -0.1805  0.0839
  375loPI    C2 5986  13.591   2.905  10.176 -0.0364 -0.1108  0.0342
  375loPI    C3 5987  13.230   2.734  10.173 -0.0829 -0.0153  0.1458
  375loPI   PO4 5988  13.572   3.142   9.730 -0.0584 -0.0850  0.3659
  375loPI   GL1 5989  13.338   3.345   9.422  0.3104  0.1218  0.1236
  375loPI   GL2 5990  13.341   3.043   9.206 -0.0825  0.1487  0.3382
  375loPI   C1A 5991  13.075   3.729   9.397 -0.3284 -0.0567 -0.3652
  375loPI   C2A 5992  12.720   3.858   9.081 -0.3051  0.1631  0.1796
  375loPI   C3A 5993  12.676   3.714   8.689  0.1286  0.2398 -0.0387
  375loPI   C4A 5994  12.402   3.749   8.350  0.1542  0.1449  0.0390
  375loPI   C5A 5995  12.615   3.603   8.019  0.0815 -0.1383 -0.4360
  375loPI   C6A 5996  12.768   3.614   7.600  0.1051 -0.2854 -0.1101
  375loPI   C1B 5997  13.467   3.208   8.795 -0.0811 -0.1010  0.1019
  375loPI   C2B 5998  13.538   3.343   8.406  0.0274 -0.0786  0.0672
  375loPI   C3B 5999  13.416   3.266   8.021 -0.2870 -0.1071 -0.0804
  375loPI   C4B 6000  13.262   2.826   7.893 -0.1113 -0.1425 -0.2462
  376loPI    C1 6001   3.013   9.352   9.811  0.3849  0.2272 -0.3252
  376loPI    C2 6002   3.081   9.744   9.774 -0.0110  0.3539  0.1836
  376loPI    C3 6003   2.806   9.612  10.033  0.0143 -0.2570 -0.0844
  376loPI   PO4 6004   2.994   9.318   9.546  0.4027  0.1893  0.1300
  376loPI   GL1 6005   2.811   9.325   9.081 -0.1817  0.0107 -0.1321
  376loPI   GL2 6006   2.567   9.617   9.083 -0.2990 -0.0454  0.0418
  376loPI   C1A 6007   3.266   9.390   8.890 -0.4154  0.0454  0.0733
  376loPI   C2A 6008   3.262   9.431   8.351  0.0078 -0.0694 -0.0694
  376loPI   C3A 6009   3.285   9.536   7.939 -0.2111  0.1573  0.1048
  376loPI   C4A 6010   3.273   9.308   7.473  0.0413  0.0691  0.1174
  376loPI   C5A 6011   3.174   8.987   7.029  0.2671  0.1247  0.2343
  376loPI   C6A 6012   2.867   8.728   6.864  0.0044  0.3574  0.0047
  376loPI   C1B 6013   2.250   9.609   8.739 -0.1280  0.3905 -0.0686
  376loPI   C2B 6014   1.938   9.556   8.439  0.2964  0.0460 -0.0561
  376loPI   C3B 6015   1.906   9.868   8.078 -0.1439 -0.2771 -0.0162
  376loPI   C4B 6016   1.784   9.710   7.745 -0.1271 -0.2038 -0.0788
  377loPI    C1 6017  18.994   4.682   9.688  0.1125  0.0159 -0.1124
  377loPI    C2 6018  18.727   4.723   9.983  0.2184 -0.0783 -0.0031
  377loPI    C3 6019  19.070   4.929   9.993  0.0933  0.1436 -0.2104
  377loPI   PO4 6020  18.940   4.523   9.447 -0.1445  0.0383  0.0471
  377loPI   GL1 6021  18.857   4.321   9.094  0.1159 -0.0821  0.1555
  377loPI   GL2 6022  19.118   4.162   9.227 -0.0607 -0.0124  0.1215
  377loPI   C1A 6023  18.898   4.094   8.691 -0.1230 -0.0806  0.2063
  377loPI   C2A 6024  18.869   3.833   8.254  0.0310  0.0294  0.2680
  377loPI   C3A 6025  19.154   3.941   7.831  0.0723 -0.2654  0.0523
  377loPI   C4A 6026  19.401   3.924   7.454  0.1748 -0.6499  0.2827
  377loPI   C5A 6027  19.609   3.749   7.183  0.2097 -0.2299  0.0346
  377loPI   C6A 6028  19.682   3.779   6.772  0.2434 -0.2191  0.0132
  377loPI   C1B 6029  19.438   4.032   8.805 -0.1809 -0.0487 -0.1066
  377loPI   C2B 6030  19.333   3.870   8.462 -0.0586  0.2251  0.0265
  377loPI   C3B 6031  19.215   3.387   8.341 -0.2545 -0.0844 -0.3721
  377loPI   C4B 6032  19.201   3.108   8.032  0.0754  0.1506 -0.0712
  378loPI    C1 6033  16.418  11.870  10.044 -0.1879  0.1073 -0.0072
  378loPI    C2 6034  16.059  11.768   9.900 -0.2692 -0.1031  0.3331
  378loPI    C3 6035  16.137  11.727  10.290  0.1469 -0.1182  0.2531
  378loPI   PO4 6036  16.529  12.036   9.798  0.0168 -0.3253  0.0785
  378loPI   GL1 6037  16.737  11.820   9.520 -0.1902  0.0057 -0.1329
  378loPI   GL2 6038  16.344  11.899   9.368  0.0904 -0.2901  0.0957
  378loPI   C1A 6039  16.770  11.775   9.074 -0.2222 -0.1063  0.1526
  378loPI   C2A 6040  16.779  11.900   8.657  0.0950 -0.4049 -0.0543
  378loPI   C3A 6041  16.722  11.842   8.202 -0.0225 -0.2875  0.1505
  378loPI   C4A 6042  16.434  11.917   7.877 -0.0395 -0.1079 -0.1977
  378loPI   C5A 6043  16.172  12.349   7.758 -0.0390  0.1850 -0.1942
  378loPI   C6A 6044  15.834  12.460   7.554  0.1991  0.2162 -0.0734
  378loPI   C1B 6045  15.964  11.970   9.077  0.3226  0.0003 -0.0632
  378loPI   C2B 6046  15.889  12.288   8.795 -0.0060  0.2291  0.0343
  378loPI   C3B 6047  16.013  12.599   8.459  0.2687  0.1627 -0.0890
  378loPI   C4B 6048  15.788  12.525   8.029  0.1956 -0.1225  0.0255
  379loPI    C1 6049  12.053   2.531   9.817  0.1569 -0.2748 -0.1909
  379loPI    C2 6050  11.688   2.369   9.841 -0.2308  0.5631 -0.0376
  379loPI    C3 6051  11.954   2.308  10.134 -0.2557 -0.0067 -0.1221
  379loPI   PO4 6052  12.104   2.547   9.587  0.1428 -0.0951  0.1032
  379loPI   GL1 6053  12.232   2.550   9.279  0.3616  0.2334 -0.4540
  379loPI   GL2 6054  12.538   2.497   9.244 -0.0232  0.0778 -0.2111
  379loPI   C1A 6055  11.934   2.443   8.992  0.3318  0.2735 -0.0413
  379loPI   C2A 6056  11.936   2.209   8.665 -0.2787  0.4351 -0.0383
  379loPI   C3A 6057  12.181   2.239   8.223 -0.0701 -0.2234 -0.1156
  379loPI   C4A 6058  12.159   2.468   7.814 -0.0567 -0.1471  0.2391
  379loPI   C5A 6059  11.893   2.631   7.368  0.2814  0.3195 -0.0299
  379loPI   C6A 6060  11.623   2.585   7.012 -0.0069  0.1273  0.0172
  379loPI   C1B 6061  12.456   2.286   8.942 -0.4003  0.1980  0.1594
  379loPI   C2B 6062  12.507   2.045   8.574  0.0257  0.2397  0.1108
  379loPI   C3B 6063  12.676   2.039   8.286 -0.0606 -0.0058  0.3277
  379loPI   C4B 6064  12.591   1.797   7.841 -0.1502  0.2111 -0.0981
  380loPI    C1 6065   8.260  16.249  10.004 -0.2052 -0.0435 -0.0802
  380loPI    C2 6066   7.968  16.066  10.206 -0.0954 -0.0742  0.0527
  380loPI    C3 6067   8.127  16.404  10.347 -0.0718 -0.0533 -0.0235
  380loPI   PO4 6068   8.239  16.328   9.822 -0.1174 -0.0093 -0.0394
  380loPI   GL1 6069   8.177  16.245   9.450 -0.2090 -0.1961 -0.0907
  380loPI   GL2 6070   7.891  16.147   9.282  0.1608  0.0646  0.0364
  380loPI   C1A 6071   8.379  16.444   9.001 -0.0756 -0.2580  0.0896
  380loPI   C2A 6072   8.592  16.374   8.625  0.0825 -0.2324 -0.4998
  380loPI   C3A 6073   8.944  16.196   8.559  0.1459  0.0507 -0.1404
  380loPI   C4A 6074   9.127  16.277   8.159  0.0367  0.2688 -0.1059
  380loPI   C5A 6075   9.218  15.993   7.881  0.0634 -0.0591 -0.1117
  380loPI   C6A 6076   9.470  16.018   7.581 -0.4382  0.1513 -0.0261
  380loPI   C1B 6077   7.886  16.275   8.854  0.1057 -0.1044 -0.1582
  380loPI   C2B 6078   8.139  16.497   8.507  0.0398 -0.2872  0.2765
  380loPI   C3B 6079   8.534  16.566   8.132 -0.1771  0.4341  0.0549
  380loPI   C4B 6080   8.729  16.641   7.791  0.0494  0.1336  0.2317
  381loPI    C1 6081  12.500  11.701   9.727  0.1407 -0.1177 -0.0333
  381loPI    C2 6082  12.620  11.329   9.642  0.1455 -0.1375  0.0597
  381loPI    C3 6083  12.732  11.502   9.985  0.2652  0.0042 -0.0500
  381loPI   PO4 6084  12.399  11.755   9.477  0.1964 -0.3264 -0.0345
  381loPI   GL1 6085  12.571  11.994   9.232  0.0765  0.0296  0.2401
  381loPI   GL2 6086  12.831  12.092   9.313 -0.0346  0.1111 -0.0942
  381loPI   C1A 6087  12.503  12.017   8.778 -0.1672  0.0701  0.1975
  381loPI   C2A 6088  12.538  11.992   8.359 -0.2257  0.0349 -0.0801
  381loPI   C3A 6089  12.555  11.933   7.942  0.1341 -0.0805  0.5931
  381loPI   C4A 6090  12.392  11.890   7.539 -0.0126  0.3214 -0.3047
  381loPI   C5A 6091  12.530  12.142   7.163  0.1551 -0.1801  0.2979
  381loPI   C6A 6092  12.422  12.201   6.816  0.0420 -0.0768  0.1683
  381loPI   C1B 6093  12.977  12.112   8.951  0.1730  0.0004  0.0188
  381loPI   C2B 6094  13.053  12.128   8.510  0.0338  0.1990 -0.2594
  381loPI   C3B 6095  13.143  11.976   8.145  0.0476  0.0729  0.2354
  381loPI   C4B 6096  13.024  11.933   7.730 -0.0979  0.2443 -0.2050
  382loPI    C1 6097   7.070   9.572   9.402 -0.0581 -0.1830  0.2182
  382loPI    C2 6098   7.416   9.648   9.587 -0.0182 -0.4140  0.2424
  382loPI    C3 6099   7.075   9.642   9.796 -0.0744  0.0576  0.1771
  382loPI   PO4 6100   7.167   9.640   9.164  0.1351  0.1008 -0.2557
  382loPI   GL1 6101   7.565   9.614   8.930  0.0117  0.4171  0.0810
  382loPI   GL2 6102   7.785   9.757   8.873  0.2251  0.0025  0.1542
  382loPI   C1A 6103   7.491   9.745   8.400  0.0251  0.3413 -0.1419
  382loPI   C2A 6104   7.717   9.781   7.971 -0.1683  0.3109  0.1417
  382loPI   C3A 6105   7.575   9.840   7.546  0.1162 -0.0005 -0.2863
  382loPI   C4A 6106   7.465  10.095   7.135  0.2867 -0.1922  0.1178
  382loPI   C5A 6107   7.684  10.433   6.946  0.3579  0.1393  0.3363
  382loPI   C6A 6108   7.953  10.767   6.740  0.4497 -0.1077 -0.1127
  382loPI   C1B 6109   7.946   9.829   8.524  0.1295  0.0092 -0.1188
  382loPI   C2B 6110   7.914  10.186   8.302 -0.1677 -0.0712  0.3886
  382loPI   C3B 6111   7.944  10.306   7.789  0.3941 -0.0151  0.1263
  382loPI   C4B 6112   7.997  10.163   7.292  0.2949 -0.0085 -0.1482
  383loPI    C1 6113   2.964  11.119  10.134 -0.0172  0.0153 -0.1809
  383loPI    C2 6114   3.272  11.071  10.385 -0.2493  0.0009  0.1063
  383loPI    C3 6115   2.945  10.843  10.423 -0.3236  0.0611 -0.1541
  383loPI   PO4 6116   3.046  11.079   9.942  0.2348 -0.0342 -0.0862
  383loPI   GL1 6117   3.012  11.080   9.486  0.2676  0.2494 -0.0212
  383loPI   GL2 6118   2.818  11.155   9.169  0.1180 -0.0317 -0.1736
  383loPI   C1A 6119   3.333  10.937   9.183  0.0531 -0.3563 -0.1659
  383loPI   C2A 6120   3.322  10.721   8.693  0.3093  0.0224 -0.0602
  383loPI   C3A 6121   3.114  10.695   8.338  0.3737  0.1342  0.0368
  383loPI   C4A 6122   2.980  10.481   7.941 -0.2601 -0.1389 -0.1969
  383loPI   C5A 6123   2.755  10.253   7.637  0.2064 -0.2911  0.1230
  383loPI   C6A 6124   2.657  10.403   7.090 -0.1609  0.0949 -0.1279
  383loPI   C1B 6125   2.837  11.097   8.766  0.2838 -0.1651 -0.2079
  383loPI   C2B 6126   2.645  10.988   8.419 -0.3418  0.0809  0.0438
  383loPI   C3B 6127   2.559  10.641   7.987 -0.2279  0.0909 -0.1155
  383loPI   C4B 6128   2.251  10.569   7.627  0.1951  0.3055 -0.1477
  384loPI    C1 6129  11.260  13.076   9.959 -0.1910 -0.2464 -0.1574
  384loPI    C2 6130  11.208  13.107  10.354  0.1486  0.1132 -0.1354
  384loPI    C3 6131  11.558  12.981  10.207  0.0134 -0.0488 -0.3239
  384loPI   PO4 6132  11.131  12.934   9.845  0.1475  0.2388 -0.0622
  384loPI   GL1 6133  11.143  12.816   9.385  0.1094  0.0633  0.0580
  384loPI   GL2 6134  11.459  12.794   9.278 -0.2481  0.1126 -0.0939
  384loPI   C1A 6135  10.829  12.841   9.038 -0.1802  0.2225 -0.2792
  384loPI   C2A 6136  10.538  13.018   8.663  0.0437 -0.2213  0.0621
  384loPI   C3A 6137  10.467  13.264   8.390 -0.3026  0.0427 -0.0289
  384loPI   C4A 6138  10.652  13.608   8.047 -0.1497  0.0178 -0.3121
  384loPI   C5A 6139  10.501  13.963   7.765  0.1526 -0.0796  0.2549
  384loPI   C6A 6140  10.329  14.289   7.528  0.0167  0.1632 -0.2046
  384loPI   C1B 6141  11.283  12.841   8.863  0.0701  0.0340  0.2199
  384loPI   C2B 6142  11.148  12.856   8.523  0.1138 -0.3646  0.3310
  384loPI   C3B 6143  10.810  12.718   8.288 -0.0567  0.0922  0.0575
  384loPI   C4B 6144  10.671  12.527   7.901 -0.0224  0.2437 -0.0396
  385loPI    C1 6145   1.780   4.448   9.653 -0.2522 -0.0507 -0.0748
  385loPI    C2 6146   1.841   4.629  10.005 -0.1938 -0.0481 -0.0863
  385loPI    C3 6147   1.752   4.239   9.993 -0.1168 -0.0663 -0.0726
  385loPI   PO4 6148   1.635   4.565   9.533  0.2842 -0.0105 -0.1612
  385loPI   GL1 6149   1.699   4.840   9.208 -0.2976  0.1586 -0.1077
  385loPI   GL2 6150   2.014   4.805   9.291 -0.1611 -0.0719 -0.3048
  385loPI   C1A 6151   1.775   4.544   8.889 -0.0468 -0.1473  0.0215
  385loPI   C2A 6152   1.733   4.604   8.482  0.2836 -0.4347 -0.0199
  385loPI   C3A 6153   1.784   4.489   8.088 -0.0179  0.3818  0.0078
  385loPI   C4A 6154   1.885   4.476   7.674  0.0567 -0.2664  0.0344
  385loPI   C5A 6155   2.010   4.645   7.206 -0.1271  0.0287  0.1896
  385loPI   C6A 6156   2.172   4.719   6.855  0.0499 -0.1167 -0.2837
  385loPI   C1B 6157   2.256   4.690   8.953  0.3286  0.2039 -0.0414
  385loPI   C2B 6158   2.256   4.701   8.502  0.1104  0.1646  0.0325
  385loPI   C3B 6159   2.260   4.782   8.013 -0.1899 -0.3064 -0.0108
  385loPI   C4B 6160   2.300   4.875   7.552 -0.1355  0.0130  0.0950
  386loPI    C1 6161   1.722   2.818   9.945 -0.2449  0.0237 -0.1370
  386loPI    C2 6162   1.501   2.558   9.736 -0.4221 -0.0869  0.1822
  386loPI    C3 6163   1.745   2.427  10.024 -0.1414  0.0598  0.0151
  386loPI   PO4 6164   1.863   2.986   9.732 -0.0042 -0.0878 -0.0086
  386loPI   GL1 6165   1.782   3.219   9.280 -0.1174 -0.1189 -0.3873
  386loPI   GL2 6166   1.701   2.884   9.281 -0.0298 -0.0183  0.4453
  386loPI   C1A 6167   1.791   3.198   8.817 -0.0973 -0.0977  0.0013
  386loPI   C2A 6168   1.818   3.517   8.431  0.0170  0.0246 -0.0402
  386loPI   C3A 6169   1.957   3.441   7.957  0.0875 -0.0489  0.0982
  386loPI   C4A 6170   1.882   3.202   7.536 -0.1176  0.2139 -0.0985
  386loPI   C5A 6171   1.809   3.187   7.123 -0.1214  0.0238  0.3177
  386loPI   C6A 6172   1.698   2.945   6.732  0.0051 -0.2969  0.3162
  386loPI   C1B 6173   2.099   2.838   9.000 -0.2185  0.1565  0.0235
  386loPI   C2B 6174   2.264   2.563   8.646 -0.0025  0.1237 -0.3208
  386loPI   C3B 6175   2.321   2.444   8.240 -0.4390  0.0766  0.0271
  386loPI   C4B 6176   2.107   2.384   7.862 -0.1342  0.0822  0.1054
  387loPI    C1 6177  12.389   5.790  10.340 -0.3983 -0.3714  0.0584
  387loPI    C2 6178  12.747   5.612  10.337 -0.0719  0.2596 -0.1289
  387loPI    C3 6179  12.569   5.698  10.685  0.0162  0.0605 -0.0331
  387loPI   PO4 6180  12.342   5.925  10.093 -0.0206 -0.0615 -0.2616
  387loPI   GL1 6181  12.356   6.138   9.774 -0.1322  0.1906 -0.4921
  387loPI   GL2 6182  12.467   6.413   9.649  0.2303 -0.1123  0.1367
  387loPI   C1A 6183  12.587   6.024   9.374  0.2054  0.0121  0.1281
  387loPI   C2A 6184  12.677   6.078   8.944  0.3349  0.1281  0.2678
  387loPI   C3A 6185  12.636   6.136   8.500  0.0103 -0.4051 -0.3364
  387loPI   C4A 6186  12.702   5.986   8.099 -0.2504  0.0893  0.1200
  387loPI   C5A 6187  12.740   6.212   7.664 -0.0194  0.1779  0.0298
  387loPI   C6A 6188  12.365   6.318   7.305  0.1123 -0.1271 -0.0075
  387loPI   C1B 6189  12.419   6.477   9.231  0.0791  0.0550  0.0511
  387loPI   C2B 6190  12.770   6.592   8.970 -0.0877  0.0126  0.3550
  387loPI   C3B 6191  13.104   6.643   8.603  0.3761 -0.4470 -0.1001
  387loPI   C4B 6192  13.207   6.756   8.206 -0.0416 -0.2781 -0.3083
  388loPI    C1 6193   9.907  12.964   9.703 -0.0686 -0.0488 -0.2911
  388loPI    C2 6194  10.199  12.922   9.973 -0.2805 -0.0649 -0.0608
  388loPI    C3 6195  10.113  13.284   9.826 -0.0701 -0.0764 -0.2161
  388loPI   PO4 6196   9.962  12.831   9.513  0.1055  0.1088  0.2332
  388loPI   GL1 6197  10.087  12.748   9.202 -0.0004 -0.1494  0.0331
  388loPI   GL2 6198  10.376  12.678   8.993 -0.2633  0.1400 -0.1524
  388loPI   C1A 6199  10.084  13.094   8.868 -0.2336  0.0280  0.0463
  388loPI   C2A 6200   9.960  13.081   8.391 -0.1380  0.0344 -0.1285
  388loPI   C3A 6201  10.209  13.136   7.954 -0.0118  0.2011 -0.0828
  388loPI   C4A 6202  10.340  13.373   7.633 -0.3944 -0.0473  0.0008
  388loPI   C5A 6203  10.698  13.414   7.586  0.0307  0.2654  0.1216
  388loPI   C6A 6204  11.111  13.489   7.379  0.1301 -0.0490  0.4310
  388loPI   C1B 6205  10.188  12.669   8.560 -0.0142 -0.0383 -0.2938
  388loPI   C2B 6206  10.348  12.536   8.216  0.3015 -0.1393 -0.0191
  388loPI   C3B 6207  10.205  12.533   7.703 -0.0097  0.1707 -0.0678
  388loPI   C4B 6208  10.239  12.219   7.346  0.1245 -0.0318  0.0670
  389loPI    C1 6209   5.290  11.893  10.350  0.1722  0.1741 -0.0022
  389loPI    C2 6210   5.015  11.741  10.597  0.1138  0.0433 -0.1455
  389loPI    C3 6211   5.120  12.125  10.627 -0.0485  0.0818 -0.0577
  389loPI   PO4 6212   5.219  11.814  10.108 -0.1113  0.1304 -0.2160
  389loPI   GL1 6213   5.093  11.784   9.678 -0.0776 -0.0144 -0.2940
  389loPI   GL2 6214   5.155  11.740   9.318 -0.3357  0.0316 -0.2540
  389loPI   C1A 6215   4.716  12.024   9.469 -0.3502  0.2487 -0.1550
  389loPI   C2A 6216   4.688  12.241   9.107  0.0334  0.3186 -0.1059
  389loPI   C3A 6217   4.858  12.221   8.743 -0.0127 -0.0295 -0.1278
  389loPI   C4A 6218   5.204  12.513   8.491  0.2921  0.2273  0.1800
  389loPI   C5A 6219   5.137  12.504   8.048  0.0065  0.0004  0.1984
  389loPI   C6A 6220   4.908  12.604   7.607 -0.0132  0.2852 -0.3105
  389loPI   C1B 6221   4.965  11.625   8.890  0.1751 -0.3258  0.0747
  389loPI   C2B 6222   4.639  11.358   8.764  0.0238 -0.2898  0.1059
  389loPI   C3B 6223   4.377  11.441   8.448  0.1302  0.0870  0.3447
  389loPI   C4B 6224   3.988  11.518   8.237 -0.0716  0.1591  0.0101
  390loPI    C1 6225  18.399  10.024  10.333 -0.4238  0.0562  0.0094
  390loPI    C2 6226  18.274  10.043  10.713 -0.1609 -0.0221  0.1019
  390loPI    C3 6227  18.542  10.308  10.577 -0.3699  0.1018 -0.0748
  390loPI   PO4 6228  18.239   9.948  10.180 -0.2152 -0.0248 -0.1838
  390loPI   GL1 6229  18.247   9.801   9.795  0.1345 -0.0390  0.1026
  390loPI   GL2 6230  18.429   9.571   9.700 -0.0282 -0.3391  0.2904
  390loPI   C1A 6231  18.132   9.969   9.396 -0.2244 -0.1810  0.3884
  390loPI   C2A 6232  17.918  10.165   9.117 -0.0571 -0.4666  0.1035
  390loPI   C3A 6233  17.887  10.292   8.616 -0.0586 -0.0874 -0.4930
  390loPI   C4A 6234  17.939  10.526   8.266  0.0605  0.3620  0.1294
  390loPI   C5A 6235  18.224  10.816   8.018  0.1480  0.1325  0.0780
  390loPI   C6A 6236  18.294  11.163   7.702  0.0509  0.0862 -0.0903
  390loPI   C1B 6237  18.289   9.519   9.339  0.0776  0.2512 -0.0428
  390loPI   C2B 6238  17.909   9.149   9.141  0.4094 -0.1543  0.1913
  390loPI   C3B 6239  17.879   8.822   8.801  0.0499 -0.2392  0.1080
  390loPI   C4B 6240  17.871   8.785   8.351 -0.0371 -0.0664 -0.1340
  391loPI    C1 6241   3.372   3.579   9.977 -0.0946  0.1283  0.1847
  391loPI    C2 6242   3.245   3.841  10.251  0.0901  0.1029  0.2964
  391loPI    C3 6243   3.578   3.630  10.316  0.0917  0.0385  0.0865
  391loPI   PO4 6244   3.375   3.660   9.764  0.0076 -0.0720  0.0003
  391loPI   GL1 6245   3.428   3.542   9.358 -0.0869  0.2906  0.1171
  391loPI   GL2 6246   3.065   3.415   9.195 -0.1423 -0.2738 -0.1373
  391loPI   C1A 6247   3.812   3.502   9.043 -0.1090 -0.2181  0.0998
  391loPI   C2A 6248   4.056   3.524   8.616 -0.2278  0.1152  0.4124
  391loPI   C3A 6249   4.146   3.637   8.149  0.0167 -0.2696 -0.3623
  391loPI   C4A 6250   4.012   3.874   7.670 -0.0625 -0.1210 -0.0588
  391loPI   C5A 6251   4.042   4.213   7.400  0.0703 -0.1282 -0.1381
  391loPI   C6A 6252   4.007   4.662   7.244  0.2816 -0.1447  0.0230
  391loPI   C1B 6253   3.059   3.030   8.901 -0.4133 -0.1846  0.0199
  391loPI   C2B 6254   3.052   2.923   8.502 -0.3837 -0.0921 -0.0389
  391loPI   C3B 6255   2.933   3.117   8.238  0.0116  0.2771 -0.2454
  391loPI   C4B 6256   2.908   3.060   7.850  0.0207 -0.2297  0.0253
  392loPI    C1 6257  10.226  15.855  10.057  0.0803 -0.1110  0.0616
  392loPI    C2 6258  10.626  15.867  10.049  0.0705  0.2169 -0.0660
  392loPI    C3 6259  10.432  15.883  10.399  0.1740 -0.2967  0.0213
  392loPI   PO4 6260  10.157  15.757   9.866 -0.0493 -0.5156 -0.1168
  392loPI   GL1 6261  10.284  15.449   9.467  0.0308 -0.0891 -0.4540
  392loPI   GL2 6262  10.077  15.763   9.331 -0.3313  0.1476 -0.0451
  392loPI   C1A 6263  10.517  15.395   9.131  0.1352 -0.3621  0.0093
  392loPI   C2A 6264  10.640  15.381   8.671  0.2401  0.0263  0.2615
  392loPI   C3A 6265  10.755  15.360   8.230 -0.1330  0.1968  0.1460
  392loPI   C4A 6266  10.968  15.355   7.911  0.0748 -0.2447 -0.2611
  392loPI   C5A 6267  11.380  15.167   7.884  0.3148 -0.1570 -0.0751
  392loPI   C6A 6268  11.686  15.013   7.656  0.1670 -0.2259 -0.1301
  392loPI   C1B 6269  10.013  15.402   9.057 -0.2256  0.0239  0.4131
  392loPI   C2B 6270  10.229  15.125   8.778 -0.0837 -0.3055  0.2833
  392loPI   C3B 6271  10.156  14.692   8.625 -0.2892 -0.0846 -0.0618
  392loPI   C4B 6272  10.107  14.304   8.698  0.3044 -0.1374  0.2598
  393loPI    C1 6273   4.832   6.178   9.619  0.0893  0.0993  0.1185
  393loPI    C2 6274   5.147   6.173   9.866  0.0933  0.2796  0.1180
  393loPI    C3 6275   4.776   6.144  10.014  0.1136 -0.0660  0.1083
  393loPI   PO4 6276   5.006   6.107   9.372  0.1497 -0.3117 -0.2387
  393loPI   GL1 6277   5.088   6.391   9.068 -0.5412 -0.0635  0.5035
  393loPI   GL2 6278   4.878   6.233   8.897 -0.1197  0.0429 -0.1669
  393loPI   C1A 6279   5.312   6.400   8.723 -0.3580  0.0282  0.4254
  393loPI   C2A 6280   5.069   6.404   8.385  0.0170  0.0289  0.1145
  393loPI   C3A 6281   5.099   6.709   7.997 -0.1368  0.1224  0.2631
  393loPI   C4A 6282   5.226   7.093   7.746  0.1711  0.1257 -0.0344
  393loPI   C5A 6283   5.116   7.198   7.347  0.0589 -0.0328  0.3256
  393loPI   C6A 6284   5.321   7.408   6.890 -0.1268 -0.0154  0.2482
  393loPI   C1B 6285   4.612   6.037   8.639 -0.0020  0.0594 -0.0571
  393loPI   C2B 6286   4.417   5.935   8.227 -0.0706  0.1423  0.1132
  393loPI   C3B 6287   4.452   5.828   7.750  0.1771 -0.0924 -0.0791
  393loPI   C4B 6288   4.522   5.916   7.349 -0.1706  0.0837 -0.1194
  394loPI    C1 6289  10.423  16.303  10.138 -0.2024 -0.0091 -0.0104
  394loPI    C2 6290  10.596  16.663  10.132 -0.0174 -0.0920  0.2112
  394loPI    C3 6291  10.814  16.335  10.064 -0.1582 -0.1730  0.1454
  394loPI   PO4 6292  10.129  16.333   9.949  0.0557 -0.1626 -0.3749
  394loPI   GL1 6293  10.157  16.271   9.562 -0.1282 -0.1631  0.1477
  394loPI   GL2 6294  10.011  16.552   9.391  0.1193  0.1196  0.2828
  394loPI   C1A 6295  10.399  16.139   9.187  0.4120  0.1898  0.3590
  394loPI   C2A 6296  10.442  15.878   8.893 -0.1156 -0.0750  0.3769
  394loPI   C3A 6297  10.624  15.853   8.414  0.0784  0.0847  0.0477
  394loPI   C4A 6298  10.514  15.778   7.951 -0.0073 -0.0264  0.2074
  394loPI   C5A 6299  10.507  15.504   7.629 -0.0441  0.3020 -0.1410
  394loPI   C6A 6300  10.791  15.144   7.500 -0.2031 -0.0870  0.2185
  394loPI   C1B 6301   9.813  16.225   9.137 -0.0024 -0.0870 -0.3036
  394loPI   C2B 6302   9.764  15.886   8.987 -0.0856 -0.1260 -0.0885
  394loPI   C3B 6303   9.809  15.513   8.635  0.0551 -0.2094  0.0601
  394loPI   C4B 6304   9.960  15.137   8.299 -0.0816 -0.2156  0.0029
  395loPI    C1 6305  14.701   8.671  10.090  0.0660 -0.1154  0.1557
  395loPI    C2 6306  14.980   8.604  10.369  0.0567  0.0411  0.2035
  395loPI    C3 6307  15.024   8.905  10.109 -0.0040 -0.0156  0.1268
  395loPI   PO4 6308  14.610   8.388   9.908  0.1835  0.0759  0.0625
  395loPI   GL1 6309  14.442   8.212   9.489 -0.2463 -0.0928 -0.1308
  395loPI   GL2 6310  14.137   8.287   9.640  0.1206 -0.0479 -0.0090
  395loPI   C1A 6311  14.584   8.119   9.061 -0.1386  0.2334  0.0896
  395loPI   C2A 6312  14.559   7.884   8.654  0.0663  0.0401 -0.1274
  395loPI   C3A 6313  14.359   7.540   8.375  0.1165 -0.0447  0.1628
  395loPI   C4A 6314  14.234   7.502   7.984  0.1157 -0.0093  0.2028
  395loPI   C5A 6315  14.147   7.203   7.720 -0.0511 -0.1557 -0.1119
  395loPI   C6A 6316  14.192   6.825   7.631 -0.2314  0.2790  0.0824
  395loPI   C1B 6317  14.055   8.337   9.045  0.0853 -0.2334  0.0035
  395loPI   C2B 6318  14.288   8.279   8.668 -0.0799 -0.2298 -0.0355
  395loPI   C3B 6319  14.466   8.551   8.405 -0.0376 -0.2337 -0.1115
  395loPI   C4B 6320  14.699   8.567   8.065  0.2035  0.1443  0.2378
  396loPI    C1 6321  18.502   5.219   9.814 -0.0787 -0.0714  0.0887
  396loPI    C2 6322  18.660   5.163  10.177 -0.1033  0.1557  0.1357
  396loPI    C3 6323  18.263   5.162  10.129 -0.0973 -0.0392  0.0805
  396loPI   PO4 6324  18.594   5.107   9.668 -0.0542 -0.1256  0.1437
  396loPI   GL1 6325  18.652   5.058   9.191  0.0743 -0.3652  0.3459
  396loPI   GL2 6326  18.319   5.076   9.256 -0.0318  0.0960  0.1313
  396loPI   C1A 6327  18.831   5.259   8.945 -0.0300  0.0909 -0.4135
  396loPI   C2A 6328  18.913   5.542   8.954 -0.0488  0.1807 -0.0333
  396loPI   C3A 6329  18.795   5.930   8.942  0.1064 -0.3881 -0.0288
  396loPI   C4A 6330  18.801   6.296   8.645  0.0463  0.1942 -0.3622
  396loPI   C5A 6331  18.716   6.436   8.241  0.2179  0.1681  0.0448
  396loPI   C6A 6332  18.924   6.243   7.901 -0.3663  0.1683 -0.0860
  396loPI   C1B 6333  18.450   4.950   8.777  0.0731 -0.0256 -0.0198
  396loPI   C2B 6334  18.620   5.043   8.500 -0.0134 -0.1452 -0.0283
  396loPI   C3B 6335  18.838   5.086   8.222  0.0051 -0.1093  0.0111
  396loPI   C4B 6336  19.157   5.194   7.957  0.0407 -0.2516  0.2613
  397loPI    C1 6337   6.093   5.844   9.393 -0.0573 -0.2043  0.0894
  397loPI    C2 6338   6.149   5.690   9.757 -0.1003  0.1444  0.2482
  397loPI    C3 6339   6.173   6.085   9.702  0.0976  0.0798 -0.1662
  397loPI   PO4 6340   5.947   5.717   9.229 -0.1707 -0.3653 -0.1562
  397loPI   GL1 6341   6.040   5.720   8.824  0.0386  0.0398 -0.3334
  397loPI   GL2 6342   6.248   5.682   8.751 -0.3662  0.1537 -0.0397
  397loPI   C1A 6343   5.673   5.996   8.587  0.0285 -0.0886 -0.2118
  397loPI   C2A 6344   5.517   6.011   8.154  0.1398  0.1641 -0.0571
  397loPI   C3A 6345   5.289   5.913   7.669 -0.1391  0.1250 -0.0944
  397loPI   C4A 6346   5.342   5.758   7.175  0.0156 -0.1206 -0.1438
  397loPI   C5A 6347   5.082   5.504   6.903  0.0529  0.0595  0.3015
  397loPI   C6A 6348   4.718   5.246   6.754 -0.1572 -0.0221  0.0941
  397loPI   C1B 6349   6.391   5.818   8.404  0.1048  0.2285  0.4309
  397loPI   C2B 6350   6.445   5.934   7.932  0.4341 -0.1021  0.1822
  397loPI   C3B 6351   6.339   6.004   7.503  0.0210 -0.0758 -0.1981
  397loPI   C4B 6352   6.187   6.197   7.313 -0.1011 -0.1217  0.1842
  398loPI    C1 6353  11.124  12.350   9.735 -0.0689  0.2259  0.0280
  398loPI    C2 6354  11.229  11.978   9.838 -0.0283  0.1641 -0.2292
  398loPI    C3 6355  11.016  12.203  10.091 -0.1845 -0.0877 -0.1326
  398loPI   PO4 6356  11.254  12.379   9.574 -0.1212  0.3829 -0.0674
  398loPI   GL1 6357  11.718  12.362   9.325  0.2716  0.2502  0.2936
  398loPI   GL2 6358  12.003  12.188   9.350  0.1212 -0.0846 -0.0873
  398loPI   C1A 6359  11.557  12.349   8.980 -0.0883  0.2367  0.0861
  398loPI   C2A 6360  11.594  12.458   8.593 -0.0658  0.1341  0.3789
  398loPI   C3A 6361  11.390  12.567   8.201  0.3080  0.1219 -0.2104
  398loPI   C4A 6362  11.155  12.696   7.873 -0.1169  0.2915 -0.0622
  398loPI   C5A 6363  11.064  12.838   7.397 -0.0215 -0.4278  0.2456
  398loPI   C6A 6364  11.071  13.023   6.984  0.1262 -0.0023 -0.1087
  398loPI   C1B 6365  12.089  12.319   8.927  0.2216 -0.2253  0.0246
  398loPI   C2B 6366  12.169  12.266   8.476  0.4466  0.0795 -0.1836
  398loPI   C3B 6367  11.917  12.239   8.083 -0.1892  0.0706  0.1858
  398loPI   C4B 6368  11.959  12.007   7.759  0.2507 -0.1956  0.1388
  399loPI    C1 6369  15.620   0.851   9.830 -0.0971  0.2854  0.0252
  399loPI    C2 6370  15.740   1.231   9.796  0.2607  0.2012  0.2860
  399loPI    C3 6371  15.600   1.097  10.146 -0.0352  0.1366  0.1461
  399loPI   PO4 6372  15.729   0.797   9.617 -0.0106  0.2438 -0.2026
  399loPI   GL1 6373  15.935   0.734   9.123  0.0225  0.0047  0.1054
  399loPI   GL2 6374  15.842   0.995   9.156  0.0089 -0.3267 -0.0472
  399loPI   C1A 6375  15.853   0.692   8.741  0.0608 -0.0486  0.3706
  399loPI   C2A 6376  15.907   0.696   8.179  0.1746  0.1991 -0.2483
  399loPI   C3A 6377  15.928   0.915   7.786  0.1151  0.0090 -0.0714
  399loPI   C4A 6378  15.754   1.137   7.487  0.1523 -0.1895 -0.0480
  399loPI   C5A 6379  15.398   1.010   7.511  0.2324  0.1427 -0.1548
  399loPI   C6A 6380  14.988   1.013   7.563 -0.2853  0.1672  0.1355
  399loPI   C1B 6381  16.208   1.171   8.847 -0.0854  0.4494 -0.0329
  399loPI   C2B 6382  16.283   0.982   8.508  0.2928 -0.2406 -0.3625
  399loPI   C3B 6383  16.398   0.886   8.035 -0.0458 -0.3101 -0.0252
  399loPI   C4B 6384  16.864   0.676   8.083 -0.1431  0.1344  0.2461
  400loPI    C1 6385   2.839   3.521   9.647 -0.0994  0.0655  0.1676
  400loPI    C2 6386   2.831   3.456  10.041 -0.1304  0.1988  0.1894
  400loPI    C3 6387   2.834   3.830   9.900  0.0538  0.1525  0.0663
  400loPI   PO4 6388   2.664   3.385   9.575  0.4048  0.0199 -0.1489
  400loPI   GL1 6389   2.567   3.234   9.183  0.2961 -0.2554  0.1134
  400loPI   GL2 6390   2.518   3.535   9.135 -0.2753 -0.0959 -0.1611
  400loPI   C1A 6391   2.566   2.966   8.861  0.4750  0.2020 -0.3189
  400loPI   C2A 6392   2.502   2.962   8.518  0.0573 -0.3375 -0.0917
  400loPI   C3A 6393   2.479   3.011   8.075  0.1915 -0.0112  0.4617
  400loPI   C4A 6394   2.431   3.003   7.660  0.0640 -0.2958 -0.0231
  400loPI   C5A 6395   2.298   3.129   7.217  0.2854  0.5459  0.0362
  400loPI   C6A 6396   2.298   2.951   6.762 -0.1612 -0.2363  0.0991
  400loPI   C1B 6397   2.821   3.471   8.752 -0.2619  0.0321 -0.0908
  400loPI   C2B 6398   2.754   3.539   8.351 -0.0645 -0.2644  0.0784
  400loPI   C3B 6399   2.518   3.449   7.934 -0.1776 -0.3570 -0.2484
  400loPI   C4B 6400   2.342   3.506   7.614 -0.1319 -0.2292  0.2455
  401loPI    C1 6401   0.222   9.540   9.945  0.0366 -0.0192  0.3546
  401loPI    C2 6402   0.472   9.791   9.758  0.0114 -0.2148  0.0504
  401loPI    C3 6403   0.413   9.824  10.153  0.2490  0.0537  0.0670
  401loPI   PO4 6404   0.018   9.541   9.698  0.1396  0.0762  0.1567
  401loPI   GL1 6405   0.049   9.648   9.339  0.4323  0.1728 -0.0790
  401loPI   GL2 6406   0.224   9.890   9.402  0.1424 -0.0810  0.3740
  401loPI   C1A 6407  -0.109   9.625   8.954 -0.0049 -0.0555 -0.1046
  401loPI   C2A 6408  -0.230   9.457   8.515  0.1418  0.0719 -0.5643
  401loPI   C3A 6409  -0.035   9.465   8.121  0.1559 -0.0326  0.0623
  401loPI   C4A 6410   0.228   9.623   7.978 -0.0440  0.0919 -0.0107
  401loPI   C5A 6411   0.199   9.800   7.562  0.0335 -0.1310 -0.3573
  401loPI   C6A 6412  -0.028   9.859   7.208 -0.1156 -0.0250  0.1424
  401loPI   C1B 6413   0.356   9.791   8.930 -0.2388 -0.2470 -0.0877
  401loPI   C2B 6414   0.302   9.802   8.458  0.0277 -0.0623 -0.1459
  401loPI   C3B 6415  -0.156   9.882   8.281 -0.3495  0.1611 -0.1884
  401loPI   C4B 6416  -0.656   9.841   8.550  0.2333 -0.1329  0.2901
  402loPI    C1 6417   3.644  12.867  10.277  0.0968  0.0474  0.0783
  402loPI    C2 6418   3.465  12.963  10.621  0.1969 -0.1471  0.1864
  402loPI    C3 6419   3.742  12.675  10.613  0.1181 -0.2185 -0.0769
  402loPI   PO4 6420   3.487  13.097  10.102 -0.0029  0.3594 -0.3141
  402loPI   GL1 6421   3.680  13.210   9.728 -0.2565 -0.1149 -0.2796
  402loPI   GL2 6422   3.603  13.466   9.825  0.1763  0.2892  0.1350
  402loPI   C1A 6423   3.739  13.107   9.303  0.1763  0.2108 -0.1225
  402loPI   C2A 6424   3.471  12.970   8.937 -0.1849  0.0687 -0.1730
  402loPI   C3A 6425   3.385  12.983   8.507 -0.0217 -0.1182  0.3092
  402loPI   C4A 6426   3.351  13.125   8.140  0.0611  0.1637 -0.2081
  402loPI   C5A 6427   3.209  13.525   8.035  0.0717 -0.0922 -0.0574
  402loPI   C6A 6428   2.976  13.841   8.277  0.1994  0.1402  0.0963
  402loPI   C1B 6429   3.313  13.529   9.431 -0.0625  0.1947  0.0963
  402loPI   C2B 6430   3.332  13.459   9.026  0.2318  0.1261 -0.1665
  402loPI   C3B 6431   3.099  13.363   8.584  0.0967 -0.0026 -0.1147
  402loPI   C4B 6432   2.896  13.036   8.397 -0.1946  0.0234  0.3227
  403loPI    C1 6433   3.435  16.232  10.280  0.0701 -0.1383 -0.0571
  403loPI    C2 6434   3.061  16.122  10.191  0.0681 -0.1903  0.0149
  403loPI    C3 6435   3.126  16.410  10.461  0.0852 -0.3424  0.1749
  403loPI   PO4 6436   3.512  16.250   9.868  0.0582 -0.2489 -0.0643
  403loPI   GL1 6437   3.478  16.120   9.381 -0.2128  0.0842  0.0405
  403loPI   GL2 6438   3.782  16.199   9.405 -0.0585  0.3851  0.1721
  403loPI   C1A 6439   3.696  16.130   8.958  0.2213  0.0998 -0.1709
  403loPI   C2A 6440   4.016  16.237   8.640  0.0465  0.1576  0.1876
  403loPI   C3A 6441   4.460  16.203   8.404 -0.0397 -0.1795 -0.0864
  403loPI   C4A 6442   4.569  16.119   8.053  0.1610 -0.1505  0.2523
  403loPI   C5A 6443   4.439  16.141   7.595  0.0881  0.0116 -0.0127
  403loPI   C6A 6444   4.286  16.436   7.297  0.1243 -0.0955  0.2311
  403loPI   C1B 6445   4.132  15.980   9.120 -0.0255  0.0162  0.2036
  403loPI   C2B 6446   4.336  15.771   8.734  0.3346  0.1950 -0.0669
  403loPI   C3B 6447   4.552  15.454   8.663  0.1589  0.0027 -0.2089
  403loPI   C4B 6448   4.730  15.344   8.291 -0.3146  0.1027 -0.2141
  404loPI    C1 6449   4.535  10.358  10.058  0.2022 -0.0486  0.0418
  404loPI    C2 6450   4.337  10.169  10.351  0.0680  0.1389  0.0745
  404loPI    C3 6451   4.725  10.093  10.289 -0.0052 -0.2137  0.0265
  404loPI   PO4 6452   4.308  10.326   9.885  0.0262 -0.3043 -0.0036
  404loPI   GL1 6453   4.319  10.288   9.457  0.4503  0.0433  0.1828
  404loPI   GL2 6454   3.987  10.250   9.370  0.1671 -0.0656  0.0135
  404loPI   C1A 6455   4.321  10.349   9.011  0.3143  0.2001  0.1148
  404loPI   C2A 6456   4.174  10.411   8.616 -0.0873 -0.1253 -0.0074
  404loPI   C3A 6457   4.003  10.413   8.220 -0.3660 -0.4581 -0.2986
  404loPI   C4A 6458   3.946  10.627   7.821 -0.3694  0.2473  0.2215
  404loPI   C5A 6459   4.176  10.789   7.423  0.1194 -0.1113 -0.0560
  404loPI   C6A 6460   4.573  10.809   7.170  0.0997 -0.1597  0.1951
  404loPI   C1B 6461   3.747  10.230   8.985 -0.1318  0.0785 -0.2202
  404loPI   C2B 6462   3.553  10.322   8.606  0.0253 -0.0197  0.2205
  404loPI   C3B 6463   3.404  10.250   8.199  0.0462 -0.2348 -0.0483
  404loPI   C4B 6464   3.242  10.057   7.764  0.1093 -0.0881  0.0172
  405loPI    C1 6465   4.220  10.776  10.091 -0.0760  0.0667  0.2233
  405loPI    C2 6466   3.947  10.517  10.227 -0.1132  0.0828  0.1795
  405loPI    C3 6467   4.182  10.714  10.484 -0.1516  0.0786  0.2180
  405loPI   PO4 6468   4.105  10.945   9.845 -0.0082  0.2670 -0.1690
  405loPI   GL1 6469   3.746  10.972   9.404  0.0701 -0.3624 -0.1476
  405loPI   GL2 6470   3.941  10.779   9.431 -0.1113  0.1422 -0.0254
  405loPI   C1A 6471   3.712  11.204   8.938  0.2739  0.1092  0.1076
  405loPI   C2A 6472   3.740  11.248   8.581  0.2698 -0.1448  0.1417
  405loPI   C3A 6473   3.682  11.181   8.158 -0.3475 -0.0889 -0.3131
  405loPI   C4A 6474   3.409  11.004   7.942  0.2629 -0.2194 -0.4358
  405loPI   C5A 6475   3.170  10.878   7.597  0.2685 -0.0894 -0.2205
  405loPI   C6A 6476   3.129  10.401   7.393 -0.3014  0.1080  0.1591
  405loPI   C1B 6477   3.944  10.709   9.025  0.1699  0.1988  0.1289
  405loPI   C2B 6478   3.810  10.744   8.609  0.1478  0.1956 -0.0588
  405loPI   C3B 6479   3.627  10.702   8.248 -0.1152 -0.0112 -0.0391
  405loPI   C4B 6480   3.477  10.512   7.747  0.1507  0.1468 -0.1754
  406loPI    C1 6481  14.673  12.520  10.103  0.0765 -0.1011 -0.0754
  406loPI    C2 6482  14.946  12.455  10.387  0.0898  0.1197 -0.0355
  406loPI    C3 6483  14.637  12.698  10.459 -0.3450 -0.4394  0.0592
  406loPI   PO4 6484  14.792  12.597   9.856 -0.0880  0.2339 -0.0173
  406loPI   GL1 6485  15.042  12.561   9.341  0.1448  0.2496  0.2741
  406loPI   GL2 6486  14.861  12.791   9.286 -0.0634  0.1710  0.0605
  406loPI   C1A 6487  15.061  12.437   8.954 -0.3379  0.1210  0.0656
  406loPI   C2A 6488  15.071  12.466   8.522 -0.4986 -0.2985 -0.0761
  406loPI   C3A 6489  14.858  12.691   8.369 -0.0857 -0.1104 -0.0637
  406loPI   C4A 6490  14.648  12.838   8.018  0.2341  0.2036 -0.1256
  406loPI   C5A 6491  14.551  12.831   7.679  0.0781 -0.0769 -0.4371
  406loPI   C6A 6492  14.697  12.939   7.398  0.3391  0.2504 -0.0948
  406loPI   C1B 6493  14.829  12.927   8.938  0.2086  0.0592  0.3062
  406loPI   C2B 6494  14.736  13.114   8.592 -0.0608 -0.0957 -0.0992
  406loPI   C3B 6495  14.745  13.408   8.254 -0.1181  0.0726  0.3689
  406loPI   C4B 6496  14.613  13.640   8.304  0.2980 -0.0451 -0.1331
  407loPI    C1 6497   8.947  10.025   9.437 -0.0265 -0.1417  0.1598
  407loPI    C2 6498   9.234   9.779   9.569  0.1131 -0.0402  0.0485
  407loPI    C3 6499   9.331  10.133   9.409 -0.0762  0.0069  0.0352
  407loPI   PO4 6500   8.745   9.900   9.139  0.0050 -0.0319  0.1939
  407loPI   GL1 6501   8.798  10.001   8.663 -0.1453 -0.1232 -0.0831
  407loPI   GL2 6502   9.159   9.865   8.538  0.0887  0.0333  0.2551
  407loPI   C1A 6503   8.880  10.301   8.407 -0.1827 -0.1942  0.6612
  407loPI   C2A 6504   8.850  10.630   8.155  0.0980 -0.0018 -0.1830
  407loPI   C3A 6505   8.893  10.879   7.808  0.1119  0.0217  0.0546
  407loPI   C4A 6506   8.876  11.205   7.454 -0.0049 -0.2121 -0.0295
  407loPI   C5A 6507   9.159  11.581   7.162 -0.1014 -0.2439 -0.2278
  407loPI   C6A 6508   9.254  11.696   6.836  0.1610  0.0238  0.0702
  407loPI   C1B 6509   9.217   9.979   8.053  0.0898 -0.2817 -0.0582
  407loPI   C2B 6510   9.387   9.756   7.668  0.1662  0.0211 -0.1426
  407loPI   C3B 6511   9.277  10.079   7.401  0.0435  0.0710  0.0110
  407loPI   C4B 6512   8.930  10.273   7.097 -0.4621 -0.4033 -0.0396
  408loPI    C1 6513  15.660  13.507  10.193 -0.0732  0.1013 -0.0645
  408loPI    C2 6514  15.723  13.809  10.448 -0.0880  0.1689 -0.1408
  408loPI    C3 6515  15.349  13.694  10.362 -0.0774 -0.1504  0.2158
  408loPI   PO4 6516  15.848  13.578   9.954 -0.0194  0.4169 -0.1695
  408loPI   GL1 6517  16.021  13.790   9.634 -0.0558 -0.1353  0.1134
  408loPI   GL2 6518  16.085  13.558   9.367  0.0115  0.0903  0.0026
  408loPI   C1A 6519  16.007  14.024   9.184  0.2295 -0.0400  0.0681
  408loPI   C2A 6520  15.917  14.096   8.757  0.2278 -0.4008  0.0754
  408loPI   C3A 6521  15.729  14.258   8.443 -0.0484 -0.3604 -0.0848
  408loPI   C4A 6522  15.777  14.332   7.984  0.0650 -0.1591 -0.1942
  408loPI   C5A 6523  15.732  14.024   7.630 -0.2012  0.0324  0.2377
  408loPI   C6A 6524  15.951  13.701   7.360  0.3039 -0.1857 -0.0381
  408loPI   C1B 6525  15.986  13.588   8.916  0.1199  0.1825 -0.0822
  408loPI   C2B 6526  16.020  13.711   8.535  0.0597  0.3268  0.0410
  408loPI   C3B 6527  16.143  14.012   8.266  0.2035  0.1078 -0.1664
  408loPI   C4B 6528  16.568  14.018   8.057 -0.2077 -0.0203  0.1500
  409loPI    C1 6529   6.111   8.649   9.461 -0.1498 -0.4517  0.2004
  409loPI    C2 6530   6.503   8.716   9.422 -0.1852 -0.3586 -0.0101
  409loPI    C3 6531   6.331   8.744   9.781 -0.1066  0.1969 -0.0059
  409loPI   PO4 6532   5.916   8.793   9.342  0.1396  0.1622 -0.1390
  409loPI   GL1 6533   5.896   8.952   8.992  0.2898 -0.0528 -0.5984
  409loPI   GL2 6534   6.189   8.705   8.912 -0.0917 -0.0765  0.3457
  409loPI   C1A 6535   5.636   9.090   8.636 -0.0893  0.1021  0.0520
  409loPI   C2A 6536   5.747   9.288   8.279 -0.2874  0.0067 -0.1054
  409loPI   C3A 6537   5.823   9.558   7.851  0.1861  0.0930  0.2752
  409loPI   C4A 6538   6.074   9.439   7.488 -0.1221  0.1384  0.1647
  409loPI   C5A 6539   6.062   9.635   7.048 -0.1566  0.0663 -0.1523
  409loPI   C6A 6540   6.159   9.636   6.621  0.0331  0.0023  0.0605
  409loPI   C1B 6541   5.967   8.704   8.550 -0.0718  0.1594  0.0703
  409loPI   C2B 6542   5.964   8.694   8.138 -0.4255 -0.0712  0.2167
  409loPI   C3B 6543   5.890   8.620   7.873 -0.3667  0.1060 -0.2895
  409loPI   C4B 6544   5.737   8.601   7.491 -0.2322 -0.2728 -0.2055
  410loPI    C1 6545  16.798  11.495   9.996 -0.0614  0.0388 -0.0172
  410loPI    C2 6546  17.017  11.366  10.304  0.0268  0.1751 -0.0218
  410loPI    C3 6547  16.694  11.593  10.370  0.0298  0.1814 -0.0284
  410loPI   PO4 6548  16.846  11.346   9.850  0.2000 -0.1619  0.0178
  410loPI   GL1 6549  16.909  11.331   9.438 -0.1391  0.1456  0.2701
  410loPI   GL2 6550  16.644  11.351   9.262 -0.0107  0.2233 -0.0081
  410loPI   C1A 6551  17.106  11.325   9.009  0.0855  0.0933 -0.2581
  410loPI   C2A 6552  17.040  11.408   8.679  0.0072  0.0719 -0.1253
  410loPI   C3A 6553  17.104  11.439   8.332 -0.1300  0.0505  0.1079
  410loPI   C4A 6554  16.962  11.511   7.936 -0.1783 -0.1215 -0.1055
  410loPI   C5A 6555  16.654  11.530   7.719  0.2744 -0.2760 -0.1322
  410loPI   C6A 6556  16.256  11.551   7.585 -0.0803  0.4153 -0.0547
  410loPI   C1B 6557  16.645  11.107   8.904  0.1836 -0.1861 -0.1076
  410loPI   C2B 6558  16.658  11.252   8.464  0.0103 -0.4010  0.0002
  410loPI   C3B 6559  16.506  11.405   8.211 -0.0695 -0.0142 -0.0736
  410loPI   C4B 6560  16.139  11.619   8.106  0.0658  0.2221 -0.2480
  411loPI    C1 6561   7.238   8.862   9.109  0.0938  0.0174 -0.1248
  411loPI    C2 6562   7.464   8.799   9.433  0.1265  0.1120 -0.1291
  411loPI    C3 6563   7.071   8.729   9.447  0.1858 -0.2497 -0.1817
  411loPI   PO4 6564   7.336   9.152   9.077  0.1074 -0.1063  0.2128
  411loPI   GL1 6565   7.546   9.263   8.586 -0.4300 -0.0205  0.1103
  411loPI   GL2 6566   7.381   8.964   8.514 -0.1881  0.2431  0.6120
  411loPI   C1A 6567   7.589   9.300   8.145 -0.0118  0.0196 -0.2623
  411loPI   C2A 6568   7.578   9.360   7.740 -0.0644  0.0135 -0.1539
  411loPI   C3A 6569   7.342   9.423   7.360  0.4955 -0.1253 -0.0194
  411loPI   C4A 6570   6.921   9.317   7.461  0.0556  0.1282 -0.0570
  411loPI   C5A 6571   6.572   9.445   7.572 -0.1918 -0.1251 -0.2033
  411loPI   C6A 6572   6.372   9.437   7.929 -0.2391 -0.0661  0.1649
  411loPI   C1B 6573   7.161   8.944   8.196 -0.1346  0.2944 -0.0155
  411loPI   C2B 6574   7.147   8.999   7.794  0.1775 -0.2123 -0.2294
  411loPI   C3B 6575   7.265   8.941   7.376  0.1969  0.1720  0.0232
  411loPI   C4B 6576   7.543   8.655   7.156 -0.2571 -0.2015  0.1941
  412loPI    C1 6577   2.168   0.742   9.781 -0.2186  0.0033 -0.0800
  412loPI    C2 6578   2.019   0.611   9.434 -0.3794 -0.1721  0.0530
  412loPI    C3 6579   1.937   0.982   9.560 -0.1608 -0.0386 -0.1865
  412loPI   PO4 6580   2.462   0.750   9.750  0.1468  0.0054 -0.2103
  412loPI   GL1 6581   2.468   0.939   9.429 -0.2830  0.0482  0.1642
  412loPI   GL2 6582   2.279   1.073   9.267  0.1457  0.3622 -0.4279
  412loPI   C1A 6583   2.636   0.744   9.049  0.1101  0.0616  0.2599
  412loPI   C2A 6584   2.604   0.693   8.563 -0.0682 -0.1098  0.0073
  412loPI   C3A 6585   2.681   0.886   8.210 -0.0204 -0.1397 -0.0329
  412loPI   C4A 6586   2.596   1.057   7.787  0.3052 -0.0935  0.0015
  412loPI   C5A 6587   2.510   1.037   7.391  0.0477 -0.1687  0.0220
  412loPI   C6A 6588   2.044   0.983   7.258 -0.1648  0.1550 -0.1163
  412loPI   C1B 6589   2.142   0.750   8.846 -0.1046 -0.1068  0.0280
  412loPI   C2B 6590   1.889   0.505   8.534 -0.0010  0.0373 -0.1036
  412loPI   C3B 6591   1.937   0.428   8.018  0.0299 -0.0642  0.1813
  412loPI   C4B 6592   2.247   0.200   7.738  0.2335  0.1223 -0.0765
  413loPI    C1 6593   3.874   0.913   9.820  0.0026  0.2132 -0.2751
  413loPI    C2 6594   3.863   1.300   9.722 -0.0729  0.1946 -0.3412
  413loPI    C3 6595   3.676   1.172  10.052  0.2640  0.2731 -0.1147
  413loPI   PO4 6596   3.819   0.792   9.612  0.4759 -0.0364  0.2956
  413loPI   GL1 6597   3.930   0.791   9.256 -0.0800 -0.0584  0.0374
  413loPI   GL2 6598   3.773   1.103   9.263  0.0427 -0.0177  0.0127
  413loPI   C1A 6599   4.007   0.455   9.019 -0.0884  0.0471  0.0521
  413loPI   C2A 6600   4.010   0.283   8.631  0.1177 -0.4272 -0.0151
  413loPI   C3A 6601   3.998   0.343   8.183  0.2162 -0.0078  0.1877
  413loPI   C4A 6602   3.819   0.365   7.799 -0.0429  0.0081 -0.0032
  413loPI   C5A 6603   4.077   0.603   7.455  0.1570  0.4432  0.0861
  413loPI   C6A 6604   4.321   0.401   7.116  0.1573  0.3504 -0.1027
  413loPI   C1B 6605   3.362   1.175   8.937 -0.0737  0.1474 -0.6215
  413loPI   C2B 6606   3.452   1.223   8.583  0.1068  0.1107 -0.1567
  413loPI   C3B 6607   3.556   1.306   8.196 -0.1706  0.2158  0.1555
  413loPI   C4B 6608   3.465   1.377   7.709  0.1219  0.1666 -0.1618
  414loPI    C1 6609   6.786  10.323   9.680  0.0396  0.0332 -0.0300
  414loPI    C2 6610   6.776   9.996   9.449  0.1805 -0.1384  0.2024
  414loPI    C3 6611   6.661   9.974   9.832  0.0255  0.1256  0.1734
  414loPI   PO4 6612   6.889  10.485   9.525  0.1112 -0.3304 -0.1574
  414loPI   GL1 6613   7.075  10.732   9.144  0.0810  0.1028 -0.3235
  414loPI   GL2 6614   7.030  10.453   9.046  0.0236 -0.2398  0.1053
  414loPI   C1A 6615   7.427  10.957   8.843  0.2205 -0.0030 -0.0320
  414loPI   C2A 6616   7.586  11.033   8.400 -0.0373 -0.0216  0.1687
  414loPI   C3A 6617   7.610  11.201   7.917 -0.2861  0.4896  0.3176
  414loPI   C4A 6618   7.573  11.261   7.514 -0.1926  0.1626 -0.2955
  414loPI   C5A 6619   7.472  11.480   7.250  0.0583 -0.4204  0.0554
  414loPI   C6A 6620   7.402  11.710   6.899  0.0638  0.0148 -0.2299
  414loPI   C1B 6621   6.979  10.482   8.682 -0.0572  0.1534 -0.1125
  414loPI   C2B 6622   6.689  10.627   8.308  0.2028  0.2862  0.1577
  414loPI   C3B 6623   6.508  10.807   8.015  0.1123 -0.0367 -0.0125
  414loPI   C4B 6624   6.640  10.879   7.635 -0.0276 -0.0201 -0.1935
  415loPI    C1 6625   6.699   4.517   9.292 -0.2704  0.1197  0.1343
  415loPI    C2 6626   6.738   4.571   9.687 -0.4907 -0.0504  0.1811
  415loPI    C3 6627   6.778   4.205   9.530 -0.0746  0.0659  0.0013
  415loPI   PO4 6628   6.720   4.765   9.186 -0.3694  0.0673  0.1392
  415loPI   GL1 6629   6.844   4.815   8.752 -0.1171  0.0077  0.1576
  415loPI   GL2 6630   6.852   4.601   8.513 -0.0568  0.1411  0.1120
  415loPI   C1A 6631   6.736   5.018   8.236 -0.0907 -0.2167 -0.0776
  415loPI   C2A 6632   6.749   5.084   7.772 -0.1492 -0.2136 -0.1680
  415loPI   C3A 6633   6.690   5.348   7.387 -0.4441 -0.2099  0.0636
  415loPI   C4A 6634   6.879   5.448   7.041 -0.2117 -0.3708  0.2611
  415loPI   C5A 6635   6.857   5.478   6.699 -0.1852  0.2658  0.0678
  415loPI   C6A 6636   6.574   5.536   6.455  0.3102  0.1088  0.3761
  415loPI   C1B 6637   6.644   4.489   8.093  0.1042 -0.2341 -0.2007
  415loPI   C2B 6638   6.695   4.421   7.617 -0.0644  0.0670 -0.1215
  415loPI   C3B 6639   6.831   4.596   7.113 -0.0807  0.2628 -0.2426
  415loPI   C4B 6640   6.774   4.972   6.882  0.0735  0.0198 -0.0428
  416loPI    C1 6641  18.319   8.159  10.162  0.1014  0.2855  0.0313
  416loPI    C2 6642  18.181   8.433  10.419  0.2917  0.0793  0.3609
  416loPI    C3 6643  18.179   8.046  10.520 -0.1333 -0.0688 -0.1660
  416loPI   PO4 6644  18.161   8.363   9.898  0.0356 -0.2582  0.0304
  416loPI   GL1 6645  18.266   8.353   9.366 -0.0712 -0.0021  0.0197
  416loPI   GL2 6646  18.552   8.433   9.369  0.0474 -0.0595  0.3399
  416loPI   C1A 6647  18.271   8.710   9.065 -0.2839 -0.0342  0.0057
  416loPI   C2A 6648  18.318   8.622   8.619  0.1620  0.0997 -0.3650
  416loPI   C3A 6649  18.277   8.984   8.418 -0.0413 -0.3047  0.1406
  416loPI   C4A 6650  18.341   9.364   8.026 -0.1124  0.1576  0.0337
  416loPI   C5A 6651  18.392   9.819   7.964 -0.0832 -0.0487 -0.1238
  416loPI   C6A 6652  18.494  10.146   7.747 -0.2125 -0.0609  0.0811
  416loPI   C1B 6653  18.689   8.400   9.047  0.3064  0.2328  0.0908
  416loPI   C2B 6654  18.817   8.584   8.744 -0.1280  0.1966  0.1662
  416loPI   C3B 6655  18.744   8.751   8.367 -0.2104  0.1062  0.0558
  416loPI   C4B 6656  18.870   8.907   7.937  0.3349  0.2239  0.2132
  417loPI    C1 6657   3.123   2.604   9.802 -0.0718 -0.0244 -0.1518
  417loPI    C2 6658   2.812   2.825   9.919 -0.1245 -0.1734 -0.0065
  417loPI    C3 6659   2.941   2.525  10.149  0.1962 -0.0441 -0.0131
  417loPI   PO4 6660   3.052   2.470   9.581  0.6271  0.1952 -0.2610
  417loPI   GL1 6661   2.958   2.538   9.185 -0.2671  0.0832  0.3106
  417loPI   GL2 6662   2.812   2.829   9.327 -0.2254  0.0039  0.0404
  417loPI   C1A 6663   3.267   2.588   8.824  0.0176  0.1708 -0.1765
  417loPI   C2A 6664   3.487   2.803   8.459 -0.0519 -0.4727  0.2096
  417loPI   C3A 6665   3.762   2.667   8.186  0.3748  0.3791 -0.3900
  417loPI   C4A 6666   3.846   2.817   7.802 -0.4776  0.0588  0.0873
  417loPI   C5A 6667   3.999   2.889   7.388  0.3215 -0.0399  0.0435
  417loPI   C6A 6668   3.781   2.683   6.982 -0.1917  0.1065 -0.1737
  417loPI   C1B 6669   2.495   2.574   9.114  0.1779  0.3526 -0.0100
  417loPI   C2B 6670   2.139   2.255   9.144 -0.1934 -0.4378 -0.1366
  417loPI   C3B 6671   1.744   2.126   8.804 -0.0139 -0.1980 -0.1686
  417loPI   C4B 6672   1.615   1.993   8.451 -0.3468  0.1348 -0.0021
  418loPI    C1 6673   4.958   3.339   9.711  0.0211  0.0248 -0.1490
  418loPI    C2 6674   5.118   3.589   9.979 -0.0121  0.2168 -0.3067
  418loPI    C3 6675   4.737   3.472  10.017  0.0576  0.0416 -0.1299
  418loPI   PO4 6676   5.041   3.303   9.506  0.0833 -0.0754  0.2068
  418loPI   GL1 6677   5.010   3.326   9.078  0.1002 -0.2027 -0.1646
  418loPI   GL2 6678   4.837   3.503   8.937 -0.0458 -0.4083 -0.1740
  418loPI   C1A 6679   5.179   3.218   8.625  0.0904  0.2186 -0.2349
  418loPI   C2A 6680   5.080   3.101   8.218 -0.0949 -0.1214 -0.0992
  418loPI   C3A 6681   5.139   3.093   7.804  0.3873  0.1213  0.1208
  418loPI   C4A 6682   5.020   2.953   7.454 -0.3720  0.3164  0.1656
  418loPI   C5A 6683   5.232   2.783   7.075  0.1577 -0.2883 -0.0505
  418loPI   C6A 6684   5.302   2.432   6.793 -0.0013  0.1490  0.0452
  418loPI   C1B 6685   4.550   3.689   8.671  0.2772  0.0953  0.3118
  418loPI   C2B 6686   4.579   3.981   8.360  0.0418 -0.0176  0.0824
  418loPI   C3B 6687   4.726   4.092   7.919  0.0330  0.0206 -0.2166
  418loPI   C4B 6688   4.484   3.976   7.534 -0.2129 -0.0462 -0.1480
  419loPI    C1 6689  10.380  15.282   9.939 -0.0601  0.2938  0.0337
  419loPI    C2 6690  10.496  15.432  10.291 -0.0499  0.0767  0.1250
  419loPI    C3 6691  10.115  15.323  10.236  0.0117 -0.1659  0.1699
  419loPI   PO4 6692  10.649  15.347   9.832 -0.0744  0.3956  0.0122
  419loPI   GL1 6693  10.892  15.245   9.425  0.1836 -0.0035  0.0895
  419loPI   GL2 6694  11.135  15.399   9.555 -0.1807 -0.1891 -0.0547
  419loPI   C1A 6695  10.939  15.193   9.048  0.0422  0.3551  0.0704
  419loPI   C2A 6696  11.093  15.178   8.651  0.3825 -0.0946  0.0848
  419loPI   C3A 6697  11.141  14.916   8.287 -0.5252  0.2670 -0.0535
  419loPI   C4A 6698  10.996  14.488   8.160  0.0560  0.1299  0.1335
  419loPI   C5A 6699  10.844  14.158   8.052 -0.5056 -0.0068  0.0547
  419loPI   C6A 6700  10.930  13.811   7.670 -0.3058 -0.3476 -0.0556
  419loPI   C1B 6701  11.420  15.330   9.144 -0.2182  0.2952 -0.1330
  419loPI   C2B 6702  11.581  15.137   8.847 -0.0210 -0.3225 -0.1371
  419loPI   C3B 6703  11.548  15.207   8.531  0.0741 -0.0118  0.1132
  419loPI   C4B 6704  11.727  15.117   8.199 -0.1402  0.2259 -0.0446
  420loPI    C1 6705   2.982   0.176   9.758 -0.3558 -0.2225 -0.4081
  420loPI    C2 6706   2.853   0.497   9.556  0.0307  0.0396 -0.2499
  420loPI    C3 6707   2.892   0.512   9.954  0.0244 -0.2152 -0.2376
  420loPI   PO4 6708   3.202   0.071   9.666  0.0564 -0.1243  0.2027
  420loPI   GL1 6709   3.310   0.298   9.333 -0.4058 -0.0060  0.2331
  420loPI   GL2 6710   3.642   0.352   9.356  0.0278 -0.0947 -0.5433
  420loPI   C1A 6711   3.273   0.273   8.874 -0.0149 -0.0443  0.0748
  420loPI   C2A 6712   3.414   0.393   8.437 -0.2602  0.1210 -0.0384
  420loPI   C3A 6713   3.385   0.458   8.045 -0.1676  0.2316 -0.1071
  420loPI   C4A 6714   3.057   0.625   7.752  0.2730  0.0742  0.0906
  420loPI   C5A 6715   2.703   0.586   7.568  0.0258 -0.1546  0.0416
  420loPI   C6A 6716   2.564   0.194   7.309 -0.1258  0.2299 -0.2909
  420loPI   C1B 6717   3.686   0.023   9.131  0.2434  0.3656  0.2957
  420loPI   C2B 6718   3.636   0.000   8.659  0.0404 -0.3062 -0.1106
  420loPI   C3B 6719   3.623   0.018   8.165 -0.0622  0.0622  0.1070
  420loPI   C4B 6720   3.991  -0.077   7.928  0.2754  0.4838  0.0098
  421loPI    C1 6721  13.661   4.596   9.677 -0.1695 -0.1322  0.0155
  421loPI    C2 6722  13.655   4.598  10.077 -0.2357  0.1357  0.0156
  421loPI    C3 6723  13.312   4.598   9.872 -0.2019  0.0789 -0.0416
  421loPI   PO4 6724  13.793   4.743   9.615 -0.0224 -0.0644  0.0979
  421loPI   GL1 6725  13.971   5.053   9.481 -0.1705  0.2556 -0.1675
  421loPI   GL2 6726  13.580   5.205   9.325  0.5064 -0.0025 -0.3025
  421loPI   C1A 6727  14.006   5.165   9.040 -0.0450 -0.0504 -0.0763
  421loPI   C2A 6728  13.935   5.084   8.651 -0.2939  0.1629  0.1924
  421loPI   C3A 6729  13.678   4.893   8.400  0.1254 -0.2147  0.3760
  421loPI   C4A 6730  13.763   4.641   8.008  0.1090 -0.1933 -0.2640
  421loPI   C5A 6731  13.917   4.832   7.610  0.1444 -0.0029  0.3219
  421loPI   C6A 6732  14.265   4.782   7.372  0.0500  0.1859 -0.1059
  421loPI   C1B 6733  13.595   5.398   8.913 -0.1142  0.1003  0.3877
  421loPI   C2B 6734  13.594   5.862   8.522  0.0640  0.1314  0.0353
  421loPI   C3B 6735  13.683   6.192   8.204 -0.2574  0.0504 -0.2563
  421loPI   C4B 6736  13.548   6.507   7.903 -0.0747 -0.1889  0.1121
  422loPI    C1 6737   4.692  18.505   9.634  0.4593 -0.1461  0.4488
  422loPI    C2 6738   4.460  18.211   9.775  0.3142 -0.2336  0.0397
  422loPI    C3 6739   4.483  18.558   9.972  0.2370 -0.4036  0.3560
  422loPI   PO4 6740   4.679  18.397   9.367  0.0404 -0.3392  0.0677
  422loPI   GL1 6741   4.768  18.629   9.041 -0.3087 -0.0928  0.0580
  422loPI   GL2 6742   5.111  18.512   8.980 -0.0376 -0.4209 -0.0411
  422loPI   C1A 6743   4.737  18.506   8.676  0.6084 -0.1151  0.0719
  422loPI   C2A 6744   4.672  18.561   8.306  0.2229  0.0239  0.1457
  422loPI   C3A 6745   4.778  18.596   7.931  0.0564 -0.0418 -0.1393
  422loPI   C4A 6746   4.860  18.625   7.486  0.1104  0.1713  0.0042
  422loPI   C5A 6747   5.058  18.400   7.212  0.0735 -0.0004  0.1318
  422loPI   C6A 6748   4.911  18.363   6.788 -0.1194 -0.0672 -0.0022
  422loPI   C1B 6749   5.143  18.177   8.648 -0.0119  0.0300 -0.0793
  422loPI   C2B 6750   4.913  17.950   8.329  0.0010  0.1739  0.0452
  422loPI   C3B 6751   4.824  18.003   7.829  0.0100  0.2423 -0.1975
  422loPI   C4B 6752   4.693  17.990   7.486  0.0310 -0.0341  0.1673
  423loPI    C1 6753   2.431  17.052  10.023  0.3916 -0.2008  0.0307
  423loPI    C2 6754   2.691  17.291  10.211  0.1234 -0.1087  0.2919
  423loPI    C3 6755   2.573  16.949  10.383 -0.1801  0.0114  0.3306
  423loPI   PO4 6756   2.561  16.966   9.780 -0.2957  0.1568  0.4746
  423loPI   GL1 6757   2.604  16.672   9.360  0.1696 -0.3250  0.1432
  423loPI   GL2 6758   2.887  16.585   9.180  0.2433  0.3089 -0.1174
  423loPI   C1A 6759   2.479  16.739   8.849 -0.1360  0.2307 -0.2697
  423loPI   C2A 6760   2.373  16.847   8.497 -0.1047 -0.0657 -0.0224
  423loPI   C3A 6761   2.422  16.955   8.060 -0.0807 -0.2515 -0.0750
  423loPI   C4A 6762   2.514  16.618   7.853  0.3186  0.1419 -0.0096
  423loPI   C5A 6763   2.840  16.447   7.493 -0.3131 -0.2813 -0.1209
  423loPI   C6A 6764   3.061  16.268   7.191 -0.0810  0.1983  0.1888
  423loPI   C1B 6765   2.869  16.490   8.703 -0.3055 -0.1010  0.0678
  423loPI   C2B 6766   2.809  16.769   8.286 -0.0015  0.0387  0.0992
  423loPI   C3B 6767   2.915  16.957   7.772 -0.2672 -0.1180  0.0176
  423loPI   C4B 6768   3.047  17.262   7.481 -0.0754 -0.0326 -0.1813
  424loPI    C1 6769  19.034  10.738  10.055  0.0166  0.4068  0.1708
  424loPI    C2 6770  19.236  10.650  10.389 -0.0932 -0.3799  0.0479
  424loPI    C3 6771  18.843  10.723  10.406  0.0091  0.1869  0.1588
  424loPI   PO4 6772  19.065  10.432   9.829  0.6298  0.2481  0.1427
  424loPI   GL1 6773  19.305  10.332   9.362 -0.3664  0.0515  0.3381
  424loPI   GL2 6774  19.140  10.034   9.494  0.2734 -0.1854 -0.0360
  424loPI   C1A 6775  19.321  10.666   9.061  0.2149 -0.4263 -0.1711
  424loPI   C2A 6776  19.213  10.839   8.715 -0.0042  0.2904  0.3463
  424loPI   C3A 6777  19.207  11.276   8.500  0.1016  0.0570 -0.0618
  424loPI   C4A 6778  19.463  11.347   8.106  0.0011  0.0536  0.1686
  424loPI   C5A 6779  19.799  11.240   7.825  0.1049  0.1601 -0.1153
  424loPI   C6A 6780  20.120  10.995   7.795 -0.1344 -0.2012  0.1935
  424loPI   C1B 6781  18.943   9.892   9.198 -0.2845 -0.6175  0.1844
  424loPI   C2B 6782  18.688   9.571   9.032 -0.0023 -0.2170 -0.0260
  424loPI   C3B 6783  18.297   9.520   8.793  0.1107 -0.1088 -0.1137
  424loPI   C4B 6784  17.960   9.330   8.675 -0.2748 -0.0364  0.1414
  425loPI    C1 6785   7.840   1.573   9.346  0.1933 -0.0723 -0.1572
  425loPI    C2 6786   7.973   1.940   9.258 -0.0811  0.1211  0.2028
  425loPI    C3 6787   7.956   1.820   9.639 -0.0334 -0.2536  0.0912
  425loPI   PO4 6788   7.983   1.461   9.136 -0.0176  0.0065 -0.1502
  425loPI   GL1 6789   7.875   1.623   8.763  0.2304 -0.0065 -0.0006
  425loPI   GL2 6790   8.059   1.903   8.638  0.0485  0.2201 -0.1921
  425loPI   C1A 6791   7.560   1.726   8.517  0.0759  0.4350 -0.0281
  425loPI   C2A 6792   7.162   1.775   8.279 -0.2900  0.0965 -0.3179
  425loPI   C3A 6793   7.038   1.870   7.862 -0.0814  0.2258 -0.1258
  425loPI   C4A 6794   7.138   1.811   7.399  0.2245  0.3251  0.1445
  425loPI   C5A 6795   7.098   1.474   7.108  0.0505 -0.3583 -0.2230
  425loPI   C6A 6796   7.417   1.219   6.868  0.0422 -0.2052  0.1203
  425loPI   C1B 6797   7.962   1.746   8.220  0.0442 -0.0300 -0.0495
  425loPI   C2B 6798   7.572   1.552   8.049 -0.4405 -0.1469 -0.0555
  425loPI   C3B 6799   7.271   1.391   7.765 -0.2974 -0.3137 -0.2092
  425loPI   C4B 6800   6.972   1.304   7.525  0.1228  0.0491 -0.3954
  426loPI    C1 6801   0.375  16.663   9.659  0.1295  0.3754  0.0078
  426loPI    C2 6802   0.090  16.887   9.490  0.1282  0.3403 -0.0367
  426loPI    C3 6803   0.120  16.870   9.889  0.0700  0.3461 -0.0318
  426loPI   PO4 6804   0.384  16.494   9.566 -0.0159  0.1209  0.0479
  426loPI   GL1 6805   0.460  16.338   9.182  0.1754 -0.2488  0.0305
  426loPI   GL2 6806   0.115  16.390   9.124  0.1749  0.2204  0.0178
  426loPI   C1A 6807   0.380  16.062   8.852  0.2647  0.0480  0.0093
  426loPI   C2A 6808   0.688  15.897   8.538  0.3439  0.3279 -0.0399
  426loPI   C3A 6809   0.976  15.865   8.309  0.2775  0.0639  0.1090
  426loPI   C4A 6810   1.070  16.213   7.913 -0.3719 -0.0990 -0.1468
  426loPI   C5A 6811   0.828  16.169   7.525  0.2086 -0.0748  0.2919
  426loPI   C6A 6812   0.605  15.987   7.339  0.1930  0.1608  0.2253
  426loPI   C1B 6813   0.122  16.382   8.674 -0.0750  0.0710  0.2405
  426loPI   C2B 6814   0.294  16.433   8.283  0.0200 -0.0355 -0.2575
  426loPI   C3B 6815   0.497  16.186   8.061  0.1738  0.3004  0.0615
  426loPI   C4B 6816   0.784  15.736   7.866 -0.1200 -0.2756 -0.0358
  427loPI    C1 6817   6.789  15.071   9.987  0.1729  0.2001 -0.0215
  427loPI    C2 6818   6.477  15.251  10.160  0.3207  0.3713  0.0703
  427loPI    C3 6819   6.821  15.212  10.360  0.2521 -0.1374  0.1033
  427loPI   PO4 6820   6.747  15.090   9.785  0.1389 -0.1938 -0.1381
  427loPI   GL1 6821   6.890  15.278   9.394  0.3182  0.0978 -0.3458
  427loPI   GL2 6822   7.155  15.116   9.542  0.0379  0.0823  0.1136
  427loPI   C1A 6823   6.987  15.371   8.935  0.0519 -0.2174  0.1364
  427loPI   C2A 6824   7.063  15.369   8.545  0.0463  0.1883 -0.1730
  427loPI   C3A 6825   7.244  15.343   8.170 -0.0716  0.3427 -0.1565
  427loPI   C4A 6826   7.044  15.106   7.748  0.1838  0.2339 -0.0780
  427loPI   C5A 6827   6.642  15.022   7.574  0.0132  0.1985  0.1167
  427loPI   C6A 6828   6.323  14.815   7.529 -0.3327 -0.0452  0.3210
  427loPI   C1B 6829   7.046  14.896   9.139  0.1397  0.1856 -0.0524
  427loPI   C2B 6830   6.999  14.846   8.670  0.0348  0.0663  0.1941
  427loPI   C3B 6831   6.562  14.727   8.429  0.1888 -0.0952  0.0217
  427loPI   C4B 6832   6.438  14.926   8.007 -0.1344 -0.0701  0.1687
  428loPI    C1 6833  12.106   6.634   9.995 -0.1157 -0.2326  0.1569
  428loPI    C2 6834  12.286   6.448  10.300  0.0346 -0.2015  0.0880
  428loPI    C3 6835  12.233   6.844  10.310 -0.0727 -0.2167  0.1290
  428loPI   PO4 6836  11.920   6.350   9.950 -0.0048  0.1021 -0.1718
  428loPI   GL1 6837  11.813   6.126   9.624  0.0365 -0.0479 -0.0251
  428loPI   GL2 6838  11.457   6.170   9.410 -0.2002 -0.1409  0.0649
  428loPI   C1A 6839  12.092   6.003   9.288 -0.2929 -0.0923  0.1884
  428loPI   C2A 6840  12.228   6.165   8.850  0.1591  0.0426 -0.2723
  428loPI   C3A 6841  12.029   5.969   8.608  0.0261  0.1497  0.1634
  428loPI   C4A 6842  11.769   5.910   8.293  0.0452 -0.1831 -0.2444
  428loPI   C5A 6843  11.706   6.039   7.835  0.1775  0.0203 -0.1673
  428loPI   C6A 6844  11.619   6.158   7.474 -0.0949  0.0343  0.0074
  428loPI   C1B 6845  11.729   6.272   9.034  0.0716  0.1254 -0.2533
  428loPI   C2B 6846  11.803   6.450   8.665  0.1186 -0.1896 -0.3999
  428loPI   C3B 6847  12.061   6.359   8.264 -0.1312 -0.0962 -0.1389
  428loPI   C4B 6848  12.270   6.184   7.934  0.1056 -0.2171  0.0672
  429loPI    C1 6849   6.018   0.779   9.116 -0.1459 -0.0582  0.1477
  429loPI    C2 6850   6.331   0.538   9.052 -0.1587 -0.0433  0.0284
  429loPI    C3 6851   6.302   0.740   9.396  0.0088  0.0236  0.0043
  429loPI   PO4 6852   5.956   0.978   8.877 -0.3676  0.0525  0.0534
  429loPI   GL1 6853   5.986   1.113   8.426  0.2311 -0.0467 -0.0352
  429loPI   GL2 6854   5.798   1.389   8.496  0.3216  0.0313  0.1552
  429loPI   C1A 6855   5.789   1.108   8.029  0.3614  0.1178  0.1406
  429loPI   C2A 6856   5.601   0.827   7.804  0.0784  0.2097  0.2588
  429loPI   C3A 6857   5.764   0.698   7.497  0.2223 -0.2617 -0.0413
  429loPI   C4A 6858   5.667   0.650   7.002 -0.0360 -0.1482 -0.0733
  429loPI   C5A 6859   5.369   0.869   6.765  0.0407  0.0121 -0.0733
  429loPI   C6A 6860   5.304   1.193   6.499  0.1200 -0.3096 -0.0388
  429loPI   C1B 6861   6.213   1.549   8.286 -0.2032  0.0507 -0.2771
  429loPI   C2B 6862   6.253   1.519   7.905  0.0744  0.2935 -0.1219
  429loPI   C3B 6863   6.421   1.491   7.486 -0.2059  0.0753  0.1276
  429loPI   C4B 6864   6.521   1.232   7.211  0.0971 -0.1924 -0.3018
  430loPI    C1 6865  16.678  10.185  10.234  0.0227 -0.1395 -0.0846
  430loPI    C2 6866  16.762   9.934   9.934  0.3230 -0.0266 -0.0987
  430loPI    C3 6867  16.947   9.894  10.286  0.1486 -0.0099 -0.0038
  430loPI   PO4 6868  16.346  10.232  10.101  0.0852  0.0802 -0.0975
  430loPI   GL1 6869  16.337  10.188   9.612 -0.0969  0.2145  0.0558
  430loPI   GL2 6870  16.483  10.341   9.341  0.1856  0.1762 -0.0750
  430loPI   C1A 6871  16.110   9.964   9.241 -0.3064 -0.1509 -0.0341
  430loPI   C2A 6872  16.078   9.922   8.734 -0.0349 -0.0291  0.0393
  430loPI   C3A 6873  16.079  10.006   8.334 -0.0949  0.0168 -0.1733
  430loPI   C4A 6874  16.154  10.047   7.903  0.0026  0.0456 -0.1731
  430loPI   C5A 6875  16.563   9.955   7.639  0.0260  0.0168 -0.0918
  430loPI   C6A 6876  16.798   9.712   7.384 -0.1662  0.2576  0.0096
  430loPI   C1B 6877  16.476  10.328   8.975 -0.0935 -0.2135  0.2602
  430loPI   C2B 6878  16.489  10.153   8.596 -0.2958  0.2565  0.0853
  430loPI   C3B 6879  16.480  10.259   8.153 -0.5421 -0.4737 -0.0138
  430loPI   C4B 6880  16.641  10.517   7.819 -0.1756 -0.1858 -0.1897
  431loPI    C1 6881   8.942   4.527   8.816  0.1807 -0.0708 -0.1953
  431loPI    C2 6882   8.644   4.274   8.899 -0.1355  0.2689 -0.2689
  431loPI    C3 6883   8.986   4.136   8.745 -0.1103 -0.1731  0.1570
  431loPI   PO4 6884   8.821   4.681   8.539  0.0785 -0.1262 -0.0268
  431loPI   GL1 6885   8.597   4.669   8.206 -0.1641 -0.0264 -0.0470
  431loPI   GL2 6886   8.442   4.388   8.259  0.3101 -0.1380 -0.0925
  431loPI   C1A 6887   8.682   4.806   7.769 -0.0509  0.2537 -0.1709
  431loPI   C2A 6888   8.822   4.695   7.403 -0.0753 -0.0879 -0.1728
  431loPI   C3A 6889   9.060   4.732   7.041  0.2669  0.3375 -0.1628
  431loPI   C4A 6890   9.266   4.675   6.666  0.1022  0.0471 -0.0166
  431loPI   C5A 6891   9.685   4.675   6.457 -0.1980 -0.0530  0.0914
  431loPI   C6A 6892  10.044   4.703   6.529  0.2100 -0.0413  0.1647
  431loPI   C1B 6893   8.189   4.570   7.923  0.0003 -0.0172  0.1201
  431loPI   C2B 6894   8.280   4.598   7.493  0.3476  0.3252 -0.0729
  431loPI   C3B 6895   8.120   4.433   7.122  0.4259  0.2480 -0.1975
  431loPI   C4B 6896   7.811   4.472   6.705 -0.0200  0.1613 -0.1178
  432loPI    C1 6897  17.613  18.663  10.148 -0.0958  0.0121  0.0527
  432loPI    C2 6898  17.383  18.337  10.115 -0.0238 -0.0381  0.0435
  432loPI    C3 6899  17.252  18.655  10.320 -0.0969 -0.0702  0.0468
  432loPI   PO4 6900  17.756  18.687   9.912 -0.0108 -0.2027 -0.0219
  432loPI   GL1 6901  17.604  18.712   9.543  0.0947 -0.0984  0.2723
  432loPI   GL2 6902  17.536  18.333   9.603 -0.1416 -0.4273  0.0965
  432loPI   C1A 6903  17.870  18.496   9.254 -0.2995 -0.0911 -0.1128
  432loPI   C2A 6904  17.913  18.267   8.864 -0.1920 -0.0428  0.1698
  432loPI   C3A 6905  18.033  18.320   8.360 -0.1347  0.0248 -0.3111
  432loPI   C4A 6906  18.129  17.987   7.990  0.2553 -0.2173 -0.0799
  432loPI   C5A 6907  17.949  17.718   7.776 -0.1167  0.2837  0.1018
  432loPI   C6A 6908  17.836  17.421   7.524 -0.1114 -0.5341  0.3135
  432loPI   C1B 6909  17.233  18.167   9.186  0.2110 -0.0149  0.0496
  432loPI   C2B 6910  17.328  18.249   8.796  0.2307 -0.4176 -0.2911
  432loPI   C3B 6911  17.506  18.285   8.453  0.0569  0.0783  0.0231
  432loPI   C4B 6912  17.239  18.373   8.107 -0.4486 -0.0713  0.2686
  433loPI    C1 6913  11.429   6.915   9.999 -0.0938  0.0386 -0.1484
  433loPI    C2 6914  11.333   6.692  10.317  0.1435  0.1145 -0.0212
  433loPI    C3 6915  11.066   6.748  10.024 -0.0569 -0.0035  0.1362
  433loPI   PO4 6916  11.674   6.839   9.911  0.1237  0.2038  0.2325
  433loPI   GL1 6917  11.771   6.658   9.548 -0.0588 -0.1642 -0.1192
  433loPI   GL2 6918  11.543   6.685   9.394  0.0713 -0.0929  0.2595
  433loPI   C1A 6919  11.990   6.761   9.177  0.3381 -0.1336  0.1554
  433loPI   C2A 6920  11.956   6.917   8.751  0.0110 -0.0355 -0.0570
  433loPI   C3A 6921  11.901   6.823   8.328  0.2121  0.2641  0.2401
  433loPI   C4A 6922  12.136   6.832   7.942 -0.3776  0.2599  0.1558
  433loPI   C5A 6923  12.504   6.715   7.593 -0.1175 -0.3444 -0.2878
  433loPI   C6A 6924  12.640   7.016   7.291  0.3438 -0.0597  0.1715
  433loPI   C1B 6925  11.532   7.056   9.110  0.2604 -0.0371 -0.2248
  433loPI   C2B 6926  11.758   7.392   8.978 -0.2553 -0.0033  0.2536
  433loPI   C3B 6927  11.900   7.769   8.643 -0.1284 -0.2500 -0.0406
  433loPI   C4B 6928  12.276   7.997   8.443 -0.1382  0.4073  0.3050
  434loPI    C1 6929   5.923   3.435   9.426 -0.0931 -0.1764 -0.2328
  434loPI    C2 6930   6.275   3.337   9.590 -0.0664 -0.1895 -0.2975
  434loPI    C3 6931   6.015   3.564   9.793  0.0714  0.0047 -0.3358
  434loPI   PO4 6932   5.870   3.547   9.194 -0.1126  0.1130  0.3088
  434loPI   GL1 6933   5.491   3.727   8.893  0.0542 -0.0890 -0.2079
  434loPI   GL2 6934   5.850   3.818   8.796 -0.1032 -0.1786 -0.2732
  434loPI   C1A 6935   5.438   3.995   8.476  0.2486 -0.0982  0.2196
  434loPI   C2A 6936   5.362   4.245   8.159  0.1572  0.1102 -0.0103
  434loPI   C3A 6937   5.536   4.629   7.988 -0.0525 -0.0165  0.2162
  434loPI   C4A 6938   5.595   4.880   7.553  0.0038 -0.0276  0.0507
  434loPI   C5A 6939   5.907   5.181   7.350  0.1998  0.1621  0.1217
  434loPI   C6A 6940   6.229   5.362   7.287 -0.2837  0.0672  0.3120
  434loPI   C1B 6941   5.935   3.814   8.389  0.0048  0.0110  0.4734
  434loPI   C2B 6942   5.834   3.811   8.024  0.1653  0.0236 -0.0818
  434loPI   C3B 6943   5.528   3.971   7.723 -0.2170 -0.1938 -0.3196
  434loPI   C4B 6944   5.111   4.061   7.626 -0.2975  0.2367  0.2153
  435loPI    C1 6945   9.439  14.557   9.597  0.2392 -0.2979  0.2104
  435loPI    C2 6946   9.671  14.792   9.823  0.2208 -0.0300 -0.0440
  435loPI    C3 6947   9.814  14.636   9.483  0.1227 -0.1078 -0.0503
  435loPI   PO4 6948   9.360  14.347   9.713  0.2090  0.0438  0.3410
  435loPI   GL1 6949   9.061  14.022   9.510  0.1756 -0.1183 -0.0071
  435loPI   GL2 6950   8.707  14.127   9.247 -0.0914 -0.1365 -0.0416
  435loPI   C1A 6951   9.117  14.282   9.094 -0.3021  0.4854 -0.1350
  435loPI   C2A 6952   9.236  14.191   8.657 -0.0884 -0.0272  0.1735
  435loPI   C3A 6953   9.286  14.412   8.212 -0.1852  0.2252 -0.2820
  435loPI   C4A 6954   9.352  14.263   7.745  0.0858  0.0492  0.0295
  435loPI   C5A 6955   9.427  14.215   7.283 -0.2475 -0.0722  0.0377
  435loPI   C6A 6956   9.419  13.995   6.977 -0.0702 -0.2293 -0.0584
  435loPI   C1B 6957   8.838  13.908   8.945 -0.3570  0.1002 -0.0276
  435loPI   C2B 6958   8.859  13.852   8.505 -0.2963  0.1091 -0.2165
  435loPI   C3B 6959   9.089  13.947   8.221  0.2283 -0.0305  0.1383
  435loPI   C4B 6960   8.974  13.954   7.760  0.0869  0.0450  0.1733
  436loPI    C1 6961   0.746   4.127   9.798  0.1070 -0.0006  0.0079
  436loPI    C2 6962   0.741   4.241  10.181  0.2137  0.2571 -0.0657
  436loPI    C3 6963   0.824   3.861  10.087 -0.0469  0.1365  0.1781
  436loPI   PO4 6964   0.529   4.277   9.697  0.0351 -0.2032 -0.0304
  436loPI   GL1 6965   0.421   4.487   9.342  0.0982  0.1935  0.2255
  436loPI   GL2 6966   0.655   4.730   9.402  0.1606  0.1850 -0.3253
  436loPI   C1A 6967   0.216   4.469   8.850  0.0288 -0.0271 -0.0815
  436loPI   C2A 6968   0.051   4.373   8.439 -0.0658  0.1227  0.0528
  436loPI   C3A 6969  -0.052   4.356   8.061  0.0542 -0.1157  0.2957
  436loPI   C4A 6970  -0.097   4.378   7.567 -0.0057  0.0937 -0.0071
  436loPI   C5A 6971   0.007   4.643   7.124 -0.1467  0.1687  0.0592
  436loPI   C6A 6972   0.032   4.696   6.697 -0.3088  0.0202 -0.0312
  436loPI   C1B 6973   0.606   4.808   8.944  0.0372  0.0382 -0.0547
  436loPI   C2B 6974   0.478   4.745   8.510 -0.2802  0.0587  0.2002
  436loPI   C3B 6975   0.456   4.791   8.057  0.0049  0.0030  0.2722
  436loPI   C4B 6976   0.689   5.019   7.652  0.0606  0.0690 -0.0648
  437loPI    C1 6977   4.298   6.556   9.704 -0.0915 -0.0503  0.0781
  437loPI    C2 6978   4.679   6.585   9.821 -0.1289  0.0465  0.1775
  437loPI    C3 6979   4.521   6.864   9.581 -0.0388 -0.1764 -0.1473
  437loPI   PO4 6980   4.307   6.201   9.736  0.1743  0.0183 -0.0266
  437loPI   GL1 6981   4.429   6.183   9.262  0.0050  0.3846 -0.2908
  437loPI   GL2 6982   4.594   5.945   9.179  0.0598 -0.0534 -0.2682
  437loPI   C1A 6983   4.178   6.173   8.892 -0.0069 -0.1650  0.1118
  437loPI   C2A 6984   3.888   6.194   8.599  0.2197  0.2890 -0.1211
  437loPI   C3A 6985   3.962   6.276   8.206  0.1646 -0.3005  0.2380
  437loPI   C4A 6986   4.133   6.224   7.668  0.1240 -0.3938 -0.2432
  437loPI   C5A 6987   4.477   6.457   7.477 -0.3103  0.0950 -0.1038
  437loPI   C6A 6988   4.702   6.744   7.685  0.1473  0.3439 -0.0780
  437loPI   C1B 6989   4.745   5.606   8.923  0.0401  0.1892 -0.0028
  437loPI   C2B 6990   4.793   5.495   8.434 -0.0942 -0.0149  0.2574
  437loPI   C3B 6991   4.432   5.446   8.162 -0.2039 -0.0660 -0.0626
  437loPI   C4B 6992   4.151   5.398   7.922 -0.0257  0.1696  0.1015
  438loPI    C1 6993  19.200  17.044  10.408  0.0512  0.0965 -0.0519
  438loPI    C2 6994  19.381  17.232  10.711  0.0091 -0.0203  0.0467
  438loPI    C3 6995  19.509  16.871  10.594 -0.0392 -0.0196 -0.0087
  438loPI   PO4 6996  19.171  17.227  10.126 -0.0377  0.0063 -0.1769
  438loPI   GL1 6997  19.043  17.244   9.779 -0.0443 -0.0371  0.0515
  438loPI   GL2 6998  18.872  17.085   9.576  0.3010 -0.2466 -0.1943
  438loPI   C1A 6999  19.020  17.536   9.384  0.1141 -0.1179 -0.2120
  438loPI   C2A 7000  19.121  17.658   8.993 -0.0873 -0.2034 -0.1685
  438loPI   C3A 7001  19.019  17.644   8.532  0.1753  0.0485 -0.2074
  438loPI   C4A 7002  18.749  17.634   8.151 -0.0098  0.0347  0.3344
  438loPI   C5A 7003  18.467  17.664   7.749 -0.2213 -0.3080  0.2679
  438loPI   C6A 7004  18.787  17.850   7.376  0.0436  0.2680  0.1208
  438loPI   C1B 7005  19.158  17.127   9.177  0.1142  0.0625  0.1195
  438loPI   C2B 7006  18.975  17.190   8.741  0.1735  0.0980  0.1250
  438loPI   C3B 7007  18.908  17.180   8.297 -0.1822 -0.0847  0.0288
  438loPI   C4B 7008  18.659  17.221   7.931 -0.1648  0.1188 -0.0333
  439loPI    C1 7009  10.709  14.511   9.952  0.0965  0.2320 -0.2052
  439loPI    C2 7010  10.566  14.849   9.793 -0.0971  0.2336 -0.0312
  439loPI    C3 7011  10.648  14.831  10.185 -0.3220  0.0054  0.0083
  439loPI   PO4 7012  10.873  14.438   9.687  0.0247 -0.0369 -0.0473
  439loPI   GL1 7013  10.981  14.757   9.309  0.0315  0.0824 -0.0926
  439loPI   GL2 7014  11.289  14.899   9.347 -0.0341 -0.4388 -0.2829
  439loPI   C1A 7015  11.103  14.618   8.902  0.0483 -0.0213  0.4933
  439loPI   C2A 7016  11.362  14.625   8.701 -0.1618 -0.1091  0.1658
  439loPI   C3A 7017  11.729  14.215   8.536  0.0626 -0.2207 -0.1681
  439loPI   C4A 7018  12.081  14.300   8.249  0.2859 -0.2228 -0.3583
  439loPI   C5A 7019  12.325  14.165   7.970  0.1469  0.0757 -0.3561
  439loPI   C6A 7020  12.366  14.316   7.523  0.1630 -0.1407  0.1322
  439loPI   C1B 7021  11.599  14.784   9.164 -0.2255 -0.0568 -0.1823
  439loPI   C2B 7022  11.887  14.548   9.024 -0.0251 -0.1098 -0.0065
  439loPI   C3B 7023  12.254  14.427   8.698  0.1026 -0.0472  0.1744
  439loPI   C4B 7024  12.481  14.276   8.535  0.0649 -0.1077  0.4435
  440loPI    C1 7025  18.979  14.928  10.334  0.0504 -0.1583 -0.0159
  440loPI    C2 7026  19.238  15.196  10.478 -0.2719  0.2845 -0.2358
  440loPI    C3 7027  18.977  15.019  10.724  0.0314  0.0621 -0.0664
  440loPI   PO4 7028  19.021  15.075  10.034  0.4650 -0.0145 -0.0378
  440loPI   GL1 7029  19.221  15.253   9.612  0.1216 -0.0831 -0.2692
  440loPI   GL2 7030  18.923  15.277   9.593  0.0686  0.1232 -0.2525
  440loPI   C1A 7031  19.345  15.050   9.182 -0.0240 -0.0817 -0.2172
  440loPI   C2A 7032  19.112  14.987   8.829 -0.1889  0.2016 -0.2264
  440loPI   C3A 7033  18.735  15.084   8.558  0.0985  0.3307 -0.0453
  440loPI   C4A 7034  18.535  14.938   8.175  0.3671 -0.1553 -0.1124
  440loPI   C5A 7035  18.208  14.839   8.000 -0.2382  0.2388  0.0673
  440loPI   C6A 7036  17.880  14.604   7.778 -0.3800  0.1717 -0.0451
  440loPI   C1B 7037  18.700  15.385   9.194  0.1066 -0.0125 -0.0991
  440loPI   C2B 7038  18.907  15.517   8.828 -0.1530 -0.0718 -0.0198
  440loPI   C3B 7039  18.980  15.544   8.405  0.2179  0.1680 -0.2613
  440loPI   C4B 7040  19.000  15.184   8.200 -0.1760  0.0027 -0.1933
  441loPI    C1 7041  12.356   9.385   9.592 -0.2380 -0.4006 -0.3049
  441loPI    C2 7042  12.054   9.262   9.824  0.0919 -0.3048  0.1922
  441loPI    C3 7043  12.313   9.535   9.961  0.3146 -0.2654 -0.2860
  441loPI   PO4 7044  12.264   9.147   9.277  0.2295 -0.1855  0.1940
  441loPI   GL1 7045  12.238   9.222   8.818  0.0197 -0.0094 -0.1287
  441loPI   GL2 7046  12.039   8.910   8.848 -0.1491 -0.1774  0.1372
  441loPI   C1A 7047  12.426   9.364   8.375 -0.0900  0.2488 -0.1202
  441loPI   C2A 7048  12.267   9.441   7.910 -0.4733  0.2677  0.0771
  441loPI   C3A 7049  11.946   9.418   7.601 -0.1096  0.0230 -0.1289
  441loPI   C4A 7050  11.553   9.383   7.378  0.0644 -0.0266  0.0145
  441loPI   C5A 7051  11.250   9.522   7.109 -0.0342  0.0055 -0.4383
  441loPI   C6A 7052  11.223   9.844   6.826 -0.0540 -0.1989 -0.0645
  441loPI   C1B 7053  11.667   8.973   8.667  0.0322  0.2129  0.0010
  441loPI   C2B 7054  11.388   8.770   8.652 -0.1200  0.3569  0.1148
  441loPI   C3B 7055  11.185   8.467   8.471  0.0092 -0.1671  0.0703
  441loPI   C4B 7056  11.419   8.365   8.167 -0.1195  0.1331  0.1564
  442loPI    C1 7057  15.151   9.425   9.926 -0.1809  0.1559  0.0022
  442loPI    C2 7058  14.908   9.374  10.239 -0.1213 -0.0865  0.0111
  442loPI    C3 7059  15.295   9.276  10.268 -0.1433 -0.2350 -0.1775
  442loPI   PO4 7060  15.061   9.288   9.714  0.0639  0.0754  0.0744
  442loPI   GL1 7061  15.148   9.332   9.230 -0.0637  0.2192 -0.5593
  442loPI   GL2 7062  15.264   9.102   9.297 -0.3443  0.2053  0.3077
  442loPI   C1A 7063  15.313   9.434   8.894 -0.0065  0.0183  0.0691
  442loPI   C2A 7064  15.261   9.335   8.447  0.0027 -0.2438 -0.2175
  442loPI   C3A 7065  15.283   9.501   7.974 -0.1061 -0.2296 -0.2449
  442loPI   C4A 7066  15.287   9.804   7.667 -0.1372 -0.2700 -0.1615
  442loPI   C5A 7067  15.215  10.173   7.408 -0.1959  0.1609 -0.2167
  442loPI   C6A 7068  15.405  10.496   7.136 -0.1170  0.1056 -0.1746
  442loPI   C1B 7069  15.391   8.865   8.945 -0.6174 -0.6354  0.1300
  442loPI   C2B 7070  15.630   8.786   8.516  0.2928  0.1797 -0.1565
  442loPI   C3B 7071  15.861   8.609   8.186  0.2550 -0.2225 -0.0794
  442loPI   C4B 7072  15.964   8.500   7.745 -0.0338 -0.1041 -0.1987
  443loPI    C1 7073   6.498   5.567   9.191 -0.2445  0.0837  0.2368
  443loPI    C2 7074   6.767   5.400   9.436 -0.2137 -0.1687  0.0350
  443loPI    C3 7075   6.527   5.169   9.215 -0.0881  0.0518 -0.3409
  443loPI   PO4 7076   6.681   5.724   9.037  0.1043 -0.3862  0.2232
  443loPI   GL1 7077   6.614   6.121   8.724  0.0063 -0.0840  0.3115
  443loPI   GL2 7078   6.723   6.247   8.565  0.3578 -0.1475  0.2734
  443loPI   C1A 7079   6.176   6.200   8.575  0.0897  0.0252 -0.0348
  443loPI   C2A 7080   5.967   6.188   8.252  0.4601 -0.3494 -0.2460
  443loPI   C3A 7081   5.840   6.176   7.722 -0.1543 -0.2429  0.0599
  443loPI   C4A 7082   5.656   6.211   7.437 -0.3041  0.1388  0.1578
  443loPI   C5A 7083   5.270   6.273   7.210 -0.0726  0.0143 -0.0739
  443loPI   C6A 7084   4.909   6.149   7.084  0.2411 -0.0803 -0.1138
  443loPI   C1B 7085   6.500   6.324   8.173 -0.0994 -0.2340 -0.0513
  443loPI   C2B 7086   6.385   6.404   7.788  0.1919 -0.2104 -0.0008
  443loPI   C3B 7087   6.492   6.564   7.426  0.0864  0.1462  0.2378
  443loPI   C4B 7088   6.548   6.880   7.087 -0.0967 -0.0256  0.4741
  444loPI    C1 7089  16.647   0.886   9.610 -0.0180 -0.0781 -0.0346
  444loPI    C2 7090  16.896   0.946   9.917  0.0574 -0.1347 -0.0843
  444loPI    C3 7091  17.034   0.958   9.541  0.0118 -0.2992 -0.1070
  444loPI   PO4 7092  16.569   0.687   9.509 -0.0458  0.1476 -0.0738
  444loPI   GL1 7093  16.409   0.735   9.113 -0.1233 -0.0067  0.3895
  444loPI   GL2 7094  16.585   1.019   9.130 -0.0272 -0.1281 -0.1133
  444loPI   C1A 7095  16.423   0.582   8.720 -0.1033  0.1054  0.4959
  444loPI   C2A 7096  16.445   0.448   8.307  0.0635 -0.3911  0.1231
  444loPI   C3A 7097  16.384   0.429   7.823 -0.1007  0.2437  0.1133
  444loPI   C4A 7098  16.360   0.337   7.448  0.1058 -0.1339  0.2735
  444loPI   C5A 7099  15.980   0.121   7.173 -0.1038 -0.0875 -0.2251
  444loPI   C6A 7100  15.800   0.013   6.783  0.0216 -0.2213 -0.2311
  444loPI   C1B 7101  16.841   0.865   8.811  0.0042  0.0654 -0.0383
  444loPI   C2B 7102  16.883   0.970   8.480 -0.0409 -0.1024  0.0472
  444loPI   C3B 7103  17.029   1.140   8.095  0.2456 -0.1347  0.0464
  444loPI   C4B 7104  17.116   0.950   7.678 -0.1080  0.1857  0.1186
  445loPI    C1 7105  18.725  16.143   9.849  0.0735  0.0010  0.0149
  445loPI    C2 7106  18.624  16.323  10.192 -0.1083  0.2368 -0.1601
  445loPI    C3 7107  18.706  15.932  10.189 -0.3716  0.1763  0.1051
  445loPI   PO4 7108  18.812  16.240   9.680  0.2421 -0.2223  0.2236
  445loPI   GL1 7109  19.049  16.221   9.270 -0.0899 -0.4112  0.3219
  445loPI   GL2 7110  18.867  16.058   9.220 -0.1252  0.1040  0.1861
  445loPI   C1A 7111  19.037  16.463   8.916 -0.0813  0.1133  0.0910
  445loPI   C2A 7112  18.858  16.472   8.486 -0.2981 -0.2588 -0.2189
  445loPI   C3A 7113  18.750  16.603   8.101 -0.1513  0.0991  0.2767
  445loPI   C4A 7114  18.928  16.845   7.768 -0.0730 -0.2811 -0.2664
  445loPI   C5A 7115  19.269  16.861   7.487  0.0179 -0.3318 -0.0301
  445loPI   C6A 7116  19.390  17.127   7.215 -0.0353 -0.0626  0.1672
  445loPI   C1B 7117  18.758  16.081   8.780 -0.1179 -0.0722 -0.0116
  445loPI   C2B 7118  18.691  16.069   8.242 -0.2007  0.2388 -0.1788
  445loPI   C3B 7119  18.936  16.191   7.878  0.0502 -0.0812 -0.3037
  445loPI   C4B 7120  18.563  16.442   7.670 -0.0385  0.1670 -0.0131
  446loPI    C1 7121  13.397  16.624  10.349  0.1364  0.0821 -0.0357
  446loPI    C2 7122  13.629  16.949  10.377  0.1049  0.1075 -0.0695
  446loPI    C3 7123  13.270  16.943  10.554  0.0740  0.1194 -0.1313
  446loPI   PO4 7124  13.349  16.628  10.081  0.1578 -0.4651  0.0216
  446loPI   GL1 7125  13.280  16.711   9.614 -0.0189 -0.2506  0.3269
  446loPI   GL2 7126  13.490  16.992   9.435  0.0507  0.1521 -0.1389
  446loPI   C1A 7127  13.116  16.817   9.165 -0.1692 -0.0148 -0.1365
  446loPI   C2A 7128  13.093  16.679   8.774  0.0596 -0.1237 -0.0422
  446loPI   C3A 7129  13.354  16.503   8.387  0.0311 -0.1469 -0.1276
  446loPI   C4A 7130  13.369  16.281   7.928 -0.0908 -0.0101 -0.2927
  446loPI   C5A 7131  13.509  16.351   7.517  0.1996  0.2081  0.1723
  446loPI   C6A 7132  13.470  16.671   7.110  0.1149  0.5066  0.1038
  446loPI   C1B 7133  13.585  17.079   8.982 -0.4119 -0.2323  0.2240
  446loPI   C2B 7134  13.535  16.999   8.615 -0.0596 -0.2374  0.0094
  446loPI   C3B 7135  13.456  17.016   8.123  0.1343  0.2460 -0.0708
  446loPI   C4B 7136  13.340  16.768   7.826 -0.1050  0.0761  0.0200
  447loPI    C1 7137  19.273   0.268   9.895 -0.0794  0.1759 -0.0227
  447loPI    C2 7138  18.894   0.222  10.014  0.0198 -0.0761  0.2090
  447loPI    C3 7139  19.192   0.086  10.242  0.2323 -0.2718 -0.1757
  447loPI   PO4 7140  19.342   0.348   9.630 -0.1886  0.1652 -0.1016
  447loPI   GL1 7141  19.344   0.240   9.230 -0.6338 -0.2983 -0.1347
  447loPI   GL2 7142  19.298  -0.032   9.377  0.0944  0.0314 -0.3456
  447loPI   C1A 7143  19.302   0.185   8.793  0.0200  0.2802  0.0048
  447loPI   C2A 7144  19.275   0.240   8.355  0.2124 -0.2013 -0.1225
  447loPI   C3A 7145  19.216   0.200   7.890 -0.1452  0.1659 -0.2620
  447loPI   C4A 7146  19.390   0.230   7.540 -0.6225  0.2475  0.4681
  447loPI   C5A 7147  19.566   0.314   7.242  0.1044 -0.0716 -0.2326
  447loPI   C6A 7148  19.721   0.629   6.957 -0.0209 -0.2697 -0.2105
  447loPI   C1B 7149  19.047  -0.121   9.069 -0.3720  0.1383  0.0633
  447loPI   C2B 7150  19.026  -0.233   8.681 -0.2827 -0.0196  0.1596
  447loPI   C3B 7151  19.075  -0.235   8.241 -0.2137 -0.3821 -0.0243
  447loPI   C4B 7152  19.024  -0.233   7.747 -0.2667 -0.1521 -0.1990
  448loPI    C1 7153  12.784   9.483   9.915  0.0892  0.2128 -0.3204
  448loPI    C2 7154  12.687   9.721  10.221 -0.0922 -0.0030 -0.2068
  448loPI    C3 7155  12.995   9.468  10.255 -0.1713 -0.0943 -0.1674
  448loPI   PO4 7156  12.823   9.572   9.650 -0.3309 -0.1896 -0.0214
  448loPI   GL1 7157  12.973   9.722   9.333 -0.1428  0.1633  0.1689
  448loPI   GL2 7158  12.704   9.630   9.108  0.0234  0.0668  0.0675
  448loPI   C1A 7159  13.136   9.438   9.052 -0.1676  0.0398 -0.1756
  448loPI   C2A 7160  13.284   9.075   8.819  0.0655 -0.0053 -0.2146
  448loPI   C3A 7161  13.304   8.830   8.434  0.2422  0.1905 -0.2116
  448loPI   C4A 7162  13.528   8.650   8.246 -0.3093 -0.2803 -0.1560
  448loPI   C5A 7163  13.625   8.515   7.924  0.0399 -0.1127 -0.0997
  448loPI   C6A 7164  13.560   8.293   7.619 -0.0380  0.0751  0.0790
  448loPI   C1B 7165  12.379   9.759   8.808 -0.0474 -0.0576 -0.1123
  448loPI   C2B 7166  12.266   9.825   8.393 -0.1422  0.5160  0.2832
  448loPI   C3B 7167  12.383   9.897   8.005 -0.0195 -0.0613  0.1335
  448loPI   C4B 7168  12.326   9.801   7.557  0.0806  0.0358 -0.1453
  449loPI    C1 7169  16.299  15.022   9.996 -0.0822  0.2140  0.0941
  449loPI    C2 7170  16.623  14.797  10.064 -0.2219 -0.0330 -0.0394
  449loPI    C3 7171  16.429  14.966  10.370 -0.0647 -0.0201  0.0548
  449loPI   PO4 7172  16.098  14.830   9.851  0.4437  0.1888  0.0627
  449loPI   GL1 7173  16.053  14.878   9.515  0.1305 -0.1490  0.0202
  449loPI   GL2 7174  16.391  14.906   9.452 -0.0029 -0.2563  0.1356
  449loPI   C1A 7175  15.940  14.971   9.107  0.1784  0.2641  0.0103
  449loPI   C2A 7176  15.993  15.179   8.786  0.4347 -0.0177 -0.0866
  449loPI   C3A 7177  16.233  15.028   8.390  0.0697  0.0777  0.2533
  449loPI   C4A 7178  16.404  14.900   8.044 -0.4411 -0.1049  0.1477
  449loPI   C5A 7179  16.587  14.564   7.707  0.2436 -0.1671  0.1825
  449loPI   C6A 7180  17.054  14.418   7.723 -0.3953 -0.2866  0.0368
  449loPI   C1B 7181  16.289  14.545   9.210 -0.2092 -0.1858 -0.0380
  449loPI   C2B 7182  16.329  14.237   8.921 -0.0059  0.0117  0.1071
  449loPI   C3B 7183  16.509  14.069   8.597 -0.1158 -0.4083  0.1544
  449loPI   C4B 7184  16.857  13.977   8.534  0.0132 -0.0129 -0.0293
  450loPI    C1 7185   0.766  18.279  10.081 -0.0853 -0.1027 -0.0019
  450loPI    C2 7186   0.721  17.967  10.328 -0.1256 -0.0831  0.0159
  450loPI    C3 7187   0.658  18.339  10.461 -0.1430 -0.0721 -0.0228
  450loPI   PO4 7188   0.710  18.174   9.865 -0.0029 -0.0022 -0.0137
  450loPI   GL1 7189   0.481  17.996   9.563  0.0275 -0.3855 -0.1424
  450loPI   GL2 7190   0.573  17.678   9.604 -0.2851  0.0429 -0.0087
  450loPI   C1A 7191   0.675  17.996   9.154 -0.0607  0.0319 -0.0459
  450loPI   C2A 7192   0.686  18.268   8.770 -0.0995 -0.0933  0.3264
  450loPI   C3A 7193   0.772  18.114   8.323  0.0620  0.1887  0.2977
  450loPI   C4A 7194   0.809  18.250   7.894  0.0912 -0.1190 -0.0508
  450loPI   C5A 7195   0.727  18.203   7.400  0.1457 -0.0161 -0.0520
  450loPI   C6A 7196   0.652  18.094   7.017 -0.0544  0.2007 -0.1506
  450loPI   C1B 7197   0.230  17.429   9.259 -0.2397 -0.1874  0.4271
  450loPI   C2B 7198   0.164  17.375   8.823  0.1883  0.1705 -0.2051
  450loPI   C3B 7199   0.043  17.309   8.394  0.0107  0.4345  0.1757
  450loPI   C4B 7200  -0.070  17.621   8.129  0.1757 -0.0766 -0.0180
  451loPI    C1 7201   2.787   8.396   9.642  0.1669 -0.0135  0.3933
  451loPI    C2 7202   2.600   8.044   9.672  0.1066  0.0093  0.2879
  451loPI    C3 7203   2.997   8.055   9.627  0.0813 -0.0540  0.0355
  451loPI   PO4 7204   2.660   8.519   9.494 -0.1897 -0.2113 -0.0529
  451loPI   GL1 7205   2.747   8.725   9.115  0.1404  0.1693  0.2918
  451loPI   GL2 7206   3.081   8.911   9.064 -0.0825  0.1478 -0.1849
  451loPI   C1A 7207   2.647   8.735   8.653  0.2631  0.3646  0.0326
  451loPI   C2A 7208   2.684   8.787   8.276  0.0938 -0.0722 -0.0634
  451loPI   C3A 7209   2.633   9.222   8.239  0.1476 -0.3750 -0.2897
  451loPI   C4A 7210   2.742   9.470   7.914  0.1165  0.0680  0.3215
  451loPI   C5A 7211   2.910   9.735   7.627 -0.2250  0.4147 -0.4584
  451loPI   C6A 7212   3.432   9.742   7.437 -0.4147 -0.0750 -0.0805
  451loPI   C1B 7213   2.989   9.081   8.604  0.1300  0.2349  0.1165
  451loPI   C2B 7214   3.072   9.050   8.157 -0.1704  0.0012  0.0872
  451loPI   C3B 7215   2.837   8.981   7.797 -0.1435  0.1805 -0.4710
  451loPI   C4B 7216   2.809   9.058   7.383 -0.1338 -0.0071 -0.1100
  452loPI    C1 7217  18.483   6.240   9.802 -0.0571  0.0539 -0.2067
  452loPI    C2 7218  18.527   6.616   9.673  0.1210  0.0580 -0.1365
  452loPI    C3 7219  18.600   6.526  10.056  0.1457 -0.0612 -0.1688
  452loPI   PO4 7220  18.621   6.095   9.588  0.1383  0.2031 -0.1562
  452loPI   GL1 7221  18.590   6.248   9.283  0.0491  0.0800  0.0787
  452loPI   GL2 7222  18.908   6.440   9.352  0.0430 -0.0422 -0.0228
  452loPI   C1A 7223  18.376   6.403   8.813 -0.0001 -0.0709 -0.1807
  452loPI   C2A 7224  18.312   6.704   8.429 -0.1644  0.1619  0.0851
  452loPI   C3A 7225  18.369   6.940   8.023  0.1316 -0.2099 -0.3011
  452loPI   C4A 7226  18.466   7.141   7.554 -0.0884  0.0128 -0.1000
  452loPI   C5A 7227  18.674   7.483   7.267  0.0459  0.0184 -0.1107
  452loPI   C6A 7228  18.814   7.880   7.446 -0.1148  0.1615 -0.0611
  452loPI   C1B 7229  18.847   6.639   9.052  0.0609 -0.0168 -0.2475
  452loPI   C2B 7230  18.589   6.855   8.791  0.3177  0.0551  0.0880
  452loPI   C3B 7231  18.721   7.055   8.396 -0.1342  0.2429 -0.1016
  452loPI   C4B 7232  18.639   7.365   8.194 -0.0581 -0.2066 -0.2105
  453loPI    C1 7233  12.156  15.912  10.032  0.1186  0.3833  0.1614
  453loPI    C2 7234  12.265  15.531  10.088 -0.2135  0.2163 -0.2677
  453loPI    C3 7235  12.311  15.798  10.383  0.0182 -0.1530  0.0406
  453loPI   PO4 7236  12.220  15.998   9.874  0.1401 -0.0950 -0.1321
  453loPI   GL1 7237  12.198  16.251   9.582 -0.3257  0.0157 -0.0863
  453loPI   GL2 7238  12.059  15.935   9.378  0.0588 -0.3443  0.1535
  453loPI   C1A 7239  12.229  16.553   9.216  0.1712 -0.0613 -0.1344
  453loPI   C2A 7240  12.149  16.655   8.779 -0.0986  0.0376  0.3229
  453loPI   C3A 7241  11.992  16.775   8.386  0.1334 -0.1210  0.0350
  453loPI   C4A 7242  11.878  16.867   7.988 -0.0769  0.1521 -0.4275
  453loPI   C5A 7243  11.728  16.689   7.558  0.1227 -0.4287 -0.1612
  453loPI   C6A 7244  12.002  16.821   7.231 -0.1689  0.0250 -0.2594
  453loPI   C1B 7245  12.222  16.028   8.986 -0.2135 -0.0174  0.0729
  453loPI   C2B 7246  12.158  16.145   8.517  0.2901  0.1159 -0.3895
  453loPI   C3B 7247  11.913  16.092   8.252 -0.2471  0.1807  0.2112
  453loPI   C4B 7248  11.967  16.294   7.927 -0.2770  0.0244 -0.0061
  454loPI    C1 7249   8.513   2.049   9.128  0.0703 -0.2669 -0.0755
  454loPI    C2 7250   8.406   1.761   9.383 -0.0944 -0.1593 -0.0217
  454loPI    C3 7251   8.704   2.011   9.477 -0.0257 -0.2413 -0.0200
  454loPI   PO4 7252   8.479   1.989   8.888 -0.0915  0.4202  0.0001
  454loPI   GL1 7253   8.699   2.103   8.461  0.0020 -0.2205 -0.2831
  454loPI   GL2 7254   8.848   1.922   8.526  0.0647  0.0357 -0.0501
  454loPI   C1A 7255   8.437   1.826   8.297 -0.2435 -0.0009  0.1583
  454loPI   C2A 7256   8.424   1.737   7.867 -0.0650  0.0320 -0.0778
  454loPI   C3A 7257   8.183   1.752   7.572  0.1203  0.0633 -0.1868
  454loPI   C4A 7258   8.161   1.320   7.346 -0.0394 -0.1191  0.0100
  454loPI   C5A 7259   7.814   1.023   7.139 -0.0065  0.3991 -0.0407
  454loPI   C6A 7260   7.684   0.850   6.712 -0.3460 -0.1490  0.2295
  454loPI   C1B 7261   8.859   1.595   8.077  0.1319  0.2539 -0.0044
  454loPI   C2B 7262   8.889   1.651   7.705 -0.0993 -0.1394 -0.0553
  454loPI   C3B 7263   9.280   1.531   7.447  0.0289  0.1792  0.2888
  454loPI   C4B 7264   9.389   1.447   6.939 -0.0484 -0.1108  0.0992
  455loPI    C1 7265   2.324  14.494  10.324 -0.0378 -0.2653 -0.0175
  455loPI    C2 7266   2.692  14.409  10.455 -0.1188 -0.3739  0.1424
  455loPI    C3 7267   2.376  14.352  10.694 -0.2100  0.0324  0.1249
  455loPI   PO4 7268   2.269  14.800  10.231  0.1425  0.0333 -0.0970
  455loPI   GL1 7269   2.453  14.944   9.763  0.0603  0.0050 -0.2409
  455loPI   GL2 7270   2.328  15.067   9.571  0.1758  0.1228 -0.0506
  455loPI   C1A 7271   2.631  14.551   9.417  0.2502  0.0250  0.1260
  455loPI   C2A 7272   2.646  14.225   9.063 -0.1229  0.3185  0.1546
  455loPI   C3A 7273   2.491  13.839   9.034 -0.1204  0.1913  0.0301
  455loPI   C4A 7274   2.200  13.748   8.656  0.0581 -0.3456 -0.5121
  455loPI   C5A 7275   2.015  13.729   8.180 -0.2065 -0.4368  0.2814
  455loPI   C6A 7276   1.963  13.762   7.752  0.3059 -0.2987  0.2280
  455loPI   C1B 7277   2.286  14.800   9.159 -0.3307 -0.0215  0.0699
  455loPI   C2B 7278   2.226  14.697   8.815  0.1061 -0.0301  0.1524
  455loPI   C3B 7279   2.254  14.751   8.412 -0.0758 -0.0788 -0.0673
  455loPI   C4B 7280   2.102  14.987   8.086 -0.1958  0.2446  0.1639
  456loPI    C1 7281  14.826  12.067   9.634 -0.0670 -0.0629 -0.2290
  456loPI    C2 7282  15.180  12.238   9.710 -0.2556  0.2228  0.0296
  456loPI    C3 7283  14.952  12.107  10.012 -0.3533 -0.0003 -0.1379
  456loPI   PO4 7284  14.741  12.197   9.492  0.2587 -0.0604  0.0829
  456loPI   GL1 7285  14.407  12.046   9.320 -0.0140  0.0349 -0.0686
  456loPI   GL2 7286  14.611  12.306   9.030 -0.2147 -0.1691  0.2071
  456loPI   C1A 7287  14.356  11.884   8.899 -0.0414  0.1208  0.1768
  456loPI   C2A 7288  14.371  11.798   8.480  0.1127 -0.3341  0.2553
  456loPI   C3A 7289  14.418  11.786   8.089 -0.0669 -0.2041  0.1909
  456loPI   C4A 7290  14.185  11.929   7.711  0.1954 -0.1098 -0.2389
  456loPI   C5A 7291  14.034  12.159   7.343 -0.2658 -0.4165 -0.3694
  456loPI   C6A 7292  14.115  12.054   6.820  0.1713 -0.0694 -0.0072
  456loPI   C1B 7293  14.509  12.338   8.615 -0.2614 -0.1331  0.4202
  456loPI   C2B 7294  14.496  12.263   8.156  0.0925  0.0663 -0.0048
  456loPI   C3B 7295  14.452  12.391   7.697  0.3081 -0.1419 -0.1757
  456loPI   C4B 7296  14.809  12.452   7.456 -0.2561  0.0824  0.1371
  457loPI    C1 7297   9.115  10.540   9.513  0.0705 -0.0432  0.0351
  457loPI    C2 7298   9.319  10.640   9.842  0.1360 -0.0909  0.0094
  457loPI    C3 7299   9.095  10.309   9.839 -0.1680  0.1087  0.1309
  457loPI   PO4 7300   8.961  10.779   9.379 -0.1355 -0.0611  0.0499
  457loPI   GL1 7301   8.824  11.061   9.125 -0.2116 -0.3826 -0.4257
  457loPI   GL2 7302   8.530  10.942   9.100  0.2266 -0.1081 -0.0259
  457loPI   C1A 7303   8.915  11.227   8.736  0.1900  0.1009 -0.0432
  457loPI   C2A 7304   8.809  11.473   8.477  0.2961  0.1763 -0.1104
  457loPI   C3A 7305   8.661  11.900   8.236  0.0079 -0.1470 -0.0184
  457loPI   C4A 7306   8.477  11.892   7.888  0.1075 -0.0354 -0.4644
  457loPI   C5A 7307   8.324  11.760   7.510 -0.0301 -0.0425 -0.1366
  457loPI   C6A 7308   8.285  11.672   7.047 -0.0394  0.2198 -0.3107
  457loPI   C1B 7309   8.434  11.243   8.750 -0.4423  0.2804  0.0565
  457loPI   C2B 7310   8.298  11.505   8.407  0.1351 -0.1806  0.1760
  457loPI   C3B 7311   7.851  11.549   8.326  0.1069  0.2851  0.3220
  457loPI   C4B 7312   7.463  11.852   8.310  0.1261  0.0381 -0.1751
  458loPI    C1 7313  18.858  18.767   9.880 -0.1487  0.0437  0.0325
  458loPI    C2 7314  19.065  18.988  10.141 -0.0080 -0.0085 -0.0337
  458loPI    C3 7315  18.703  18.848  10.240  0.0425 -0.0242  0.1313
  458loPI   PO4 7316  19.157  18.774   9.666 -0.0006  0.0431  0.3490
  458loPI   GL1 7317  19.192  18.856   9.294  0.1828 -0.1061  0.0795
  458loPI   GL2 7318  19.230  18.583   9.211 -0.1144 -0.1360 -0.1015
  458loPI   C1A 7319  19.479  19.057   9.014  0.0335 -0.0305 -0.0697
  458loPI   C2A 7320  19.555  19.102   8.474 -0.0096 -0.0041 -0.0475
  458loPI   C3A 7321  19.574  19.085   8.096 -0.0399 -0.2861  0.0104
  458loPI   C4A 7322  19.635  19.073   7.656  0.4414 -0.0252  0.2117
  458loPI   C5A 7323  19.776  18.890   7.274  0.0373 -0.2392  0.0454
  458loPI   C6A 7324  19.722  18.510   7.047  0.0262  0.0710 -0.0158
  458loPI   C1B 7325  19.262  18.602   8.783  0.0191  0.1385 -0.2352
  458loPI   C2B 7326  19.289  18.700   8.426 -0.1254 -0.0141  0.0029
  458loPI   C3B 7327  19.464  18.584   8.076  0.1223  0.0693  0.0876
  458loPI   C4B 7328  19.264  18.702   7.718 -0.4672 -0.1316  0.3017
  459loPI    C1 7329  13.909  12.582  10.068 -0.0713  0.1632 -0.0066
  459loPI    C2 7330  13.976  12.190  10.112 -0.2651  0.1156 -0.1262
  459loPI    C3 7331  14.212  12.455  10.296 -0.1203 -0.0567 -0.0618
  459loPI   PO4 7332  13.749  12.607   9.771 -0.0852  0.2090 -0.2393
  459loPI   GL1 7333  13.617  12.619   9.426  0.0649  0.0832 -0.0521
  459loPI   GL2 7334  13.945  12.489   9.335  0.1966 -0.0016  0.0238
  459loPI   C1A 7335  13.782  12.770   8.964  0.2898 -0.0915  0.2140
  459loPI   C2A 7336  13.595  12.661   8.633  0.0245  0.3201 -0.0849
  459loPI   C3A 7337  13.705  12.580   8.226 -0.1783  0.2956  0.0194
  459loPI   C4A 7338  13.459  12.816   7.788 -0.2379 -0.3980  0.0534
  459loPI   C5A 7339  13.445  13.103   7.476 -0.1520 -0.2423 -0.3901
  459loPI   C6A 7340  13.144  13.328   7.140 -0.2219  0.1602  0.0042
  459loPI   C1B 7341  13.989  12.314   8.957  0.1500  0.2671  0.0093
  459loPI   C2B 7342  14.030  12.231   8.484 -0.1644  0.3245 -0.4835
  459loPI   C3B 7343  14.066  12.359   8.001 -0.0085 -0.0812 -0.1292
  459loPI   C4B 7344  13.885  12.605   7.748 -0.1979 -0.0032  0.2593
  460loPI    C1 7345   2.621   4.641   9.969 -0.0068 -0.1259  0.1991
  460loPI    C2 7346   2.663   4.972   9.749 -0.1151 -0.2691 -0.0417
  460loPI    C3 7347   2.298   4.845   9.852 -0.0691 -0.2574  0.1393
  460loPI   PO4 7348   2.744   4.397   9.814 -0.0472  0.3555 -0.2690
  460loPI   GL1 7349   2.790   4.318   9.373 -0.2522  0.2022  0.1254
  460loPI   GL2 7350   2.482   4.608   9.466  0.0986 -0.0860  0.2356
  460loPI   C1A 7351   2.528   4.236   8.965 -0.2718 -0.0750 -0.1697
  460loPI   C2A 7352   2.429   3.857   8.681 -0.0369 -0.2232  0.0562
  460loPI   C3A 7353   2.274   3.740   8.345  0.1874  0.1455  0.3524
  460loPI   C4A 7354   2.144   3.906   7.873 -0.4465  0.4483  0.0135
  460loPI   C5A 7355   2.167   3.924   7.419 -0.0278  0.1297  0.2146
  460loPI   C6A 7356   2.115   3.728   7.125  0.0979  0.0029 -0.1666
  460loPI   C1B 7357   2.727   4.768   9.143 -0.0140 -0.4698 -0.1630
  460loPI   C2B 7358   2.874   4.764   8.666 -0.0963 -0.0314  0.0912
  460loPI   C3B 7359   2.705   4.537   8.299 -0.0524 -0.1461  0.1899
  460loPI   C4B 7360   2.301   4.294   8.163  0.0779  0.2133  0.0074
  461loPI    C1 7361  18.591  15.386  10.104  0.4365 -0.0072  0.1372
  461loPI    C2 7362  18.404  15.580  10.399  0.0691  0.0831 -0.1479
  461loPI    C3 7363  18.724  15.354  10.480  0.0512  0.2075  0.2971
  461loPI   PO4 7364  18.587  15.588   9.841  0.0468 -0.0080  0.2841
  461loPI   GL1 7365  18.502  15.727   9.514 -0.2907  0.2020  0.0276
  461loPI   GL2 7366  18.251  16.041   9.644  0.1605  0.1520  0.2135
  461loPI   C1A 7367  18.413  15.822   9.152 -0.0656 -0.1763 -0.2440
  461loPI   C2A 7368  18.400  15.573   8.774 -0.1767 -0.1329 -0.3950
  461loPI   C3A 7369  18.514  15.477   8.417  0.1264 -0.0282  0.2528
  461loPI   C4A 7370  18.558  15.622   7.983 -0.0102 -0.1024  0.0967
  461loPI   C5A 7371  18.370  15.965   7.694 -0.0702  0.0861  0.4726
  461loPI   C6A 7372  18.201  16.246   7.381  0.2054 -0.2382 -0.1054
  461loPI   C1B 7373  17.924  15.943   9.322  0.3653 -0.2318 -0.2572
  461loPI   C2B 7374  17.932  15.646   8.965 -0.2111  0.0779  0.0248
  461loPI   C3B 7375  18.081  15.899   8.617  0.0845  0.1215  0.0122
  461loPI   C4B 7376  18.218  15.907   8.200 -0.2488  0.0410  0.1259
  462loPI    C1 7377   2.168  15.697   9.991  0.0843  0.0463  0.0191
  462loPI    C2 7378   2.334  15.726  10.354  0.1226 -0.0003  0.0055
  462loPI    C3 7379   2.082  16.009  10.226  0.0919  0.0047  0.0771
  462loPI   PO4 7380   2.282  15.718   9.777 -0.1687  0.4602  0.0696
  462loPI   GL1 7381   2.280  15.651   9.408  0.2513 -0.2039 -0.0103
  462loPI   GL2 7382   2.454  15.888   9.359  0.1051 -0.2944  0.3289
  462loPI   C1A 7383   2.499  15.238   9.163  0.1552 -0.0171 -0.0581
  462loPI   C2A 7384   2.472  15.152   8.759 -0.2392  0.1191  0.0156
  462loPI   C3A 7385   2.714  14.991   8.425  0.0934  0.0051 -0.1431
  462loPI   C4A 7386   2.776  14.553   8.232 -0.0808  0.0092  0.0742
  462loPI   C5A 7387   2.820  14.277   8.028 -0.2496 -0.2306  0.1937
  462loPI   C6A 7388   3.031  13.906   7.782  0.1041  0.0689 -0.1755
  462loPI   C1B 7389   2.631  16.008   8.924 -0.0124  0.1295  0.1984
  462loPI   C2B 7390   2.915  15.956   8.499  0.2072  0.1078 -0.1798
  462loPI   C3B 7391   3.184  16.402   8.252 -0.2166 -0.0379 -0.1913
  462loPI   C4B 7392   3.383  16.663   7.863  0.0650  0.2117 -0.0338
  463loPI    C1 7393   1.256   1.847  10.057  0.2025  0.0097 -0.0496
  463loPI    C2 7394   1.135   1.477   9.962  0.1916 -0.0494  0.1864
  463loPI    C3 7395   1.413   1.530  10.244  0.2484  0.1200  0.1004
  463loPI   PO4 7396   1.053   1.927   9.828 -0.0420 -0.3642 -0.1554
  463loPI   GL1 7397   0.972   1.717   9.445  0.1437  0.0777 -0.2021
  463loPI   GL2 7398   1.251   1.688   9.447 -0.1666  0.0665  0.2771
  463loPI   C1A 7399   0.821   1.906   9.037  0.0574 -0.1490 -0.0040
  463loPI   C2A 7400   0.717   2.177   8.681 -0.3760 -0.0714 -0.2093
  463loPI   C3A 7401   0.749   2.412   8.410  0.3590 -0.1328  0.1472
  463loPI   C4A 7402   0.651   2.668   8.011 -0.2100 -0.1759 -0.0427
  463loPI   C5A 7403   0.564   2.730   7.579 -0.0541 -0.0694  0.0756
  463loPI   C6A 7404   0.486   2.525   7.162  0.0521  0.1563 -0.1702
  463loPI   C1B 7405   1.154   1.497   9.082 -0.0015  0.0629  0.0565
  463loPI   C2B 7406   0.928   1.338   8.794 -0.0660  0.0261 -0.2624
  463loPI   C3B 7407   1.016   1.149   8.495 -0.0201 -0.0263 -0.3459
  463loPI   C4B 7408   1.062   0.843   8.185 -0.2052 -0.0282  0.3986
  464loPI    C1 7409   7.468  17.343   9.974  0.0681 -0.0195  0.1001
  464loPI    C2 7410   7.432  16.948  10.030 -0.0826 -0.0187  0.0148
  464loPI    C3 7411   7.549  17.183  10.332 -0.3425 -0.0840  0.1692
  464loPI   PO4 7412   7.540  17.351   9.783  0.2024 -0.3226  0.0937
  464loPI   GL1 7413   7.829  17.337   9.526  0.0712  0.0397 -0.0758
  464loPI   GL2 7414   7.640  17.127   9.183 -0.1194  0.0555  0.1599
  464loPI   C1A 7415   8.227  17.213   9.316  0.1544 -0.0299  0.1604
  464loPI   C2A 7416   8.451  17.088   8.913  0.0979  0.0021  0.1047
  464loPI   C3A 7417   8.425  16.861   8.545 -0.2180  0.1073  0.0558
  464loPI   C4A 7418   8.827  16.891   8.392 -0.1149  0.0240  0.2147
  464loPI   C5A 7419   9.146  16.829   8.048 -0.0591 -0.0837 -0.2462
  464loPI   C6A 7420   9.259  16.589   7.785 -0.3067 -0.0152 -0.1132
  464loPI   C1B 7421   7.652  17.320   8.827 -0.0748 -0.2472 -0.1944
  464loPI   C2B 7422   7.467  17.456   8.494 -0.0956  0.0633 -0.0098
  464loPI   C3B 7423   7.413  17.528   8.000  0.0345 -0.1096 -0.0450
  464loPI   C4B 7424   7.177  17.277   7.744  0.0481  0.1737 -0.2373
  465loPI    C1 7425  10.224   6.979   9.730 -0.2189 -0.0371 -0.1323
  465loPI    C2 7426  10.172   6.619   9.898 -0.1191  0.1037  0.2105
  465loPI    C3 7427   9.871   6.883   9.892 -0.1468  0.0704  0.0924
  465loPI   PO4 7428  10.243   7.012   9.508 -0.0373 -0.0764 -0.2465
  465loPI   GL1 7429  10.373   6.981   9.099  0.1342 -0.0694 -0.1835
  465loPI   GL2 7430  10.646   6.741   9.106 -0.0993 -0.0672 -0.0661
  465loPI   C1A 7431  10.431   7.187   8.791  0.0469 -0.1678 -0.2914
  465loPI   C2A 7432  10.421   7.377   8.351  0.2373  0.0695 -0.0767
  465loPI   C3A 7433  10.541   7.470   7.966  0.0340 -0.0713 -0.1674
  465loPI   C4A 7434  10.702   7.339   7.608  0.2152 -0.0225  0.1624
  465loPI   C5A 7435  10.656   7.269   7.237  0.1481 -0.0874 -0.1124
  465loPI   C6A 7436  10.711   7.546   6.945  0.2187 -0.2395  0.0493
  465loPI   C1B 7437  10.793   6.662   8.675  0.1385  0.4818  0.3815
  465loPI   C2B 7438  11.031   6.544   8.224  0.0962 -0.1499  0.0417
  465loPI   C3B 7439  11.268   6.354   7.818 -0.0722  0.4855 -0.2038
  465loPI   C4B 7440  11.427   6.636   7.433  0.0994  0.0969 -0.2231
  466loPI    C1 7441  12.871  10.916   9.723 -0.3329  0.1749  0.0166
  466loPI    C2 7442  13.157  10.874  10.000 -0.1749  0.1194 -0.1529
  466loPI    C3 7443  12.794  11.004  10.105 -0.1008  0.1486  0.0712
  466loPI   PO4 7444  12.903  10.761   9.560  0.0671 -0.1247  0.4516
  466loPI   GL1 7445  12.704  11.047   9.203 -0.2535  0.1266 -0.0332
  466loPI   GL2 7446  12.386  11.158   9.182  0.2777 -0.2360 -0.1990
  466loPI   C1A 7447  12.524  11.099   8.752  0.0245 -0.0590  0.0842
  466loPI   C2A 7448  12.725  10.892   8.315 -0.1000  0.2394 -0.0911
  466loPI   C3A 7449  12.864  10.660   7.820 -0.4082 -0.1374  0.4370
  466loPI   C4A 7450  13.297  10.551   7.634  0.3617  0.4073 -0.2301
  466loPI   C5A 7451  13.603  10.405   7.492  0.0061 -0.3085  0.2175
  466loPI   C6A 7452  13.603  10.160   7.125  0.1132  0.0263  0.1904
  466loPI   C1B 7453  12.262  11.588   8.925  0.1017  0.2292  0.1043
  466loPI   C2B 7454  12.334  11.504   8.513 -0.1415 -0.2436  0.0229
  466loPI   C3B 7455  12.376  11.235   8.198  0.0948 -0.2826  0.0081
  466loPI   C4B 7456  12.536  10.978   7.797 -0.1888 -0.1843 -0.3131
  467loPI    C1 7457   0.977  12.073  10.173 -0.2034  0.0255  0.1868
  467loPI    C2 7458   0.697  11.852  10.353 -0.3637 -0.1041 -0.2098
  467loPI    C3 7459   1.060  11.699  10.286 -0.2118  0.0409  0.2441
  467loPI   PO4 7460   0.823  12.215   9.928  0.2944 -0.0908  0.0591
  467loPI   GL1 7461   0.631  12.204   9.572  0.2642 -0.0226 -0.0277
  467loPI   GL2 7462   0.445  11.949   9.505  0.2388 -0.1283  0.5121
  467loPI   C1A 7463   0.436  12.265   9.125 -0.1045 -0.1966  0.1634
  467loPI   C2A 7464   0.672  12.044   8.784  0.1725 -0.2751 -0.2440
  467loPI   C3A 7465   0.624  12.059   8.289  0.2277 -0.2882  0.1807
  467loPI   C4A 7466   0.501  11.733   8.024 -0.0584  0.0680 -0.0707
  467loPI   C5A 7467   0.082  11.676   7.777 -0.3340 -0.1808  0.4861
  467loPI   C6A 7468  -0.318  11.493   7.845 -0.0581 -0.0738 -0.1658
  467loPI   C1B 7469   0.449  11.697   9.151 -0.4888 -0.0779 -0.1421
  467loPI   C2B 7470   0.619  11.381   8.888 -0.2372  0.0086 -0.0509
  467loPI   C3B 7471   0.865  11.228   8.637  0.0363  0.1025 -0.0361
  467loPI   C4B 7472   1.098  11.055   8.237 -0.3213  0.0179 -0.2393
  468loPI    C1 7473   0.082  11.061  10.135  0.0327 -0.1248 -0.0093
  468loPI    C2 7474  -0.272  11.180  10.278  0.0425 -0.1676  0.0513
  468loPI    C3 7475   0.061  11.245  10.490  0.0371 -0.3849  0.1287
  468loPI   PO4 7476   0.052  11.189   9.846  0.0466 -0.1008  0.1870
  468loPI   GL1 7477  -0.045  11.306   9.501 -0.0561  0.0794 -0.0712
  468loPI   GL2 7478   0.025  11.698   9.635 -0.0129  0.0755 -0.2910
  468loPI   C1A 7479   0.172  11.278   9.184 -0.1450  0.0792 -0.0001
  468loPI   C2A 7480   0.341  10.958   9.016  0.0982 -0.1274  0.1011
  468loPI   C3A 7481   0.408  11.065   8.573  0.3992  0.0625 -0.2340
  468loPI   C4A 7482   0.163  10.844   8.201 -0.2627 -0.0199 -0.0015
  468loPI   C5A 7483   0.125  10.925   7.741 -0.0315  0.5100 -0.0452
  468loPI   C6A 7484   0.471  10.765   7.404 -0.4982 -0.1892  0.0833
  468loPI   C1B 7485  -0.018  11.834   9.195 -0.0524  0.0794 -0.2735
  468loPI   C2B 7486   0.072  12.122   8.885 -0.1060  0.2129 -0.3374
  468loPI   C3B 7487   0.247  12.256   8.585 -0.2140 -0.0418 -0.5219
  468loPI   C4B 7488   0.186  12.716   8.459 -0.0533 -0.0042  0.1716
  469loPI    C1 7489   7.612   8.595   8.811  0.1857  0.1405  0.2318
  469loPI    C2 7490   7.884   8.463   8.549 -0.1077  0.0729 -0.0451
  469loPI    C3 7491   7.612   8.211   8.699 -0.0757  0.1593  0.1619
  469loPI   PO4 7492   7.722   8.839   8.880  0.1451  0.4419  0.1191
  469loPI   GL1 7493   7.983   9.022   8.500  0.3479 -0.0167  0.1054
  469loPI   GL2 7494   8.191   8.933   8.572  0.3420 -0.1881 -0.2384
  469loPI   C1A 7495   8.020   9.417   8.305  0.5573  0.1200 -0.0593
  469loPI   C2A 7496   8.238   9.738   7.939 -0.3663  0.3510 -0.1815
  469loPI   C3A 7497   8.372  10.098   7.721 -0.0293 -0.3824  0.0742
  469loPI   C4A 7498   8.505  10.226   7.349 -0.3553  0.1024 -0.3354
  469loPI   C5A 7499   8.637  10.689   7.170  0.1975  0.2893 -0.0465
  469loPI   C6A 7500   8.395  11.112   7.035 -0.3438 -0.1672 -0.2232
  469loPI   C1B 7501   8.396   9.127   8.258  0.0911 -0.0961  0.3604
  469loPI   C2B 7502   8.566   9.226   7.872 -0.1645  0.2559 -0.0968
  469loPI   C3B 7503   8.462   9.427   7.547  0.2883 -0.2846 -0.4463
  469loPI   C4B 7504   8.270   9.756   7.179 -0.3710  0.0626 -0.0343
  470loPI    C1 7505  17.474  11.515  10.419 -0.1984 -0.0150  0.0999
  470loPI    C2 7506  17.597  11.691  10.756  0.0592 -0.1773  0.0939
  470loPI    C3 7507  17.340  11.385  10.773 -0.0468 -0.0869  0.1319
  470loPI   PO4 7508  17.476  11.693  10.239  0.0156  0.1325 -0.0497
  470loPI   GL1 7509  17.662  11.751   9.813  0.0929  0.0585  0.0495
  470loPI   GL2 7510  17.587  12.062   9.943  0.3682  0.0335 -0.1148
  470loPI   C1A 7511  17.694  11.786   9.475 -0.0510  0.3444 -0.1173
  470loPI   C2A 7512  17.887  11.782   9.090  0.3608  0.0978 -0.0465
  470loPI   C3A 7513  17.860  11.737   8.677 -0.0115  0.4106 -0.0373
  470loPI   C4A 7514  17.708  11.890   8.376  0.2139 -0.0298  0.0281
  470loPI   C5A 7515  17.885  12.319   8.280 -0.1372 -0.1687 -0.2453
  470loPI   C6A 7516  18.156  12.630   7.992 -0.4016 -0.1317  0.2190
  470loPI   C1B 7517  17.373  12.137   9.606  0.2680 -0.0110 -0.0839
  470loPI   C2B 7518  17.492  12.223   9.182 -0.2188  0.0661 -0.1036
  470loPI   C3B 7519  17.621  12.237   8.784  0.4426 -0.2091 -0.2553
  470loPI   C4B 7520  17.404  12.398   8.409 -0.3096 -0.1484  0.0262
  471loPI    C1 7521  15.274   5.309  10.007  0.1216  0.0309  0.2448
  471loPI    C2 7522  14.876   5.295  10.051  0.0798  0.4455  0.0491
  471loPI    C3 7523  15.103   5.461  10.336  0.1070  0.2883  0.1204
  471loPI   PO4 7524  15.230   5.345   9.728  0.3034 -0.0403 -0.1733
  471loPI   GL1 7525  15.261   5.089   9.266 -0.1221  0.1082  0.0359
  471loPI   GL2 7526  15.266   5.360   9.234  0.1905 -0.2947 -0.2279
  471loPI   C1A 7527  15.579   4.793   9.068  0.0404  0.1891 -0.2466
  471loPI   C2A 7528  15.559   4.533   8.662  0.1843 -0.2839  0.0245
  471loPI   C3A 7529  15.630   4.210   8.393  0.1057 -0.0092  0.1596
  471loPI   C4A 7530  15.448   4.238   8.008 -0.1273  0.0621 -0.3689
  471loPI   C5A 7531  15.462   4.199   7.663 -0.1826  0.0362  0.1290
  471loPI   C6A 7532  15.371   3.932   7.469  0.0120 -0.2421  0.0002
  471loPI   C1B 7533  15.285   5.222   8.813  0.0975 -0.3343  0.0535
  471loPI   C2B 7534  15.366   5.003   8.451  0.0565 -0.2881  0.3847
  471loPI   C3B 7535  15.400   4.821   8.072 -0.0349 -0.1534  0.3530
  471loPI   C4B 7536  15.351   4.650   7.706  0.1180 -0.0097  0.0115
  472loPI    C1 7537  17.490   5.196   9.852  0.0159 -0.0620  0.0335
  472loPI    C2 7538  17.811   5.357  10.027  0.0183  0.2251 -0.2260
  472loPI    C3 7539  17.479   5.290  10.240  0.1908  0.0863  0.0038
  472loPI   PO4 7540  17.480   5.240   9.655  0.0504  0.0908 -0.2052
  472loPI   GL1 7541  17.521   5.317   9.234  0.0981 -0.2830 -0.4117
  472loPI   GL2 7542  17.300   5.235   9.082 -0.0537  0.0174 -0.0960
  472loPI   C1A 7543  17.913   5.211   8.965 -0.1256 -0.1667 -0.1249
  472loPI   C2A 7544  17.957   4.782   8.670 -0.0145  0.0704  0.0143
  472loPI   C3A 7545  18.260   4.625   8.388  0.2113 -0.1376  0.0927
  472loPI   C4A 7546  18.523   4.735   8.113 -0.0881  0.1306  0.3507
  472loPI   C5A 7547  18.571   4.629   7.591 -0.2558  0.1386  0.0096
  472loPI   C6A 7548  18.959   4.687   7.393  0.3305  0.3356  0.1865
  472loPI   C1B 7549  17.510   5.477   8.676 -0.0414 -0.2229  0.0528
  472loPI   C2B 7550  17.767   5.440   8.202 -0.1200 -0.0445  0.0154
  472loPI   C3B 7551  17.965   5.521   7.904  0.1629 -0.1311 -0.2109
  472loPI   C4B 7552  18.108   5.348   7.546  0.2949  0.1917 -0.2943
  473loPI    C1 7553  13.208   8.817   9.842 -0.2328  0.4045 -0.2181
  473loPI    C2 7554  12.948   9.011  10.076 -0.0175  0.2534  0.1553
  473loPI    C3 7555  13.329   8.970  10.191 -0.0501 -0.3698  0.0790
  473loPI   PO4 7556  13.135   8.736   9.591 -0.1108  0.0168 -0.0276
  473loPI   GL1 7557  13.410   8.749   9.223 -0.2503  0.2347  0.0278
  473loPI   GL2 7558  13.316   8.419   9.232 -0.0078 -0.0237 -0.3124
  473loPI   C1A 7559  13.631   8.687   8.807 -0.1994  0.0108  0.0121
  473loPI   C2A 7560  13.952   8.780   8.400 -0.4358 -0.0018  0.1093
  473loPI   C3A 7561  14.131   8.569   8.007  0.3150 -0.0739  0.2302
  473loPI   C4A 7562  14.099   8.356   7.636 -0.3366 -0.1834  0.0613
  473loPI   C5A 7563  14.118   8.063   7.305 -0.2205  0.1345  0.3196
  473loPI   C6A 7564  14.120   7.720   7.024 -0.1185 -0.3583 -0.2599
  473loPI   C1B 7565  13.209   8.379   8.827  0.2116 -0.3459  0.1326
  473loPI   C2B 7566  13.114   8.323   8.357  0.1033 -0.2197  0.2364
  473loPI   C3B 7567  12.952   8.542   8.034  0.0470  0.0186 -0.0035
  473loPI   C4B 7568  12.720   8.569   7.707 -0.0186  0.1534  0.1665
  474loPI    C1 7569  13.707  15.197  10.044 -0.0403  0.0277 -0.0725
  474loPI    C2 7570  13.465  15.388  10.298 -0.0427  0.0213 -0.0701
  474loPI    C3 7571  13.373  15.020  10.173 -0.0017 -0.0066 -0.0190
  474loPI   PO4 7572  13.748  15.263   9.797 -0.2669  0.0457  0.3241
  474loPI   GL1 7573  13.606  15.467   9.433  0.0941 -0.0019  0.0295
  474loPI   GL2 7574  13.328  15.235   9.377 -0.3517 -0.0346 -0.0156
  474loPI   C1A 7575  13.595  15.462   9.055  0.1013 -0.0052  0.1818
  474loPI   C2A 7576  13.682  15.425   8.574 -0.3171  0.1876 -0.2662
  474loPI   C3A 7577  13.661  15.384   8.132 -0.0006 -0.1143  0.0572
  474loPI   C4A 7578  13.765  15.027   7.919  0.0097 -0.1044  0.3646
  474loPI   C5A 7579  13.766  14.738   7.541  0.1943  0.0333  0.1381
  474loPI   C6A 7580  13.821  14.569   7.115 -0.3232  0.1584 -0.1503
  474loPI   C1B 7581  13.376  15.104   8.819  0.0580  0.2419 -0.3157
  474loPI   C2B 7582  13.443  14.975   8.368  0.2681 -0.0523 -0.0470
  474loPI   C3B 7583  13.416  14.607   8.275  0.3859  0.2120 -0.0575
  474loPI   C4B 7584  13.686  14.527   7.997  0.1344  0.1091 -0.0544
  475loPI    C1 7585   6.815   8.501   9.054  0.1799 -0.0759 -0.1173
  475loPI    C2 7586   6.466   8.316   9.115 -0.0165  0.3174 -0.0120
  475loPI    C3 7587   6.780   8.233   9.348 -0.0886  0.0912  0.0071
  475loPI   PO4 7588   6.725   8.762   8.954 -0.2330 -0.3098 -0.1237
  475loPI   GL1 7589   6.767   8.806   8.516  0.0595  0.1225  0.2240
  475loPI   GL2 7590   6.565   8.566   8.508  0.0035  0.2583  0.3053
  475loPI   C1A 7591   6.672   8.847   8.047 -0.0525  0.1739 -0.3030
  475loPI   C2A 7592   6.709   8.833   7.601 -0.0276 -0.3875  0.1408
  475loPI   C3A 7593   6.744   8.885   7.230 -0.0233  0.0823 -0.0409
  475loPI   C4A 7594   6.479   9.150   6.938 -0.1457 -0.2964 -0.1029
  475loPI   C5A 7595   6.057   9.203   6.835 -0.0648 -0.1004  0.2586
  475loPI   C6A 7596   5.904   8.887   6.634 -0.2082 -0.2978  0.0429
  475loPI   C1B 7597   6.838   8.386   8.166  0.0031  0.1393 -0.4015
  475loPI   C2B 7598   6.982   8.503   7.749 -0.2860  0.1483  0.0395
  475loPI   C3B 7599   7.335   8.559   7.659 -0.1876 -0.1711 -0.1035
  475loPI   C4B 7600   7.717   8.886   7.581  0.2927 -0.2831  0.1017
  476loPI    C1 7601   3.927  15.914   9.820  0.2137  0.0762  0.1340
  476loPI    C2 7602   3.914  15.653  10.123 -0.1264  0.2299  0.2569
  476loPI    C3 7603   3.862  16.044  10.192 -0.1322  0.2750  0.0093
  476loPI   PO4 7604   3.750  15.756   9.637  0.1638  0.0152 -0.1395
  476loPI   GL1 7605   3.900  15.601   9.217 -0.3333 -0.0344  0.3495
  476loPI   GL2 7606   3.746  15.215   9.270 -0.0242 -0.1540 -0.0974
  476loPI   C1A 7607   3.871  15.578   8.817  0.1139 -0.1093  0.2095
  476loPI   C2A 7608   3.749  15.377   8.525 -0.0045  0.2353 -0.0321
  476loPI   C3A 7609   3.565  15.088   8.155  0.0152 -0.1966  0.1384
  476loPI   C4A 7610   3.473  15.200   7.720 -0.0791  0.0840  0.0447
  476loPI   C5A 7611   3.555  15.166   7.280  0.0222 -0.3446 -0.3024
  476loPI   C6A 7612   3.421  15.411   6.908  0.0046 -0.0263  0.1433
  476loPI   C1B 7613   3.824  14.837   9.076  0.0269 -0.0820 -0.4178
  476loPI   C2B 7614   3.732  14.837   8.602 -0.0374 -0.0600 -0.0666
  476loPI   C3B 7615   3.915  14.736   8.265 -0.1921 -0.0241  0.4714
  476loPI   C4B 7616   4.195  14.718   7.906 -0.0922  0.2476  0.1024
  477loPI    C1 7617  19.192   2.408   9.714 -0.1658  0.1889 -0.0944
  477loPI    C2 7618  19.195   2.523  10.097  0.1766  0.0480 -0.0506
  477loPI    C3 7619  18.867   2.354   9.940  0.1421 -0.1941  0.2726
  477loPI   PO4 7620  19.343   2.447   9.617 -0.0840  0.0662  0.2897
  477loPI   GL1 7621  19.657   2.362   9.304  0.3793  0.2286 -0.3150
  477loPI   GL2 7622  19.944   2.543   9.193  0.1939 -0.0404  0.1116
  477loPI   C1A 7623  19.690   2.068   8.919 -0.0742  0.1581 -0.1160
  477loPI   C2A 7624  19.632   2.008   8.506 -0.0338  0.1385  0.3611
  477loPI   C3A 7625  19.578   2.186   8.002 -0.1114  0.1461 -0.1476
  477loPI   C4A 7626  19.444   1.923   7.666 -0.0780  0.4594 -0.2896
  477loPI   C5A 7627  19.686   1.819   7.372 -0.0578 -0.2294  0.0913
  477loPI   C6A 7628  19.871   1.394   7.212  0.2703 -0.0150 -0.0674
  477loPI   C1B 7629  19.951   2.679   8.827 -0.2262 -0.2116  0.0726
  477loPI   C2B 7630  20.062   2.957   8.432  0.1714  0.3828  0.1735
  477loPI   C3B 7631  20.328   3.183   8.097 -0.1253  0.0935  0.0322
  477loPI   C4B 7632  20.287   3.277   7.764  0.0855 -0.0265  0.3216
  478loPI    C1 7633  13.240   1.475   9.868 -0.1223 -0.1937  0.3147
  478loPI    C2 7634  12.956   1.695  10.043 -0.0257  0.2765 -0.0983
  478loPI    C3 7635  13.331   1.709  10.180 -0.0497  0.2521 -0.0300
  478loPI   PO4 7636  13.206   1.446   9.671 -0.2330 -0.0882 -0.1273
  478loPI   GL1 7637  13.412   1.477   9.256 -0.1021 -0.3376 -0.0506
  478loPI   GL2 7638  13.367   1.676   8.988  0.2367  0.0421 -0.2195
  478loPI   C1A 7639  13.280   1.234   9.043 -0.3152  0.0764  0.0186
  478loPI   C2A 7640  13.079   1.289   8.578 -0.4194 -0.0677  0.0805
  478loPI   C3A 7641  13.167   1.047   8.230 -0.0904  0.2208  0.1997
  478loPI   C4A 7642  13.209   0.745   7.978 -0.2336  0.1839 -0.0137
  478loPI   C5A 7643  13.335   0.633   7.590  0.2014 -0.1782 -0.0251
  478loPI   C6A 7644  13.545   0.464   7.192 -0.1526  0.0200  0.1921
  478loPI   C1B 7645  13.575   1.520   8.486 -0.2601  0.0700 -0.1419
  478loPI   C2B 7646  13.930   1.482   8.136  0.2578  0.1213 -0.1048
  478loPI   C3B 7647  14.233   1.298   8.015  0.2179 -0.1415 -0.0903
  478loPI   C4B 7648  14.562   1.203   7.799 -0.2241  0.4445  0.1017
  479loPI    C1 7649   8.214   8.020   9.037  0.1831 -0.1915  0.1603
  479loPI    C2 7650   8.019   7.825   9.327 -0.1067 -0.1721 -0.0175
  479loPI    C3 7651   8.228   8.156   9.413  0.0011 -0.2962  0.2060
  479loPI   PO4 7652   8.091   8.047   8.852 -0.3562  0.3291  0.2042
  479loPI   GL1 7653   8.200   7.885   8.491 -0.0546  0.0371  0.2751
  479loPI   GL2 7654   8.191   7.644   8.386  0.1502  0.0311  0.3577
  479loPI   C1A 7655   8.247   7.910   7.979  0.3258  0.1467 -0.0814
  479loPI   C2A 7656   8.144   7.865   7.654  0.1888  0.1603  0.2195
  479loPI   C3A 7657   7.796   7.845   7.341 -0.2271  0.2432 -0.0660
  479loPI   C4A 7658   7.618   7.994   6.970  0.2963 -0.0022  0.0768
  479loPI   C5A 7659   7.357   8.316   6.782  0.1461 -0.3279  0.0408
  479loPI   C6A 7660   6.897   8.484   6.701 -0.1430 -0.1343 -0.0160
  479loPI   C1B 7661   7.954   7.509   8.021  0.0275  0.1016 -0.3187
  479loPI   C2B 7662   7.784   7.208   8.023  0.0092  0.1321  0.2431
  479loPI   C3B 7663   7.425   7.083   7.821  0.1392  0.0085  0.3121
  479loPI   C4B 7664   7.277   6.646   7.588  0.1119 -0.1719 -0.0342
  480loPI    C1 7665  17.631   8.431  10.361 -0.1384  0.3224  0.1683
  480loPI    C2 7666  17.824   8.121  10.199  0.2625  0.4572  0.3739
  480loPI    C3 7667  17.684   8.096  10.572 -0.1903  0.3360  0.2032
  480loPI   PO4 7668  17.517   8.521  10.066 -0.2050 -0.5072  0.2773
  480loPI   GL1 7669  17.621   8.795   9.677 -0.0521 -0.1944 -0.2794
  480loPI   GL2 7670  17.832   8.573   9.515 -0.1890 -0.2244 -0.2219
  480loPI   C1A 7671  17.389   9.016   9.332  0.0266  0.1432  0.1704
  480loPI   C2A 7672  17.045   8.974   9.076  0.0612  0.3191  0.0898
  480loPI   C3A 7673  17.054   8.795   8.725 -0.0064  0.1031  0.2074
  480loPI   C4A 7674  16.956   8.798   8.230 -0.0817 -0.0737  0.3591
  480loPI   C5A 7675  17.022   8.732   7.794  0.1431 -0.0250  0.0284
  480loPI   C6A 7676  16.910   8.700   7.318 -0.2200  0.2495  0.0661
  480loPI   C1B 7677  17.844   8.246   9.078 -0.0890 -0.2535 -0.2612
  480loPI   C2B 7678  17.741   8.168   8.674 -0.2428 -0.1156  0.0324
  480loPI   C3B 7679  17.645   8.157   8.277  0.1373  0.0651 -0.1397
  480loPI   C4B 7680  17.561   8.214   7.798  0.0301 -0.0848  0.1170
  481loPI    C1 7681   7.695  11.093  10.047 -0.0269  0.0192  0.0614
  481loPI    C2 7682   7.736  10.734  10.219  0.1706  0.0680  0.1196
  481loPI    C3 7683   7.536  11.025  10.407  0.0065 -0.0116  0.0703
  481loPI   PO4 7684   7.551  11.009   9.831  0.0384 -0.0580 -0.1797
  481loPI   GL1 7685   7.662  11.181   9.477  0.0254 -0.0659  0.2500
  481loPI   GL2 7686   7.385  11.155   9.327 -0.0019  0.1038  0.2040
  481loPI   C1A 7687   7.648  11.390   9.052 -0.1052 -0.1793 -0.0312
  481loPI   C2A 7688   7.479  11.490   8.640  0.0808  0.0398 -0.0920
  481loPI   C3A 7689   7.235  11.450   8.305 -0.0448  0.0383  0.1532
  481loPI   C4A 7690   7.119  11.339   7.804  0.4624 -0.0293 -0.0539
  481loPI   C5A 7691   6.948  11.214   7.452 -0.0449 -0.2535 -0.0239
  481loPI   C6A 7692   7.246  11.077   7.181 -0.5147  0.0037  0.1604
  481loPI   C1B 7693   7.157  11.519   9.043  0.0091 -0.2159 -0.2178
  481loPI   C2B 7694   6.917  11.593   8.717 -0.0141 -0.3469 -0.1365
  481loPI   C3B 7695   6.747  11.557   8.361  0.3802  0.0763 -0.2321
  481loPI   C4B 7696   6.681  11.274   8.033 -0.2905 -0.0525 -0.1441
  482loPI    C1 7697   9.566   5.638   9.098  0.0339 -0.1750  0.1323
  482loPI    C2 7698   9.565   5.559   8.706 -0.0304  0.0996  0.0753
  482loPI    C3 7699   9.251   5.455   8.931 -0.0554  0.0706  0.0275
  482loPI   PO4 7700   9.793   5.653   9.157  0.2215  0.2357 -0.0674
  482loPI   GL1 7701  10.073   5.475   8.848  0.0713 -0.2508  0.2279
  482loPI   GL2 7702  10.172   5.222   8.933  0.3965 -0.1486 -0.0699
  482loPI   C1A 7703   9.911   5.365   8.371 -0.1419  0.0708 -0.1706
  482loPI   C2A 7704   9.965   5.209   8.023  0.0604 -0.0454  0.0342
  482loPI   C3A 7705   9.861   5.106   7.690 -0.0087  0.4503 -0.0235
  482loPI   C4A 7706   9.574   5.114   7.441  0.1154  0.0310 -0.0669
  482loPI   C5A 7707   9.528   4.939   7.070  0.0743  0.2426 -0.1210
  482loPI   C6A 7708   9.759   4.535   6.961 -0.0037 -0.1692 -0.1538
  482loPI   C1B 7709  10.495   5.210   8.686  0.1862 -0.0558 -0.0292
  482loPI   C2B 7710  10.462   5.397   8.311 -0.0543  0.0440 -0.2305
  482loPI   C3B 7711  10.472   5.290   7.905  0.3020  0.0792  0.0524
  482loPI   C4B 7712  10.385   5.235   7.457 -0.4392  0.1084  0.1992
  483loPI    C1 7713  17.908   3.686   9.968  0.0826  0.2544  0.0515
  483loPI    C2 7714  18.136   3.379   9.852  0.3459  0.4472  0.0483
  483loPI    C3 7715  17.934   3.360  10.197  0.3070  0.2455  0.0157
  483loPI   PO4 7716  18.004   3.859   9.733  0.1069 -0.2090 -0.2110
  483loPI   GL1 7717  18.108   4.096   9.400 -0.0722 -0.1515 -0.2781
  483loPI   GL2 7718  18.024   4.465   9.450  0.2783  0.2106 -0.0910
  483loPI   C1A 7719  18.029   3.881   9.007  0.0937 -0.3246  0.3504
  483loPI   C2A 7720  17.760   3.780   8.763 -0.0084 -0.1231 -0.0918
  483loPI   C3A 7721  17.873   3.659   8.273  0.1322  0.2475  0.1033
  483loPI   C4A 7722  18.048   3.446   7.896  0.0429  0.0442 -0.1770
  483loPI   C5A 7723  18.410   3.313   7.713  0.3304 -0.0204 -0.2304
  483loPI   C6A 7724  18.466   3.467   7.294  0.1685  0.1940  0.0257
  483loPI   C1B 7725  18.375   4.569   9.153 -0.0887 -0.0915 -0.0159
  483loPI   C2B 7726  18.572   4.470   8.736  0.0890 -0.0091 -0.0087
  483loPI   C3B 7727  18.627   4.281   8.269  0.2623  0.2129 -0.1649
  483loPI   C4B 7728  18.810   4.252   7.865  0.0983 -0.0730 -0.0127
  484loPI    C1 7729   4.848   7.852   9.547  0.2701 -0.2962 -0.0214
  484loPI    C2 7730   4.918   8.015   9.906 -0.0683  0.0892 -0.1230
  484loPI    C3 7731   4.983   8.228   9.573 -0.2288 -0.0904 -0.2716
  484loPI   PO4 7732   4.758   7.662   9.568  0.1681  0.1436 -0.1363
  484loPI   GL1 7733   4.594   7.570   9.146 -0.2867 -0.2068 -0.0673
  484loPI   GL2 7734   4.295   7.633   8.931  0.2247  0.1409 -0.0740
  484loPI   C1A 7735   4.735   7.699   8.736 -0.0979  0.0787 -0.1027
  484loPI   C2A 7736   4.725   7.726   8.324 -0.1399  0.2881  0.0269
  484loPI   C3A 7737   4.589   7.693   7.859  0.2117 -0.1131  0.1178
  484loPI   C4A 7738   4.244   7.560   7.538  0.2679 -0.2788 -0.0642
  484loPI   C5A 7739   4.233   7.342   7.159 -0.1988  0.1546 -0.2230
  484loPI   C6A 7740   4.344   7.363   6.745  0.2418 -0.1594 -0.0800
  484loPI   C1B 7741   4.330   7.428   8.672 -0.0241  0.2174  0.0949
  484loPI   C2B 7742   4.375   7.336   8.242  0.1311  0.0806 -0.2159
  484loPI   C3B 7743   4.293   7.128   7.885 -0.0121  0.1875  0.1022
  484loPI   C4B 7744   4.337   6.963   7.507 -0.1109 -0.0385 -0.0401
  485loPI    C1 7745  13.631  10.412   9.874  0.4271 -0.3249 -0.5223
  485loPI    C2 7746  13.649  10.049  10.043 -0.1214 -0.0682  0.1335
  485loPI    C3 7747  13.894  10.340  10.167  0.0287 -0.0948 -0.0950
  485loPI   PO4 7748  13.527  10.287   9.593 -0.0090 -0.3639 -0.0774
  485loPI   GL1 7749  13.446   9.933   9.239  0.3159  0.0347  0.1463
  485loPI   GL2 7750  13.630   9.687   9.123 -0.0164 -0.1821 -0.1218
  485loPI   C1A 7751  13.164   9.868   8.889  0.3758 -0.0336 -0.0264
  485loPI   C2A 7752  12.838   9.729   8.573  0.1390  0.0660  0.1389
  485loPI   C3A 7753  12.845   9.716   8.173  0.0819 -0.1246 -0.3046
  485loPI   C4A 7754  12.780   9.601   7.809 -0.0295  0.0625 -0.2086
  485loPI   C5A 7755  12.947   9.700   7.337  0.0543 -0.0352  0.0189
  485loPI   C6A 7756  13.028   9.790   6.957 -0.2537 -0.0646  0.4900
  485loPI   C1B 7757  13.522   9.539   8.706  0.0703  0.0812  0.0357
  485loPI   C2B 7758  13.566   9.335   8.288  0.0452 -0.0196  0.1092
  485loPI   C3B 7759  13.745   9.206   7.949 -0.2200  0.1623 -0.2694
  485loPI   C4B 7760  13.897   8.852   7.689 -0.2019 -0.4366  0.1372
  486loPI    C1 7761  13.997  15.329  10.389  0.2544  0.0073  0.0207
  486loPI    C2 7762  14.176  14.993  10.514 -0.0040 -0.0211  0.3268
  486loPI    C3 7763  13.776  15.012  10.496  0.0119  0.2308  0.1951
  486loPI   PO4 7764  14.167  15.500  10.244 -0.0821  0.0274  0.0123
  486loPI   GL1 7765  14.206  15.504   9.742 -0.3740 -0.2756  0.1017
  486loPI   GL2 7766  14.588  15.475   9.716  0.4281  0.3007 -0.1346
  486loPI   C1A 7767  14.098  15.454   9.264 -0.2888 -0.1873 -0.3033
  486loPI   C2A 7768  14.019  15.627   8.844  0.0480 -0.1918 -0.1149
  486loPI   C3A 7769  14.083  15.766   8.475  0.1472  0.1674  0.0957
  486loPI   C4A 7770  13.952  15.747   8.029 -0.1735 -0.0054 -0.0041
  486loPI   C5A 7771  13.938  15.524   7.733 -0.0276  0.1845  0.2472
  486loPI   C6A 7772  14.195  15.183   7.670 -0.4980 -0.0020 -0.0968
  486loPI   C1B 7773  14.869  15.546   9.384 -0.4388  0.2232 -0.2229
  486loPI   C2B 7774  14.972  15.731   9.036 -0.1871  0.1219 -0.2223
  486loPI   C3B 7775  15.058  15.837   8.682 -0.0308 -0.1076 -0.1383
  486loPI   C4B 7776  15.224  15.980   8.348 -0.0673  0.0101  0.1042
  487loPI    C1 7777   3.040  16.411   9.819  0.0370 -0.2904 -0.0449
  487loPI    C2 7778   2.645  16.462   9.785  0.0705  0.0252  0.0038
  487loPI    C3 7779   2.840  16.616  10.098  0.2314 -0.1395 -0.0138
  487loPI   PO4 7780   3.089  16.309   9.596 -0.1228  0.2878  0.2474
  487loPI   GL1 7781   2.909  16.058   9.289 -0.0325 -0.2212  0.2093
  487loPI   GL2 7782   2.852  15.709   9.247  0.2036 -0.4091 -0.0823
  487loPI   C1A 7783   3.167  16.012   8.949  0.0855  0.1269 -0.0212
  487loPI   C2A 7784   3.451  16.086   8.553 -0.2610 -0.1109  0.0788
  487loPI   C3A 7785   3.771  15.928   8.348 -0.1679 -0.0307  0.0882
  487loPI   C4A 7786   4.098  15.731   8.258 -0.0814  0.2239  0.1556
  487loPI   C5A 7787   4.417  15.663   8.052 -0.0792 -0.1253 -0.0453
  487loPI   C6A 7788   4.650  15.530   7.786  0.1534 -0.2859 -0.3737
  487loPI   C1B 7789   2.779  15.528   8.842 -0.2032 -0.1710 -0.0887
  487loPI   C2B 7790   2.909  15.434   8.449 -0.1668 -0.1162  0.2949
  487loPI   C3B 7791   3.011  15.538   7.890  0.0906  0.2472 -0.1584
  487loPI   C4B 7792   3.015  15.287   7.412  0.2652  0.1684 -0.1320
  488loPI    C1 7793   9.914  14.065  10.137 -0.1568 -0.0575  0.2487
  488loPI    C2 7794  10.117  13.722  10.103 -0.0992 -0.0108  0.1136
  488loPI    C3 7795   9.837  13.761  10.386  0.0272 -0.1021  0.2528
  488loPI   PO4 7796   9.789  14.206   9.871 -0.0023 -0.1073  0.0538
  488loPI   GL1 7797   9.716  14.162   9.345 -0.1970  0.0063 -0.0705
  488loPI   GL2 7798  10.039  14.186   9.385  0.0573 -0.0989  0.1371
  488loPI   C1A 7799   9.658  14.400   8.930 -0.1081 -0.1167  0.2684
  488loPI   C2A 7800   9.728  14.556   8.465  0.0954  0.0562  0.1193
  488loPI   C3A 7801   9.676  14.791   8.147  0.1510  0.0309  0.2864
  488loPI   C4A 7802   9.409  14.776   7.810  0.0207  0.0220 -0.2381
  488loPI   C5A 7803   9.329  15.139   7.705 -0.4563 -0.1480  0.2320
  488loPI   C6A 7804   9.556  15.534   7.716 -0.4134 -0.2380 -0.1351
  488loPI   C1B 7805  10.067  14.618   9.111 -0.0646  0.0317 -0.2700
  488loPI   C2B 7806   9.821  14.873   8.986  0.0689 -0.3132 -0.1417
  488loPI   C3B 7807   9.626  15.062   8.646 -0.1503  0.2947 -0.2059
  488loPI   C4B 7808   9.407  15.163   8.263  0.0489  0.1160  0.1276
  489loPI    C1 7809   2.680  10.096  10.212  0.3352  0.0515 -0.3118
  489loPI    C2 7810   2.982  10.308  10.367  0.1285 -0.0034  0.1837
  489loPI    C3 7811   2.605  10.437  10.406  0.0559 -0.1104 -0.1290
  489loPI   PO4 7812   2.741  10.102   9.911 -0.3286  0.1428  0.1322
  489loPI   GL1 7813   2.536  10.194   9.538 -0.1279  0.1016  0.0165
  489loPI   GL2 7814   2.330  10.392   9.497  0.3038 -0.3628 -0.0956
  489loPI   C1A 7815   2.507  10.134   9.075 -0.0666  0.0407 -0.0555
  489loPI   C2A 7816   2.509  10.023   8.646 -0.1495 -0.0844  0.0771
  489loPI   C3A 7817   2.371   9.763   8.261 -0.1080 -0.0789  0.1003
  489loPI   C4A 7818   2.146   9.458   7.949 -0.1746  0.3415  0.0436
  489loPI   C5A 7819   1.835   9.205   7.799 -0.0108  0.1360 -0.3361
  489loPI   C6A 7820   1.717   8.975   7.463  0.0639  0.0090 -0.0537
  489loPI   C1B 7821   2.061  10.295   9.184 -0.2743 -0.3394  0.3257
  489loPI   C2B 7822   2.217  10.541   8.818 -0.0395 -0.0196  0.0057
  489loPI   C3B 7823   2.411  10.481   8.455 -0.0163 -0.1647 -0.2476
  489loPI   C4B 7824   2.658  10.161   8.151 -0.1980 -0.0565  0.1293
  490loPI    C1 7825  10.546   4.377   9.788 -0.0955 -0.0123  0.0655
  490loPI    C2 7826  10.571   4.777   9.792  0.1147 -0.0248  0.1846
  490loPI    C3 7827  10.648   4.568  10.125  0.1027 -0.1700  0.0972
  490loPI   PO4 7828  10.728   4.275   9.530  0.1490  0.0652 -0.1295
  490loPI   GL1 7829  10.761   4.316   9.088  0.1209  0.0675 -0.0163
  490loPI   GL2 7830  10.983   4.082   8.961  0.0435 -0.1376  0.1903
  490loPI   C1A 7831  10.975   4.582   8.877  0.0739 -0.0098  0.0744
  490loPI   C2A 7832  11.213   4.605   8.561 -0.1851 -0.2797 -0.2994
  490loPI   C3A 7833  11.291   4.904   8.328 -0.3706 -0.0307 -0.2081
  490loPI   C4A 7834  11.309   5.038   7.905  0.1701 -0.0305  0.1473
  490loPI   C5A 7835  11.479   4.980   7.578 -0.1453 -0.0180  0.3377
  490loPI   C6A 7836  11.188   5.157   7.265  0.0302 -0.1696  0.2895
  490loPI   C1B 7837  11.238   4.112   8.573 -0.1548 -0.1468 -0.0043
  490loPI   C2B 7838  11.430   4.030   8.312  0.1202  0.1282 -0.0100
  490loPI   C3B 7839  11.699   3.941   8.045 -0.0453 -0.0747 -0.1748
  490loPI   C4B 7840  12.125   3.795   7.875 -0.0076 -0.1028  0.0600
  491loPI    C1 7841  12.021   5.254  10.272 -0.1526 -0.2638  0.1297
  491loPI    C2 7842  12.295   4.963  10.286 -0.0165 -0.1407  0.0587
  491loPI    C3 7843  12.359   5.306  10.480  0.1821  0.1416 -0.4829
  491loPI   PO4 7844  12.037   5.245   9.919  0.2777  0.0845 -0.1347
  491loPI   GL1 7845  11.996   5.013   9.541 -0.0239 -0.2173  0.2973
  491loPI   GL2 7846  11.897   4.814   9.472  0.2457  0.0596  0.2353
  491loPI   C1A 7847  12.147   5.237   9.216  0.2165  0.1033  0.2532
  491loPI   C2A 7848  12.219   5.226   8.900  0.2026 -0.2143 -0.1421
  491loPI   C3A 7849  12.337   5.147   8.470 -0.0441 -0.1409 -0.0347
  491loPI   C4A 7850  12.416   5.135   8.051 -0.1756  0.1744  0.2243
  491loPI   C5A 7851  12.444   5.353   7.576  0.1873  0.0858 -0.2085
  491loPI   C6A 7852  12.592   5.445   7.122  0.0188 -0.3893 -0.0539
  491loPI   C1B 7853  12.067   4.694   9.079 -0.1821  0.1801  0.0333
  491loPI   C2B 7854  12.409   4.781   8.726 -0.0131  0.1039 -0.2376
  491loPI   C3B 7855  12.750   4.877   8.470 -0.3286  0.3266  0.0767
  491loPI   C4B 7856  13.169   4.848   8.390  0.1500  0.2067  0.0228
  492loPI    C1 7857  12.835  16.658  10.356 -0.1872 -0.0237  0.2788
  492loPI    C2 7858  13.013  16.299  10.367 -0.0247  0.0474  0.0519
  492loPI    C3 7859  13.008  16.530  10.694  0.2452  0.0167  0.0799
  492loPI   PO4 7860  12.901  16.746   9.974  0.1084 -0.0495 -0.0684
  492loPI   GL1 7861  12.858  17.048   9.679  0.1734 -0.0529 -0.1272
  492loPI   GL2 7862  12.965  17.322   9.471  0.1314  0.4011  0.0838
  492loPI   C1A 7863  12.537  17.075   9.355  0.0044 -0.2691 -0.3307
  492loPI   C2A 7864  12.619  16.897   8.914  0.2423 -0.2107 -0.0386
  492loPI   C3A 7865  12.480  16.846   8.411  0.1093  0.1442 -0.3911
  492loPI   C4A 7866  12.367  16.816   7.933 -0.0953 -0.0660  0.0171
  492loPI   C5A 7867  12.340  16.609   7.681 -0.1146 -0.3211 -0.1968
  492loPI   C6A 7868  12.538  16.425   7.277  0.2713 -0.0195  0.3184
  492loPI   C1B 7869  12.939  17.283   8.960  0.0274  0.2497 -0.1826
  492loPI   C2B 7870  13.016  17.070   8.504 -0.2279  0.1397  0.1690
  492loPI   C3B 7871  12.962  16.794   8.246 -0.3843  0.0282  0.0133
  492loPI   C4B 7872  12.884  16.649   7.811  0.3185 -0.0619  0.0678
  493loPI    C1 7873   9.494   2.182   8.842  0.2484  0.1514  0.0384
  493loPI    C2 7874   9.290   2.169   9.186 -0.0077 -0.0568 -0.1178
  493loPI    C3 7875   9.685   2.103   9.185 -0.0040 -0.0489  0.1360
  493loPI   PO4 7876   9.404   2.068   8.638 -0.0063 -0.1127  0.3166
  493loPI   GL1 7877   9.265   2.150   8.263  0.0616  0.0008  0.0613
  493loPI   GL2 7878   9.651   2.217   8.218  0.0744  0.0881 -0.0701
  493loPI   C1A 7879   8.887   2.066   7.988  0.0958 -0.0913  0.2542
  493loPI   C2A 7880   8.652   2.096   7.609 -0.1204  0.1434  0.0668
  493loPI   C3A 7881   8.571   1.685   7.326  0.0012  0.1809 -0.0668
  493loPI   C4A 7882   8.608   1.286   7.202 -0.0147 -0.1337 -0.1261
  493loPI   C5A 7883   8.726   0.885   6.961 -0.0749 -0.1251  0.1225
  493loPI   C6A 7884   8.619   0.575   6.660 -0.1646 -0.2471 -0.1934
  493loPI   C1B 7885   9.754   2.246   7.769 -0.0809 -0.2369 -0.0606
  493loPI   C2B 7886   9.649   2.437   7.505 -0.0835  0.3308 -0.1372
  493loPI   C3B 7887   9.584   2.569   7.071  0.0313 -0.1752  0.2396
  493loPI   C4B 7888   9.592   2.148   6.935  0.1711 -0.1112  0.1369
  494loPI    C1 7889  18.064  10.390  10.403 -0.0952 -0.0681 -0.1303
  494loPI    C2 7890  17.683  10.368  10.283 -0.1181  0.1048 -0.0915
  494loPI    C3 7891  17.773  10.332  10.671 -0.0944  0.0612 -0.1010
  494loPI   PO4 7892  18.178  10.587  10.212 -0.0422 -0.0263 -0.1501
  494loPI   GL1 7893  18.186  10.559   9.834 -0.0458 -0.2578 -0.2477
  494loPI   GL2 7894  18.297  10.390   9.663 -0.1940  0.0849  0.3319
  494loPI   C1A 7895  17.774  10.450   9.540  0.2985 -0.2293 -0.0526
  494loPI   C2A 7896  17.756  10.659   9.061 -0.2691  0.2052  0.1161
  494loPI   C3A 7897  17.739  10.770   8.677  0.0075  0.1859 -0.3987
  494loPI   C4A 7898  17.790  11.008   8.305  0.2551  0.3781 -0.5256
  494loPI   C5A 7899  17.904  11.254   7.985 -0.0622 -0.1641  0.0518
  494loPI   C6A 7900  17.839  11.579   7.578 -0.3578  0.1143 -0.0458
  494loPI   C1B 7901  18.247  10.481   9.273  0.0270 -0.0428 -0.1545
  494loPI   C2B 7902  18.287  10.520   8.833  0.0340  0.0138  0.1277
  494loPI   C3B 7903  18.395  10.630   8.486  0.2067 -0.1522  0.0553
  494loPI   C4B 7904  18.402  10.376   8.143 -0.1283 -0.1285  0.0488
  495loPI    C1 7905   0.613   6.506  10.104  0.1022  0.2956 -0.0720
  495loPI    C2 7906   0.640   6.876  10.253 -0.0162  0.1842  0.2350
  495loPI    C3 7907   0.404   6.606  10.431 -0.0450  0.0025 -0.0726
  495loPI   PO4 7908   0.577   6.584   9.779  0.4271  0.5315  0.1946
  495loPI   GL1 7909   0.598   6.601   9.363 -0.1553 -0.0438 -0.2198
  495loPI   GL2 7910   0.774   6.852   9.233 -0.0882 -0.4302  0.3280
  495loPI   C1A 7911   0.520   6.408   8.908  0.0288 -0.2018  0.2966
  495loPI   C2A 7912   0.320   6.067   8.737  0.1954 -0.1710 -0.0518
  495loPI   C3A 7913   0.283   5.840   8.304 -0.0476 -0.1841 -0.4202
  495loPI   C4A 7914   0.483   5.863   7.890 -0.1388  0.1138 -0.0892
  495loPI   C5A 7915   0.700   5.920   7.516 -0.3344 -0.1646  0.0298
  495loPI   C6A 7916   0.956   5.872   7.175 -0.0285 -0.1652  0.2088
  495loPI   C1B 7917   0.792   7.210   8.880  0.0209  0.2583 -0.3440
  495loPI   C2B 7918   0.811   7.103   8.381 -0.1183  0.2312  0.3246
  495loPI   C3B 7919   0.627   7.079   7.934  0.1194  0.0439  0.4447
  495loPI   C4B 7920   0.545   7.024   7.563 -0.2406 -0.2381  0.0736
  496loPI    C1 7921  13.340  13.603  10.327 -0.1188  0.0314 -0.1387
  496loPI    C2 7922  13.262  13.988  10.404  0.1089  0.0641 -0.0638
  496loPI    C3 7923  13.272  13.722  10.703 -0.1172 -0.0141 -0.1239
  496loPI   PO4 7924  13.194  13.592  10.089 -0.1232  0.2190 -0.2567
  496loPI   GL1 7925  13.343  13.587   9.667  0.0825 -0.0137  0.0031
  496loPI   GL2 7926  13.652  13.465   9.522 -0.2210  0.1217 -0.0413
  496loPI   C1A 7927  13.345  13.365   9.188  0.2640  0.2019 -0.0233
  496loPI   C2A 7928  13.463  13.202   8.910 -0.2443 -0.0256 -0.0041
  496loPI   C3A 7929  13.407  13.095   8.619 -0.3079  0.3406 -0.0411
  496loPI   C4A 7930  13.227  13.170   8.104  0.0869  0.2990  0.1566
  496loPI   C5A 7931  13.150  13.337   7.770 -0.1935  0.3237 -0.1255
  496loPI   C6A 7932  12.972  13.586   7.564  0.0255 -0.0399 -0.1421
  496loPI   C1B 7933  13.537  13.830   9.265  0.1772 -0.2084  0.1262
  496loPI   C2B 7934  13.407  13.892   8.857 -0.1185 -0.1122 -0.0330
  496loPI   C3B 7935  13.089  13.963   8.617  0.0206  0.0691 -0.0716
  496loPI   C4B 7936  13.197  14.123   8.164 -0.1465  0.1774  0.0389
  497loPI    C1 7937  18.517   2.724   9.965 -0.0356 -0.1191 -0.0577
  497loPI    C2 7938  18.453   3.086  10.124 -0.0405 -0.0401 -0.2373
  497loPI    C3 7939  18.787   2.885  10.212 -0.1474 -0.0964  0.0507
  497loPI   PO4 7940  18.352   2.781   9.770 -0.2204 -0.1430 -0.1591
  497loPI   GL1 7941  18.365   2.669   9.393  0.0766  0.2825 -0.2363
  497loPI   GL2 7942  18.051   2.571   9.333  0.4359 -0.0648 -0.1035
  497loPI   C1A 7943  18.822   2.660   9.332 -0.3848  0.2114 -0.1199
  497loPI   C2A 7944  18.957   2.675   8.859  0.1510  0.0653  0.0401
  497loPI   C3A 7945  18.842   3.068   8.465 -0.1981 -0.2501 -0.1632
  497loPI   C4A 7946  18.716   3.011   8.019 -0.2615  0.2101 -0.1824
  497loPI   C5A 7947  18.876   2.782   7.725 -0.1035 -0.1113  0.1240
  497loPI   C6A 7948  18.936   2.779   7.360 -0.0433 -0.1196  0.0021
  497loPI   C1B 7949  17.978   2.422   8.896 -0.2360 -0.2721  0.0442
  497loPI   C2B 7950  18.174   2.246   8.600 -0.2579 -0.0699 -0.1286
  497loPI   C3B 7951  18.203   2.135   8.170  0.1671 -0.1796  0.0995
  497loPI   C4B 7952  18.008   2.005   7.784 -0.1989 -0.0321 -0.0687
  498loPI    C1 7953   9.701   5.192   9.183 -0.0089 -0.0612 -0.0410
  498loPI    C2 7954   9.364   5.270   9.384 -0.0098  0.1842 -0.1342
  498loPI    C3 7955   9.656   5.059   9.558 -0.1238  0.1545  0.0237
  498loPI   PO4 7956   9.651   5.106   9.032 -0.0360 -0.1330 -0.4926
  498loPI   GL1 7957   9.792   4.971   8.676 -0.1432 -0.1081 -0.2461
  498loPI   GL2 7958   9.478   5.085   8.480 -0.1289  0.1179 -0.3926
  498loPI   C1A 7959  10.174   4.864   8.475  0.0560 -0.1191 -0.0088
  498loPI   C2A 7960  10.527   4.923   8.172  0.3581  0.2216  0.0476
  498loPI   C3A 7961  10.797   4.985   7.687 -0.0602  0.1287 -0.4253
  498loPI   C4A 7962  11.085   4.724   7.500  0.0989 -0.0249 -0.2854
  498loPI   C5A 7963  11.193   4.332   7.312 -0.0311  0.1223  0.0824
  498loPI   C6A 7964  11.169   3.883   7.308 -0.2006  0.1855  0.2801
  498loPI   C1B 7965   9.505   5.211   8.119 -0.4053  0.4047 -0.1044
  498loPI   C2B 7966   9.644   5.576   7.892  0.1597  0.0281 -0.0730
  498loPI   C3B 7967   9.514   5.649   7.504 -0.1298 -0.0271 -0.0513
  498loPI   C4B 7968   9.110   5.529   7.444 -0.2572 -0.0243  0.0648
  499loPI    C1 7969   1.139   8.995  10.059  0.0831  0.1774  0.3631
  499loPI    C2 7970   1.522   8.893  10.009  0.0012  0.1289 -0.2461
  499loPI    C3 7971   1.387   8.993  10.372  0.5395 -0.0417  0.0117
  499loPI   PO4 7972   1.101   9.106   9.822  0.1069  0.3164 -0.2195
  499loPI   GL1 7973   1.083   9.397   9.478  0.2237 -0.4003 -0.0935
  499loPI   GL2 7974   0.901   9.621   9.600 -0.2725  0.3589 -0.0594
  499loPI   C1A 7975   1.046   9.182   9.102  0.1594 -0.1126  0.0666
  499loPI   C2A 7976   1.129   9.217   8.730 -0.1962 -0.1085  0.2419
  499loPI   C3A 7977   1.241   9.306   8.345 -0.3017  0.1505  0.2204
  499loPI   C4A 7978   1.482   9.521   8.131  0.0568 -0.0947 -0.2196
  499loPI   C5A 7979   1.267   9.766   7.907  0.0784 -0.0435 -0.0813
  499loPI   C6A 7980   1.346  10.115   7.626  0.1427  0.1785  0.3329
  499loPI   C1B 7981   0.945   9.801   9.192 -0.2424 -0.1647 -0.0293
  499loPI   C2B 7982   0.766   9.984   8.848 -0.1642 -0.0064 -0.0123
  499loPI   C3B 7983   0.660  10.275   8.686 -0.2429  0.3100  0.3077
  499loPI   C4B 7984   0.335  10.563   8.610 -0.0447 -0.0759 -0.1845
  500loPI    C1 7985   1.913  17.254  10.068 -0.0987 -0.1648  0.0233
  500loPI    C2 7986   2.202  17.381  10.314 -0.0364 -0.0271 -0.1192
  500loPI    C3 7987   1.819  17.401  10.428 -0.0053 -0.0030 -0.0175
  500loPI   PO4 7988   2.005  17.259   9.842  0.3084  0.1205 -0.0447
  500loPI   GL1 7989   1.966  17.405   9.499  0.0650 -0.0532 -0.0225
  500loPI   GL2 7990   2.112  17.452   9.305 -0.1608  0.1293 -0.0964
  500loPI   C1A 7991   1.773  17.070   9.114  0.1187  0.2575  0.0262
  500loPI   C2A 7992   1.896  17.006   8.689 -0.4714  0.1063 -0.1116
  500loPI   C3A 7993   1.844  16.878   8.209  0.3851  0.3645 -0.1369
  500loPI   C4A 7994   2.016  17.032   7.833 -0.1341  0.2296  0.2322
  500loPI   C5A 7995   2.377  16.948   7.523  0.0945 -0.0460 -0.2164
  500loPI   C6A 7996   2.739  16.872   7.191  0.1577 -0.1173 -0.1175
  500loPI   C1B 7997   2.034  17.646   8.894  0.0633 -0.2831 -0.0900
  500loPI   C2B 7998   1.942  17.780   8.550 -0.1284  0.1263  0.2316
  500loPI   C3B 7999   1.578  17.835   8.376  0.1629 -0.3297  0.0078
  500loPI   C4B 8000   1.360  17.664   7.943  0.0275  0.2509  0.0450
  501loPI    C1 8001  16.509  10.948   9.804 -0.0694 -0.0806  0.2286
  501loPI    C2 8002  16.668  10.597   9.910  0.1463 -0.0731 -0.0589
  501loPI    C3 8003  16.782  10.932  10.097  0.1875 -0.1151 -0.0082
  501loPI   PO4 8004  16.523  10.934   9.461  0.1262 -0.0623 -0.2867
  501loPI   GL1 8005  16.849  10.710   9.209  0.1985 -0.1725 -0.1341
  501loPI   GL2 8006  17.183  10.587   9.187 -0.0628  0.0007 -0.0009
  501loPI   C1A 8007  16.859  10.535   8.780  0.0837 -0.1416 -0.0418
  501loPI   C2A 8008  16.912  10.473   8.376  0.2151  0.0392  0.0667
  501loPI   C3A 8009  17.104  10.584   8.052 -0.0259 -0.1393 -0.2375
  501loPI   C4A 8010  17.177  10.656   7.671  0.2473 -0.1457 -0.0692
  501loPI   C5A 8011  17.394  10.818   7.236  0.3780  0.0841  0.2410
  501loPI   C6A 8012  17.431  10.708   6.793 -0.3951 -0.0858 -0.2656
  501loPI   C1B 8013  17.225  10.794   8.885 -0.1037  0.1452  0.2239
  501loPI   C2B 8014  17.282  10.963   8.504 -0.1238  0.1062  0.0369
  501loPI   C3B 8015  17.334  11.028   7.955  0.2233  0.1786 -0.2470
  501loPI   C4B 8016  17.560  11.112   7.708 -0.1346  0.3245 -0.1478
  502loPI    C1 8017   7.975   4.658   9.113 -0.1561 -0.0647  0.0107
  502loPI    C2 8018   8.233   4.363   9.193  0.1387  0.1990  0.0531
  502loPI    C3 8019   7.991   4.501   9.481  0.2142  0.2035  0.1147
  502loPI   PO4 8020   7.837   4.554   8.909  0.0665 -0.1217  0.0432
  502loPI   GL1 8021   7.884   4.624   8.462 -0.1700  0.2055  0.2877
  502loPI   GL2 8022   7.961   4.951   8.399  0.0466  0.1521  0.0044
  502loPI   C1A 8023   7.680   4.662   8.063  0.1459  0.1820  0.3247
  502loPI   C2A 8024   7.645   4.624   7.592 -0.2835  0.5107 -0.1327
  502loPI   C3A 8025   7.352   4.661   7.210 -0.0310 -0.0925  0.0693
  502loPI   C4A 8026   7.171   4.592   6.749 -0.0180 -0.0443  0.1122
  502loPI   C5A 8027   6.932   4.553   6.529 -0.1640  0.0754 -0.0562
  502loPI   C6A 8028   6.643   4.316   6.267 -0.0589  0.1648 -0.2168
  502loPI   C1B 8029   8.120   5.091   8.012 -0.0594 -0.0046  0.0330
  502loPI   C2B 8030   8.247   5.049   7.644 -0.1005  0.3132 -0.0512
  502loPI   C3B 8031   8.352   5.110   7.310  0.0878 -0.2238 -0.2019
  502loPI   C4B 8032   8.523   4.959   7.019 -0.1830  0.1075 -0.1488
  503loPI    C1 8033   2.515   8.972   9.629  0.1974 -0.0487  0.1284
  503loPI    C2 8034   2.562   9.209   9.948  0.1311 -0.0107  0.1102
  503loPI    C3 8035   2.760   8.862   9.925 -0.0626 -0.1376  0.3135
  503loPI   PO4 8036   2.525   9.127   9.447  0.0009 -0.0957 -0.2723
  503loPI   GL1 8037   2.233   9.205   9.229  0.0995 -0.0993  0.1632
  503loPI   GL2 8038   2.389   9.024   8.937  0.1238 -0.3615  0.3176
  503loPI   C1A 8039   1.893   9.385   9.013  0.0142  0.0652  0.1567
  503loPI   C2A 8040   1.581   9.499   8.746  0.0095 -0.1561  0.1851
  503loPI   C3A 8041   1.208   9.697   8.687 -0.1657  0.0956 -0.0237
  503loPI   C4A 8042   1.045  10.011   8.440  0.1503  0.0041  0.1528
  503loPI   C5A 8043   0.921  10.163   8.082 -0.0334  0.1237  0.1084
  503loPI   C6A 8044   0.883  10.450   7.613 -0.0995 -0.3193 -0.0149
  503loPI   C1B 8045   2.208   9.112   8.563 -0.1350  0.1760  0.0103
  503loPI   C2B 8046   2.176   8.924   8.201  0.0995 -0.0931  0.3080
  503loPI   C3B 8047   2.313   8.953   7.873  0.1169  0.0455 -0.1880
  503loPI   C4B 8048   2.238   8.951   7.421 -0.0793  0.1016 -0.3476
  504loPI    C1 8049  13.860  14.699  10.109  0.0479 -0.0395  0.0719
  504loPI    C2 8050  13.982  14.318  10.101 -0.1520 -0.1064  0.1318
  504loPI    C3 8051  13.825  14.470  10.435  0.1142  0.0905  0.1711
  504loPI   PO4 8052  13.834  14.747   9.859 -0.1615 -0.1455  0.0689
  504loPI   GL1 8053  13.943  14.942   9.483 -0.0722  0.4073 -0.0103
  504loPI   GL2 8054  13.677  14.922   9.188 -0.1184  0.2359  0.0374
  504loPI   C1A 8055  14.280  15.054   9.404  0.2250 -0.3754 -0.2890
  504loPI   C2A 8056  14.581  15.266   9.087  0.2914 -0.2090 -0.1646
  504loPI   C3A 8057  14.841  15.397   8.678 -0.3675 -0.1713 -0.1245
  504loPI   C4A 8058  14.999  15.476   8.281  0.0631  0.0578  0.0096
  504loPI   C5A 8059  14.919  15.784   7.899 -0.0948 -0.1144  0.1285
  504loPI   C6A 8060  14.923  16.276   7.856 -0.1681  0.0388 -0.0758
  504loPI   C1B 8061  14.070  15.109   8.966 -0.2079  0.2092  0.0940
  504loPI   C2B 8062  14.363  15.280   8.640 -0.0910 -0.1890  0.2052
  504loPI   C3B 8063  14.656  15.037   8.325 -0.2372  0.5075  0.0234
  504loPI   C4B 8064  14.555  14.868   7.906  0.1689 -0.1626 -0.3336
  505loPI    C1 8065  15.945  11.200   9.816  0.0829 -0.1715  0.2032
  505loPI    C2 8066  15.850  11.150  10.201 -0.1431 -0.1092  0.1568
  505loPI    C3 8067  15.704  11.462   9.999  0.1911  0.0079  0.0913
  505loPI   PO4 8068  15.883  11.042   9.627 -0.2072  0.4640 -0.0626
  505loPI   GL1 8069  15.891  10.975   9.216  0.0567 -0.1855 -0.4056
  505loPI   GL2 8070  16.140  10.798   9.234 -0.0158 -0.1973 -0.1688
  505loPI   C1A 8071  15.841  11.177   8.875  0.1043 -0.2403  0.0236
  505loPI   C2A 8072  15.590  11.266   8.560  0.2159  0.0019  0.1201
  505loPI   C3A 8073  15.683  11.454   8.217  0.0277 -0.1193 -0.0103
  505loPI   C4A 8074  15.748  11.451   7.816 -0.0021 -0.1099 -0.0834
  505loPI   C5A 8075  15.833  11.289   7.475 -0.0618 -0.0416 -0.0422
  505loPI   C6A 8076  15.507  10.936   7.337 -0.0553  0.1382 -0.1016
  505loPI   C1B 8077  16.215  10.861   8.825 -0.0454 -0.2807  0.0286
  505loPI   C2B 8078  16.129  11.147   8.502 -0.3834 -0.0433  0.2210
  505loPI   C3B 8079  16.017  11.097   8.141 -0.0123 -0.3062 -0.0085
  505loPI   C4B 8080  15.705  10.931   7.995  0.0317 -0.3161 -0.3008
  506loPI    C1 8081  12.176  17.191  10.697 -0.0721 -0.2911  0.0669
  506loPI    C2 8082  12.394  17.220  11.031  0.1360 -0.1055 -0.0817
  506loPI    C3 8083  12.117  17.497  10.948  0.2296 -0.0362 -0.1645
  506loPI   PO4 8084  12.318  17.265  10.423  0.0010  0.1132 -0.4326
  506loPI   GL1 8085  12.250  17.369  10.013 -0.1259  0.0450 -0.0205
  506loPI   GL2 8086  11.950  17.180   9.907 -0.1321 -0.1851  0.0492
  506loPI   C1A 8087  12.444  17.423   9.703  0.4584  0.1116 -0.0491
  506loPI   C2A 8088  12.547  17.551   9.266  0.1110 -0.0809 -0.1523
  506loPI   C3A 8089  12.532  17.502   8.857  0.3225 -0.0237  0.1826
  506loPI   C4A 8090  12.599  17.415   8.507 -0.2011 -0.2510 -0.2217
  506loPI   C5A 8091  12.730  17.191   8.073  0.0772 -0.4911 -0.0488
  506loPI   C6A 8092  12.602  17.250   7.636 -0.1052  0.0637  0.2253
  506loPI   C1B 8093  12.013  17.304   9.469  0.3220 -0.2433 -0.0755
  506loPI   C2B 8094  12.131  17.109   9.071 -0.2373  0.0719  0.0933
  506loPI   C3B 8095  12.159  17.202   8.720  0.1658  0.0894  0.0934
  506loPI   C4B 8096  12.208  17.189   8.200  0.1862  0.3465  0.1836
  507loPI    C1 8097  17.621   9.160  10.079  0.0611 -0.0450 -0.0020
  507loPI    C2 8098  17.415   9.112  10.418  0.0196  0.0450 -0.0143
  507loPI    C3 8099  17.745   8.896  10.353 -0.1699 -0.2314 -0.0744
  507loPI   PO4 8100  17.646   9.417  10.005  0.0740 -0.0072  0.0682
  507loPI   GL1 8101  17.601   9.376   9.602 -0.0727  0.2945  0.3132
  507loPI   GL2 8102  17.802   9.673   9.593  0.0580 -0.2169 -0.4460
  507loPI   C1A 8103  17.402   9.483   9.114 -0.3362 -0.3876 -0.0773
  507loPI   C2A 8104  17.426   9.172   8.805  0.1535 -0.0125 -0.3355
  507loPI   C3A 8105  17.355   9.095   8.435 -0.4024  0.1295  0.1749
  507loPI   C4A 8106  17.325   9.229   8.057 -0.0328  0.1068  0.0054
  507loPI   C5A 8107  17.385   9.381   7.694 -0.1557 -0.1072  0.1900
  507loPI   C6A 8108  17.203   9.428   7.290  0.1125  0.0827  0.4479
  507loPI   C1B 8109  17.878   9.668   9.091 -0.1620 -0.0424  0.0761
  507loPI   C2B 8110  17.747   9.795   8.712 -0.1360  0.1663 -0.0335
  507loPI   C3B 8111  17.574   9.997   8.345 -0.0755 -0.1439  0.0020
  507loPI   C4B 8112  17.387   9.798   7.987  0.0745  0.0351  0.1637
  508loPI    C1 8113  14.844  17.225  10.009 -0.0463  0.1552  0.0526
  508loPI    C2 8114  15.057  17.021  10.280 -0.1190 -0.0836 -0.0679
  508loPI    C3 8115  14.771  17.274  10.400  0.0009 -0.0185  0.0840
  508loPI   PO4 8116  14.861  17.062   9.737  0.2184  0.1836 -0.0572
  508loPI   GL1 8117  15.206  16.988   9.423  0.0427 -0.2000 -0.5298
  508loPI   GL2 8118  15.357  16.752   9.149 -0.0215 -0.0175 -0.0191
  508loPI   C1A 8119  14.990  17.404   9.108 -0.1985  0.2464  0.3323
  508loPI   C2A 8120  15.158  17.539   8.799 -0.0468  0.1050  0.3435
  508loPI   C3A 8121  15.124  17.599   8.350 -0.0309  0.1387  0.0691
  508loPI   C4A 8122  15.033  17.456   7.956 -0.0299 -0.0055 -0.1202
  508loPI   C5A 8123  14.750  17.227   7.644 -0.1730 -0.2957 -0.0073
  508loPI   C6A 8124  14.759  17.119   7.267  0.2498 -0.1659 -0.2521
  508loPI   C1B 8125  15.382  16.920   8.775 -0.0711 -0.0870 -0.1087
  508loPI   C2B 8126  15.475  17.190   8.467  0.2451 -0.2619 -0.0397
  508loPI   C3B 8127  15.639  17.572   8.292 -0.1039 -0.0961 -0.1980
  508loPI   C4B 8128  15.465  17.771   8.036 -0.0923  0.1711  0.1956
  509loPI    C1 8129  15.618   2.328   9.617 -0.2933 -0.0206  0.2253
  509loPI    C2 8130  15.560   2.100   9.940  0.0923 -0.1357  0.2188
  509loPI    C3 8131  15.862   2.362   9.932 -0.1502  0.1460  0.0985
  509loPI   PO4 8132  15.351   2.414   9.550 -0.2689  0.2639  0.0197
  509loPI   GL1 8133  15.075   2.260   9.246  0.0869 -0.0127  0.0599
  509loPI   GL2 8134  15.278   2.324   9.094  0.0461  0.3409  0.0982
  509loPI   C1A 8135  15.030   1.879   8.982 -0.2941  0.1691  0.2035
  509loPI   C2A 8136  15.095   1.673   8.651  0.2471  0.0735  0.1062
  509loPI   C3A 8137  15.209   1.479   8.267  0.1028  0.2583 -0.5135
  509loPI   C4A 8138  14.973   1.095   8.104  0.0145  0.2902  0.0652
  509loPI   C5A 8139  15.029   0.619   8.008 -0.1261  0.0254 -0.1443
  509loPI   C6A 8140  15.107   0.211   8.169  0.1868  0.2359  0.0277
  509loPI   C1B 8141  15.354   2.269   8.650 -0.0402  0.1755  0.3643
  509loPI   C2B 8142  15.586   2.263   8.268 -0.0184  0.4957 -0.1267
  509loPI   C3B 8143  15.631   2.127   7.882  0.2362 -0.0834  0.2752
  509loPI   C4B 8144  15.405   1.792   7.426 -0.0788 -0.0980  0.1414
  510loPI    C1 8145  16.903  14.822  10.517 -0.0747 -0.0726 -0.0637
  510loPI    C2 8146  16.655  14.508  10.518 -0.0011 -0.1314  0.1487
  510loPI    C3 8147  16.840  14.618  10.855 -0.1965  0.2762  0.1282
  510loPI   PO4 8148  17.121  14.718  10.218  0.0218 -0.1378  0.1123
  510loPI   GL1 8149  17.196  14.684   9.805 -0.2273 -0.2169  0.1565
  510loPI   GL2 8150  16.883  14.967   9.693 -0.2515 -0.1233  0.0226
  510loPI   C1A 8151  17.274  14.706   9.394  0.0151  0.1303 -0.0833
  510loPI   C2A 8152  17.369  14.791   9.032 -0.1613 -0.0521 -0.2309
  510loPI   C3A 8153  17.376  14.729   8.611  0.1706 -0.2768 -0.1289
  510loPI   C4A 8154  17.420  14.619   8.180 -0.0178  0.0100  0.0719
  510loPI   C5A 8155  17.487  14.873   7.748 -0.1689 -0.0732  0.2830
  510loPI   C6A 8156  17.390  15.118   7.338  0.0774 -0.1323 -0.0285
  510loPI   C1B 8157  16.832  14.994   9.119 -0.0331 -0.1417 -0.1431
  510loPI   C2B 8158  16.939  14.979   8.612  0.1437  0.2981  0.1429
  510loPI   C3B 8159  16.917  15.051   8.141  0.2058 -0.2556 -0.1091
  510loPI   C4B 8160  16.863  15.021   7.755  0.2004  0.1669  0.0936
  511loPI    C1 8161  10.931   0.433   9.870  0.0001  0.1166 -0.0423
  511loPI    C2 8162  10.764   0.690  10.128  0.0567  0.0620  0.0490
  511loPI    C3 8163  11.029   0.419  10.258  0.1004  0.0472 -0.0698
  511loPI   PO4 8164  11.072   0.512   9.629  0.1556  0.0951  0.2794
  511loPI   GL1 8165  11.102   0.232   9.213  0.1795 -0.0755 -0.0266
  511loPI   GL2 8166  10.852   0.236   8.992 -0.2542  0.3026 -0.1794
  511loPI   C1A 8167  11.388   0.263   8.859 -0.2744 -0.2020 -0.1187
  511loPI   C2A 8168  11.301   0.105   8.547  0.2860  0.1836 -0.0480
  511loPI   C3A 8169  11.174   0.125   8.116 -0.2125 -0.2219  0.0499
  511loPI   C4A 8170  11.336   0.004   7.750 -0.1034  0.1703  0.0941
  511loPI   C5A 8171  11.471  -0.233   7.411  0.1045 -0.0205  0.0286
  511loPI   C6A 8172  11.587  -0.373   7.018  0.3441 -0.4122 -0.2106
  511loPI   C1B 8173  10.843   0.280   8.541  0.2174  0.0688 -0.4869
  511loPI   C2B 8174  10.656   0.405   8.108 -0.4647 -0.0456 -0.1859
  511loPI   C3B 8175  10.636   0.299   7.706  0.2371  0.2375 -0.2437
  511loPI   C4B 8176  10.715   0.320   7.257 -0.1239 -0.3335  0.2332
  512loPI    C1 8177  15.245  16.520  10.088  0.0637  0.0236 -0.0087
  512loPI    C2 8178  15.582  16.697  10.210  0.0155  0.0174  0.1351
  512loPI    C3 8179  15.576  16.303  10.143  0.0615  0.0325  0.0398
  512loPI   PO4 8180  15.081  16.632   9.981 -0.0814 -0.0149 -0.0544
  512loPI   GL1 8181  14.924  16.534   9.679  0.2194  0.0515  0.0064
  512loPI   GL2 8182  15.151  16.318   9.495 -0.0942 -0.3018  0.1467
  512loPI   C1A 8183  14.874  16.655   9.134  0.1279  0.1324  0.3447
  512loPI   C2A 8184  15.052  16.553   8.759  0.2790 -0.2979 -0.0966
  512loPI   C3A 8185  15.196  16.620   8.309 -0.0062 -0.0741 -0.0136
  512loPI   C4A 8186  15.335  16.581   7.923  0.0849  0.0771 -0.0362
  512loPI   C5A 8187  15.631  16.887   7.617 -0.1593  0.0091 -0.2848
  512loPI   C6A 8188  15.569  16.964   7.133  0.0575 -0.3134 -0.1705
  512loPI   C1B 8189  15.206  16.148   9.083  0.1065  0.4051  0.2685
  512loPI   C2B 8190  15.528  15.866   8.876 -0.0361 -0.0373 -0.1087
  512loPI   C3B 8191  15.715  15.874   8.472  0.0105 -0.1475  0.1382
  512loPI   C4B 8192  16.012  15.989   8.160 -0.3069  0.1692 -0.0203
  513loPI    C1 8193  16.052   1.791   9.975 -0.2069  0.1070 -0.0394
  513loPI    C2 8194  15.736   1.623  10.153 -0.1408 -0.0174 -0.0389
  513loPI    C3 8195  15.880   1.971  10.288 -0.3394  0.0904 -0.1020
  513loPI   PO4 8196  16.034   1.855   9.700  0.2325 -0.1016 -0.0911
  513loPI   GL1 8197  16.133   2.207   9.407  0.0794 -0.1345  0.0528
  513loPI   GL2 8198  16.088   2.504   9.416  0.0186  0.4859 -0.5808
  513loPI   C1A 8199  16.294   2.169   8.964 -0.1378 -0.1188  0.2460
  513loPI   C2A 8200  16.442   2.382   8.634 -0.1023 -0.0319  0.5193
  513loPI   C3A 8201  16.489   2.341   8.178 -0.2539  0.1481  0.0359
  513loPI   C4A 8202  16.660   2.249   7.837 -0.0155 -0.0525  0.2434
  513loPI   C5A 8203  16.535   2.360   7.391 -0.0316 -0.2409 -0.1177
  513loPI   C6A 8204  16.478   2.643   6.994  0.4117  0.0068 -0.2480
  513loPI   C1B 8205  15.772   2.285   9.061  0.0288 -0.0194 -0.1032
  513loPI   C2B 8206  15.812   2.069   8.764 -0.1642  0.2145 -0.0257
  513loPI   C3B 8207  16.116   1.982   8.482 -0.0597  0.0202 -0.1206
  513loPI   C4B 8208  16.514   1.843   8.179 -0.0305  0.0695 -0.0566
  514loPI    C1 8209   9.340   9.028   9.000  0.1700 -0.1837 -0.0359
  514loPI    C2 8210   9.275   8.916   9.379  0.0575 -0.2658 -0.0788
  514loPI    C3 8211   9.355   9.299   9.294 -0.3849 -0.1550 -0.0226
  514loPI   PO4 8212   9.188   8.908   8.846  0.0700  0.0545  0.2394
  514loPI   GL1 8213   9.159   8.772   8.455 -0.0511 -0.1369  0.2743
  514loPI   GL2 8214   9.008   8.469   8.408  0.2595 -0.1563 -0.0371
  514loPI   C1A 8215   9.082   8.919   8.064  0.0922  0.1953 -0.0234
  514loPI   C2A 8216   9.053   8.989   7.676 -0.0211  0.0175  0.1946
  514loPI   C3A 8217   8.903   9.209   7.314  0.1613 -0.1122  0.0565
  514loPI   C4A 8218   9.187   9.499   7.108  0.0138  0.3147  0.0507
  514loPI   C5A 8219   9.239   9.839   6.967 -0.0951 -0.1340 -0.1963
  514loPI   C6A 8220   9.465   9.833   6.541  0.1672  0.0252 -0.1876
  514loPI   C1B 8221   8.992   8.349   7.967 -0.1679 -0.2375 -0.2815
  514loPI   C2B 8222   9.025   8.480   7.513  0.1765  0.1775  0.3267
  514loPI   C3B 8223   9.018   8.753   7.072  0.1717  0.0930 -0.0853
  514loPI   C4B 8224   8.908   9.074   6.771  0.0232 -0.0622  0.0383
  515loPI    C1 8225   6.809   3.386   9.520 -0.1639  0.0763 -0.1644
  515loPI    C2 8226   6.640   3.745   9.563  0.1350  0.2066 -0.0517
  515loPI    C3 8227   7.038   3.712   9.551  0.1116 -0.1310  0.0261
  515loPI   PO4 8228   6.635   3.239   9.249 -0.0599  0.0448  0.1275
  515loPI   GL1 8229   6.619   3.106   8.793  0.2192  0.0807  0.2046
  515loPI   GL2 8230   6.369   2.795   8.830 -0.1359  0.0441  0.0916
  515loPI   C1A 8231   6.686   3.371   8.456 -0.3361 -0.0465 -0.5258
  515loPI   C2A 8232   6.765   3.325   8.015 -0.1263  0.0464  0.2130
  515loPI   C3A 8233   6.620   3.327   7.568  0.2721  0.1348 -0.1551
  515loPI   C4A 8234   6.345   3.570   7.216 -0.0289  0.0886 -0.0817
  515loPI   C5A 8235   6.187   3.834   6.948 -0.0653 -0.3132 -0.1244
  515loPI   C6A 8236   6.006   4.238   6.874 -0.3119 -0.2180  0.2236
  515loPI   C1B 8237   6.423   2.964   8.388  0.0151 -0.1932 -0.0400
  515loPI   C2B 8238   6.470   2.933   7.985  0.3959 -0.0800  0.0795
  515loPI   C3B 8239   6.161   3.002   7.678  0.1601 -0.2635  0.0379
  515loPI   C4B 8240   6.102   2.978   7.235 -0.2659 -0.1197  0.4942
  516loPI    C1 8241  12.882  10.237   9.582  0.2268 -0.0891  0.0866
  516loPI    C2 8242  13.074  10.308   9.926 -0.0754 -0.0542  0.2513
  516loPI    C3 8243  12.779  10.037   9.913 -0.2652  0.1563  0.0913
  516loPI   PO4 8244  13.085  10.279   9.384  0.0257  0.1267  0.4530
  516loPI   GL1 8245  13.370  10.406   9.135  0.2303 -0.1465 -0.0343
  516loPI   GL2 8246  13.057  10.671   9.098 -0.1235  0.4406 -0.2217
  516loPI   C1A 8247  13.543  10.195   8.840 -0.0920 -0.1418  0.1618
  516loPI   C2A 8248  13.604  10.184   8.428 -0.1392 -0.0134  0.1310
  516loPI   C3A 8249  13.530  10.057   8.018  0.2669  0.2139 -0.1970
  516loPI   C4A 8250  13.269  10.060   7.594 -0.0021  0.1954  0.2325
  516loPI   C5A 8251  13.033  10.215   7.238 -0.3707 -0.2028  0.1763
  516loPI   C6A 8252  12.645  10.105   7.057  0.1198  0.0434  0.0911
  516loPI   C1B 8253  12.937  10.613   8.756  0.1497 -0.0670  0.0806
  516loPI   C2B 8254  13.082  10.228   8.473  0.2704  0.0376 -0.1416
  516loPI   C3B 8255  13.278   9.826   8.380  0.0047  0.0810 -0.2474
  516loPI   C4B 8256  13.335   9.624   7.924  0.1654  0.2345  0.1508
  517loPI    C1 8257   4.306   4.706   9.886  0.0139 -0.1364  0.0715
  517loPI    C2 8258   4.623   4.824  10.100 -0.1876  0.1908  0.1972
  517loPI    C3 8259   4.268   4.776  10.278 -0.1824 -0.3155  0.0861
  517loPI   PO4 8260   4.276   4.790   9.672 -0.3159 -0.0382  0.0147
  517loPI   GL1 8261   4.395   4.874   9.282  0.0596  0.0142  0.3026
  517loPI   GL2 8262   4.484   4.585   9.096  0.4012  0.1061  0.1170
  517loPI   C1A 8263   4.418   4.964   8.735  0.0255 -0.2081 -0.1645
  517loPI   C2A 8264   4.270   4.980   8.303  0.1779 -0.1230 -0.0602
  517loPI   C3A 8265   4.218   4.908   7.919 -0.2014 -0.2411 -0.2936
  517loPI   C4A 8266   4.188   5.041   7.563  0.1609 -0.0045  0.0717
  517loPI   C5A 8267   3.763   5.067   7.572  0.2429 -0.1451 -0.0975
  517loPI   C6A 8268   3.317   5.021   7.812  0.2016  0.3635 -0.1509
  517loPI   C1B 8269   4.438   4.528   8.555 -0.4326 -0.0535  0.1062
  517loPI   C2B 8270   4.500   4.590   8.190 -0.2156 -0.0439 -0.0920
  517loPI   C3B 8271   4.602   4.669   7.719  0.0476  0.0513  0.0409
  517loPI   C4B 8272   4.748   4.386   7.460 -0.1256 -0.0295 -0.1731
  518loPI    C1 8273  19.082  18.414  10.195  0.0889  0.2896  0.0955
  518loPI    C2 8274  19.100  18.173  10.514 -0.2512 -0.0472 -0.1299
  518loPI    C3 8275  19.413  18.404  10.419 -0.0987 -0.0380  0.3675
  518loPI   PO4 8276  19.099  18.295   9.915  0.0591 -0.2300  0.1245
  518loPI   GL1 8277  18.795  18.351   9.536  0.1545 -0.0753  0.1017
  518loPI   GL2 8278  18.843  17.975   9.542 -0.3177 -0.1446  0.1679
  518loPI   C1A 8279  18.813  18.392   8.998  0.0722  0.1537 -0.0943
  518loPI   C2A 8280  19.054  18.156   8.637  0.0378  0.1803 -0.0953
  518loPI   C3A 8281  19.232  18.136   8.244  0.0559  0.2573  0.0354
  518loPI   C4A 8282  19.167  17.999   7.807  0.1326 -0.2383  0.0598
  518loPI   C5A 8283  19.230  18.271   7.446  0.3763 -0.1434  0.1889
  518loPI   C6A 8284  19.274  18.647   7.246 -0.0505  0.0450 -0.0536
  518loPI   C1B 8285  18.643  17.931   9.082  0.0878 -0.2025 -0.1977
  518loPI   C2B 8286  18.494  17.751   8.680  0.0474 -0.0440 -0.0229
  518loPI   C3B 8287  18.270  17.507   8.273  0.0358 -0.2974  0.2228
  518loPI   C4B 8288  18.122  17.288   7.956  0.0195 -0.5034  0.1039
  519loPI    C1 8289   0.786  11.047   9.526 -0.1276 -0.0361 -0.1357
  519loPI    C2 8290   0.607  11.100   9.880  0.0320 -0.1070 -0.0435
  519loPI    C3 8291   0.702  10.731   9.758  0.2210 -0.0611 -0.0381
  519loPI   PO4 8292   0.956  11.197   9.504  0.2978 -0.1541 -0.0688
  519loPI   GL1 8293   0.965  11.588   9.413  0.1630  0.1345 -0.1809
  519loPI   GL2 8294   0.949  11.860   9.355 -0.0571 -0.0115 -0.2716
  519loPI   C1A 8295   1.077  11.573   8.950 -0.2210 -0.2558  0.1352
  519loPI   C2A 8296   0.958  11.680   8.441 -0.1735 -0.5094 -0.0268
  519loPI   C3A 8297   0.977  11.789   8.039 -0.0352 -0.1879  0.0582
  519loPI   C4A 8298   0.881  11.674   7.646 -0.2497  0.2667  0.2454
  519loPI   C5A 8299   0.452  11.594   7.471 -0.2760 -0.1409  0.0427
  519loPI   C6A 8300   0.411  11.240   7.152  0.1766 -0.3730  0.0624
  519loPI   C1B 8301   1.272  12.088   9.036  0.1509 -0.1334 -0.0666
  519loPI   C2B 8302   1.171  12.220   8.672  0.0602  0.1304 -0.0169
  519loPI   C3B 8303   1.012  12.305   8.250 -0.3563 -0.0767  0.0710
  519loPI   C4B 8304   0.875  12.301   7.888  0.1289  0.1827  0.0596
  520loPI    C1 8305  11.073  16.908   9.987 -0.0358 -0.1401 -0.0851
  520loPI    C2 8306  11.042  16.685  10.317  0.0345  0.0756  0.0691
  520loPI    C3 8307  10.923  17.066  10.322 -0.2845 -0.0153 -0.2525
  520loPI   PO4 8308  10.908  16.773   9.724  0.3273  0.2411 -0.1717
  520loPI   GL1 8309  10.797  16.938   9.353 -0.1638  0.1921 -0.0659
  520loPI   GL2 8310  10.986  17.119   9.145  0.0506 -0.1952  0.0997
  520loPI   C1A 8311  10.497  16.654   9.186  0.1222  0.1156  0.0497
  520loPI   C2A 8312  10.289  16.448   8.868  0.0681  0.1036  0.1946
  520loPI   C3A 8313  10.115  16.053   8.575 -0.0853  0.3218 -0.0036
  520loPI   C4A 8314  10.181  15.715   8.298 -0.2141  0.0277  0.2499
  520loPI   C5A 8315  10.071  15.548   7.953 -0.0212 -0.0597 -0.0286
  520loPI   C6A 8316   9.997  15.492   7.468 -0.2286  0.1753 -0.4664
  520loPI   C1B 8317  10.762  16.953   8.710 -0.1285  0.2145  0.1909
  520loPI   C2B 8318  10.605  16.989   8.249 -0.0273  0.3899  0.1098
  520loPI   C3B 8319  10.459  16.660   8.171 -0.1842  0.2237 -0.0729
  520loPI   C4B 8320  10.342  16.196   8.178 -0.0665  0.1543  0.2859
  521loPI    C1 8321   1.961   5.323  10.316 -0.3285 -0.0911 -0.0772
  521loPI    C2 8322   2.132   4.968  10.384 -0.2679 -0.0817 -0.1786
  521loPI    C3 8323   1.889   5.129  10.658 -0.1110 -0.0932 -0.0314
  521loPI   PO4 8324   1.957   5.287  10.056 -0.2048 -0.1445  0.2901
  521loPI   GL1 8325   2.172   5.286   9.546  0.4970 -0.3472  0.0602
  521loPI   GL2 8326   2.413   5.115   9.317 -0.0669  0.0481 -0.0182
  521loPI   C1A 8327   1.998   5.249   9.097 -0.2119 -0.1104 -0.3033
  521loPI   C2A 8328   1.928   5.081   8.662 -0.0228 -0.1040  0.1999
  521loPI   C3A 8329   1.915   5.085   8.214 -0.0076  0.1121 -0.1424
  521loPI   C4A 8330   1.719   4.982   7.732  0.2444 -0.2203 -0.0789
  521loPI   C5A 8331   1.477   4.697   7.490 -0.1811 -0.2631  0.1221
  521loPI   C6A 8332   1.282   4.780   7.150 -0.2023  0.2985 -0.0327
  521loPI   C1B 8333   2.454   5.138   8.874 -0.1701  0.1320  0.1674
  521loPI   C2B 8334   2.450   5.148   8.462  0.2917  0.1127 -0.1242
  521loPI   C3B 8335   2.555   5.309   7.940 -0.0518  0.0934 -0.3302
  521loPI   C4B 8336   2.701   5.329   7.493  0.1552 -0.1877  0.1297
  522loPI    C1 8337   3.300  12.669   9.933  0.0939  0.0183  0.1852
  522loPI    C2 8338   3.326  12.858   9.582 -0.0368 -0.2455  0.0295
  522loPI    C3 8339   3.022  12.937   9.830  0.1352  0.0489  0.1530
  522loPI   PO4 8340   3.374  12.391   9.797  0.2898 -0.0492  0.6114
  522loPI   GL1 8341   3.197  12.377   9.480  0.1986  0.1931 -0.1059
  522loPI   GL2 8342   3.180  12.036   9.446  0.1767 -0.0057 -0.2254
  522loPI   C1A 8343   3.222  12.559   9.117 -0.1390 -0.4403 -0.2020
  522loPI   C2A 8344   3.311  12.501   8.713 -0.0369 -0.3099 -0.0622
  522loPI   C3A 8345   3.206  12.579   8.265 -0.0231  0.1237  0.2407
  522loPI   C4A 8346   3.256  12.700   7.774 -0.0245 -0.1615  0.0429
  522loPI   C5A 8347   3.234  13.045   7.553 -0.0368  0.1750  0.1408
  522loPI   C6A 8348   3.445  13.446   7.543  0.3823 -0.1053  0.0944
  522loPI   C1B 8349   3.192  12.093   9.020 -0.1039  0.3445 -0.2102
  522loPI   C2B 8350   3.077  11.992   8.631 -0.4482  0.2362  0.5078
  522loPI   C3B 8351   3.170  12.062   8.236  0.2365  0.0618 -0.3058
  522loPI   C4B 8352   3.089  12.173   7.740  0.3157 -0.1320  0.0154
  523loPI    C1 8353  15.910   3.773  10.160  0.2333 -0.0229  0.2244
  523loPI    C2 8354  15.669   3.593  10.424  0.0055 -0.0052  0.0318
  523loPI    C3 8355  15.911   3.888  10.543 -0.0272 -0.0603  0.2384
  523loPI   PO4 8356  15.677   3.834   9.927  0.3254  0.0796 -0.1495
  523loPI   GL1 8357  15.397   3.954   9.578 -0.3161  0.1949 -0.1113
  523loPI   GL2 8358  15.027   4.002   9.424 -0.1776  0.1420 -0.1813
  523loPI   C1A 8359  15.651   3.715   9.270 -0.0178  0.0824 -0.2371
  523loPI   C2A 8360  15.766   3.761   8.841  0.1777 -0.7467 -0.3400
  523loPI   C3A 8361  15.771   3.687   8.428 -0.1553  0.0870 -0.1290
  523loPI   C4A 8362  15.995   3.393   8.182 -0.0682 -0.1001 -0.0434
  523loPI   C5A 8363  16.168   3.195   7.938  0.2208 -0.0643  0.3112
  523loPI   C6A 8364  16.059   2.968   7.584  0.0299  0.1387  0.2167
  523loPI   C1B 8365  14.665   3.824   9.076  0.1498  0.1207  0.1200
  523loPI   C2B 8366  14.775   3.800   8.655 -0.1549  0.0121  0.0689
  523loPI   C3B 8367  14.840   3.770   8.185  0.5693 -0.2493 -0.0698
  523loPI   C4B 8368  14.961   3.975   7.809 -0.1720  0.0465  0.4126
  524loPI    C1 8369   4.191  17.742   9.750 -0.0228  0.3446  0.0523
  524loPI    C2 8370   4.219  17.896  10.118  0.0336 -0.0563  0.2214
  524loPI    C3 8371   4.545  17.755   9.934 -0.0161  0.0267  0.0674
  524loPI   PO4 8372   3.998  17.886   9.631 -0.0387  0.2173 -0.1966
  524loPI   GL1 8373   3.959  18.082   9.150 -0.1546  0.0118 -0.1034
  524loPI   GL2 8374   3.653  18.025   9.265 -0.0042  0.2164  0.0874
  524loPI   C1A 8375   4.009  18.096   8.689 -0.2791  0.0381 -0.2424
  524loPI   C2A 8376   3.985  18.183   8.202  0.2361  0.2442 -0.0608
  524loPI   C3A 8377   3.767  18.072   7.865 -0.1600 -0.2332  0.0435
  524loPI   C4A 8378   3.639  18.403   7.730  0.3193  0.0987  0.3287
  524loPI   C5A 8379   3.276  18.481   7.425  0.1258  0.4360 -0.1805
  524loPI   C6A 8380   2.867  18.270   7.263  0.0307 -0.3421 -0.0175
  524loPI   C1B 8381   3.525  17.852   8.836  0.1705  0.1719 -0.1905
  524loPI   C2B 8382   3.641  17.859   8.433  0.1855  0.3318 -0.1333
  524loPI   C3B 8383   3.371  17.810   8.045  0.2458  0.1509  0.1323
  524loPI   C4B 8384   3.319  17.722   7.695  0.0533  0.3124  0.2369
  525loPI    C1 8385  18.405   7.397   9.994 -0.1288 -0.0198  0.1247
  525loPI    C2 8386  18.548   7.024  10.012 -0.0146  0.0224  0.0986
  525loPI    C3 8387  18.223   7.123  10.222  0.0507 -0.0492  0.2349
  525loPI   PO4 8388  18.402   7.394   9.733  0.0837  0.0296 -0.0546
  525loPI   GL1 8389  18.479   7.109   9.452  0.2218 -0.1459  0.0699
  525loPI   GL2 8390  18.678   7.161   9.271 -0.1780  0.3400 -0.3984
  525loPI   C1A 8391  18.353   6.780   9.222 -0.1205  0.1940 -0.1320
  525loPI   C2A 8392  18.034   6.763   8.890 -0.2228 -0.1985 -0.0389
  525loPI   C3A 8393  17.887   6.970   8.483 -0.4354 -0.0524  0.2411
  525loPI   C4A 8394  17.905   6.934   8.044 -0.2372  0.2465 -0.1217
  525loPI   C5A 8395  18.044   6.740   7.607  0.0804  0.1949 -0.0829
  525loPI   C6A 8396  18.238   6.717   7.266 -0.2800 -0.0408  0.2906
  525loPI   C1B 8397  18.833   7.306   8.879  0.0334 -0.1283  0.2032
  525loPI   C2B 8398  18.926   7.613   8.562  0.1385  0.2328  0.1450
  525loPI   C3B 8399  18.511   7.750   8.449  0.0245 -0.0874 -0.0780
  525loPI   C4B 8400  18.335   7.874   8.135 -0.1537 -0.1255  0.1884
  526loPI    C1 8401  14.184  15.982  10.111  0.0371 -0.0399 -0.2567
  526loPI    C2 8402  14.535  15.790  10.091  0.1675  0.1839 -0.1536
  526loPI    C3 8403  14.393  15.912  10.445 -0.0850 -0.0302 -0.1775
  526loPI   PO4 8404  14.080  16.025   9.745  0.0806  0.1543  0.4311
  526loPI   GL1 8405  14.125  15.989   9.371 -0.1132  0.3281  0.0446
  526loPI   GL2 8406  14.272  16.314   9.371  0.1970  0.0544 -0.3146
  526loPI   C1A 8407  14.124  16.133   8.947 -0.1154 -0.0743  0.0459
  526loPI   C2A 8408  14.217  16.201   8.522  0.0228 -0.2903 -0.3763
  526loPI   C3A 8409  13.946  16.235   8.223  0.0483 -0.0044 -0.0579
  526loPI   C4A 8410  13.746  16.612   8.078  0.0678  0.0738 -0.0146
  526loPI   C5A 8411  13.776  16.716   7.603  0.3998 -0.0033  0.1935
  526loPI   C6A 8412  14.007  16.530   7.324 -0.0813 -0.0015 -0.0726
  526loPI   C1B 8413  14.392  16.625   9.015  0.3082  0.3985 -0.3224
  526loPI   C2B 8414  14.564  16.628   8.604  0.1482  0.1705 -0.1959
  526loPI   C3B 8415  14.562  16.705   8.186 -0.0724  0.1739  0.1164
  526loPI   C4B 8416  14.915  16.830   7.887 -0.1306  0.2198  0.1396
  527loPI    C1 8417  17.959  17.613  10.093  0.1648 -0.2365  0.1355
  527loPI    C2 8418  17.841  17.348  10.369 -0.0255 -0.0363  0.2500
  527loPI    C3 8419  17.919  17.726  10.475  0.1257 -0.0148  0.0674
  527loPI   PO4 8420  18.185  17.382   9.965 -0.0749  0.2328  0.2760
  527loPI   GL1 8421  18.335  17.278   9.598  0.0518  0.0786  0.2826
  527loPI   GL2 8422  18.627  17.540   9.606 -0.1436  0.2206 -0.0957
  527loPI   C1A 8423  18.044  17.080   9.319  0.2672  0.3626 -0.0408
  527loPI   C2A 8424  17.859  17.270   8.967  0.0974  0.1542 -0.1136
  527loPI   C3A 8425  17.765  17.341   8.449  0.1053 -0.1120  0.0634
  527loPI   C4A 8426  17.628  17.354   7.988  0.0035  0.0203  0.0036
  527loPI   C5A 8427  17.591  17.015   7.758  0.2951  0.1301  0.1861
  527loPI   C6A 8428  17.609  16.681   7.461 -0.1115  0.2192  0.1020
  527loPI   C1B 8429  18.554  17.433   9.119 -0.3499  0.1000  0.0148
  527loPI   C2B 8430  18.304  17.282   8.755 -0.1318 -0.1823 -0.2234
  527loPI   C3B 8431  18.027  16.935   8.558 -0.1647 -0.1482 -0.1266
  527loPI   C4B 8432  17.820  16.924   8.170  0.1533 -0.4127  0.1384
  528loPI    C1 8433  12.054  10.454   9.541  0.0107  0.0254 -0.1406
  528loPI    C2 8434  12.074  10.594   9.915  0.2549 -0.0753 -0.1139
  528loPI    C3 8435  11.848  10.274   9.833  0.1506 -0.0147 -0.0654
  528loPI   PO4 8436  12.350  10.347   9.547 -0.4280 -0.0478 -0.5450
  528loPI   GL1 8437  12.602  10.473   9.225 -0.2173  0.0715  0.2074
  528loPI   GL2 8438  12.284  10.585   9.096 -0.1198  0.0497 -0.2116
  528loPI   C1A 8439  12.684  10.137   8.885  0.0239 -0.1095  0.0657
  528loPI   C2A 8440  12.602  10.137   8.507  0.1249  0.2551  0.0058
  528loPI   C3A 8441  12.541  10.383   8.161 -0.0797  0.0954  0.3078
  528loPI   C4A 8442  12.375  10.458   7.751 -0.1643 -0.2251 -0.1001
  528loPI   C5A 8443  12.224  10.468   7.405 -0.1744  0.1426  0.0617
  528loPI   C6A 8444  11.994  10.221   7.130  0.3168  0.2361  0.3315
  528loPI   C1B 8445  12.403  10.637   8.588 -0.2702 -0.0300 -0.0344
  528loPI   C2B 8446  12.216  10.774   8.267  0.0548  0.0015 -0.0215
  528loPI   C3B 8447  12.111  10.889   7.963 -0.0397 -0.0056  0.1697
  528loPI   C4B 8448  11.792  10.788   7.602  0.0053 -0.1536 -0.0505
  529loPI    C1 8449  10.743   9.724   9.638 -0.0967 -0.0819 -0.2093
  529loPI    C2 8450  11.087   9.671   9.836 -0.0876  0.1765 -0.1532
  529loPI    C3 8451  10.740   9.576  10.010 -0.0486 -0.0421 -0.1929
  529loPI   PO4 8452  10.859   9.655   9.399 -0.1238  0.0061  0.3163
  529loPI   GL1 8453  11.209   9.715   9.235 -0.4030 -0.2561 -0.0838
  529loPI   GL2 8454  11.564   9.938   9.304  0.2081  0.0214 -0.2124
  529loPI   C1A 8455  11.106   9.927   8.795  0.1118  0.2624  0.1659
  529loPI   C2A 8456  11.088   9.734   8.375  0.1719  0.0766  0.1004
  529loPI   C3A 8457  11.208   9.435   8.012  0.0228  0.0273  0.0965
  529loPI   C4A 8458  11.530   9.147   7.773 -0.1329 -0.0607  0.0185
  529loPI   C5A 8459  11.750   8.942   7.400 -0.3422 -0.1866  0.2106
  529loPI   C6A 8460  11.679   8.621   7.083 -0.1550  0.0549 -0.0516
  529loPI   C1B 8461  11.596  10.116   8.848 -0.2991  0.0563  0.1857
  529loPI   C2B 8462  11.669   9.919   8.557 -0.3590 -0.3741 -0.1754
  529loPI   C3B 8463  11.848   9.811   8.118 -0.0013 -0.0828  0.1765
  529loPI   C4B 8464  11.850   9.897   7.646  0.0897 -0.1718 -0.0287
  530loPI    C1 8465   5.406   4.644   9.749  0.2287 -0.2604  0.0862
  530loPI    C2 8466   5.651   4.959   9.721 -0.0233 -0.0878 -0.2569
  530loPI    C3 8467   5.765   4.634   9.924  0.3227  0.1431 -0.0716
  530loPI   PO4 8468   5.357   4.665   9.471  0.3608  0.0061  0.4391
  530loPI   GL1 8469   5.373   4.639   8.960 -0.2209 -0.1073  0.2296
  530loPI   GL2 8470   5.372   4.946   9.029 -0.0634 -0.0429  0.0943
  530loPI   C1A 8471   5.299   4.664   8.500 -0.2597 -0.0135 -0.1856
  530loPI   C2A 8472   5.270   5.049   8.126  0.1115 -0.1426  0.1378
  530loPI   C3A 8473   5.158   5.037   7.725  0.0317 -0.3173  0.3245
  530loPI   C4A 8474   4.953   5.016   7.345 -0.3961  0.0275  0.4166
  530loPI   C5A 8475   5.008   4.933   6.875  0.0409  0.0683 -0.0925
  530loPI   C6A 8476   5.069   4.923   6.406 -0.4197 -0.2337  0.3406
  530loPI   C1B 8477   5.546   5.004   8.637  0.0340  0.0993  0.0156
  530loPI   C2B 8478   5.752   5.050   8.195  0.0304 -0.0714 -0.1285
  530loPI   C3B 8479   5.978   5.226   7.870 -0.3031  0.0692  0.1476
  530loPI   C4B 8480   6.359   5.406   7.812 -0.3874  0.1748 -0.1262
  531loPI    C1 8481  10.497   8.625   9.623 -0.1337 -0.0634 -0.0238
  531loPI    C2 8482  10.289   8.940   9.490 -0.0744 -0.0028  0.0270
  531loPI    C3 8483  10.130   8.697   9.766 -0.1688 -0.0873 -0.1010
  531loPI   PO4 8484  10.569   8.506   9.370 -0.3833  0.0302 -0.2086
  531loPI   GL1 8485  10.694   8.593   8.866 -0.1062 -0.2727 -0.1492
  531loPI   GL2 8486  10.911   8.917   8.786 -0.2819  0.0244  0.1371
  531loPI   C1A 8487  10.439   8.507   8.483  0.2166 -0.2085 -0.1654
  531loPI   C2A 8488  10.431   8.776   8.141  0.0941  0.0732  0.1885
  531loPI   C3A 8489  10.405   8.852   7.645  0.1541 -0.1944 -0.0487
  531loPI   C4A 8490  10.677   8.829   7.375  0.6193 -0.1770 -0.1532
  531loPI   C5A 8491  10.782   9.032   6.930 -0.2476 -0.0602 -0.1936
  531loPI   C6A 8492  10.674   9.539   6.838  0.2211 -0.2643  0.0079
  531loPI   C1B 8493  10.788   8.999   8.424  0.2400  0.0306 -0.0867
  531loPI   C2B 8494  10.803   9.090   8.040  0.3122 -0.2213 -0.1972
  531loPI   C3B 8495  10.775   9.228   7.697 -0.0808 -0.0026 -0.0033
  531loPI   C4B 8496  10.715   9.361   7.383  0.0059 -0.1157  0.0085
  532loPI    C1 8497  18.058   2.737  10.284 -0.0805  0.0449 -0.1488
  532loPI    C2 8498  18.046   3.042  10.541 -0.1693  0.0300 -0.1346
  532loPI    C3 8499  18.019   2.667  10.676  0.5348 -0.0191 -0.0889
  532loPI   PO4 8500  17.892   2.882  10.045  0.0795  0.0362 -0.1706
  532loPI   GL1 8501  17.596   3.006   9.742  0.0444  0.1571  0.0747
  532loPI   GL2 8502  17.764   2.934   9.569 -0.0768 -0.2176 -0.2060
  532loPI   C1A 8503  17.382   3.127   9.291  0.1205 -0.0421 -0.2258
  532loPI   C2A 8504  17.114   3.145   8.965  0.0722  0.0914  0.0187
  532loPI   C3A 8505  16.912   3.197   8.554 -0.1174  0.3226 -0.0472
  532loPI   C4A 8506  17.055   3.102   8.186 -0.0586 -0.2648  0.1015
  532loPI   C5A 8507  17.155   3.163   7.776 -0.0880  0.1924 -0.2530
  532loPI   C6A 8508  17.502   3.204   7.511 -0.0461  0.2511 -0.0864
  532loPI   C1B 8509  17.662   2.774   9.187  0.2363  0.0995 -0.2335
  532loPI   C2B 8510  17.510   2.739   8.729  0.0500 -0.4035  0.3198
  532loPI   C3B 8511  17.411   2.803   8.344 -0.0179 -0.0057 -0.3571
  532loPI   C4B 8512  17.428   2.793   7.861  0.1339 -0.2146 -0.0696
  533loPI    C1 8513  15.723   7.993  10.089 -0.2062 -0.0097 -0.1086
  533loPI    C2 8514  15.857   8.355  10.191 -0.0265 -0.0323 -0.2592
  533loPI    C3 8515  15.788   8.081  10.473 -0.0234  0.0711 -0.1572
  533loPI   PO4 8516  15.843   8.029   9.817  0.1519 -0.2142 -0.0791
  533loPI   GL1 8517  15.845   7.947   9.345 -0.3378  0.3712  0.2181
  533loPI   GL2 8518  15.818   8.273   9.330 -0.2313  0.0892  0.3524
  533loPI   C1A 8519  15.977   7.596   9.105  0.1029  0.1421 -0.0914
  533loPI   C2A 8520  15.944   7.531   8.653 -0.1273 -0.1072 -0.0186
  533loPI   C3A 8521  15.942   7.481   8.279 -0.0263 -0.2563 -0.0148
  533loPI   C4A 8522  15.845   7.447   7.829 -0.0772  0.0134 -0.3969
  533loPI   C5A 8523  15.474   7.577   7.632 -0.1919  0.1578  0.1843
  533loPI   C6A 8524  15.246   7.961   7.588  0.0246  0.1254 -0.1076
  533loPI   C1B 8525  15.703   8.466   8.962  0.1069  0.0667 -0.4599
  533loPI   C2B 8526  16.076   8.417   8.555  0.2538  0.1060 -0.3785
  533loPI   C3B 8527  16.362   8.181   8.210  0.1004 -0.1227 -0.1474
  533loPI   C4B 8528  16.343   8.214   7.817 -0.3935  0.4015 -0.1770
  534loPI    C1 8529  13.707  13.513  10.024  0.0884  0.2246  0.2566
  534loPI    C2 8530  13.925  13.790   9.835 -0.1165  0.2135 -0.0028
  534loPI    C3 8531  13.586  13.895  10.020 -0.0874  0.1685  0.0767
  534loPI   PO4 8532  13.904  13.316   9.973 -0.1949  0.0153  0.0164
  534loPI   GL1 8533  14.094  13.251   9.603  0.1256  0.1995  0.0010
  534loPI   GL2 8534  13.933  13.017   9.544 -0.0043 -0.0927 -0.1099
  534loPI   C1A 8535  14.134  13.636   9.411 -0.0180  0.1540 -0.2589
  534loPI   C2A 8536  13.983  14.138   9.235  0.2199  0.0538 -0.0572
  534loPI   C3A 8537  13.933  14.580   8.982  0.0688 -0.1885  0.2212
  534loPI   C4A 8538  13.799  14.844   8.654  0.0430  0.1348 -0.0978
  534loPI   C5A 8539  13.957  15.034   8.464 -0.2376 -0.1245  0.0348
  534loPI   C6A 8540  14.186  15.246   8.177 -0.1694 -0.3521 -0.1264
  534loPI   C1B 8541  13.996  13.191   9.145  0.3305  0.2994 -0.0443
  534loPI   C2B 8542  13.800  13.544   8.940  0.0075 -0.2575  0.2107
  534loPI   C3B 8543  13.983  13.959   8.719  0.0615 -0.1544  0.4371
  534loPI   C4B 8544  14.026  14.318   8.537  0.0086 -0.2844  0.1929
  535loPI    C1 8545  14.667  15.213  10.177  0.3168  0.0981 -0.0437
  535loPI    C2 8546  14.633  14.947  10.473 -0.0971  0.1482 -0.0406
  535loPI    C3 8547  14.540  15.331  10.538  0.0938  0.2153 -0.1579
  535loPI   PO4 8548  14.834  15.058  10.001  0.0638  0.1132  0.2125
  535loPI   GL1 8549  14.845  14.934   9.519  0.1267 -0.1447 -0.0758
  535loPI   GL2 8550  14.799  14.596   9.518 -0.1808 -0.1452 -0.1027
  535loPI   C1A 8551  14.970  15.026   9.180  0.0557  0.1985  0.0314
  535loPI   C2A 8552  14.957  14.943   8.743 -0.2809  0.0247  0.1295
  535loPI   C3A 8553  15.213  15.005   8.424  0.0311 -0.2448  0.2306
  535loPI   C4A 8554  15.506  15.210   8.087  0.0412 -0.2966  0.0310
  535loPI   C5A 8555  15.576  15.679   8.017  0.0304 -0.3502 -0.0834
  535loPI   C6A 8556  15.455  16.052   7.909 -0.1117 -0.0661 -0.1765
  535loPI   C1B 8557  15.046  14.496   9.129 -0.4229  0.2631 -0.0950
  535loPI   C2B 8558  14.930  14.408   8.654  0.0009 -0.0025  0.1004
  535loPI   C3B 8559  14.907  14.647   8.213 -0.0154 -0.0721 -0.1073
  535loPI   C4B 8560  15.059  15.009   7.906  0.0196 -0.3465 -0.2954
  536loPI    C1 8561   1.312   4.582   9.923  0.2666  0.0380  0.1651
  536loPI    C2 8562   1.212   4.220  10.061 -0.0867  0.0675 -0.0039
  536loPI    C3 8563   1.170   4.542  10.295 -0.3241  0.0696 -0.0460
  536loPI   PO4 8564   1.165   4.525   9.682  0.1399  0.1030  0.0140
  536loPI   GL1 8565   0.986   4.312   9.355 -0.0406 -0.1187 -0.1489
  536loPI   GL2 8566   0.988   4.028   9.382 -0.1376  0.1195 -0.0880
  536loPI   C1A 8567   0.797   4.337   8.957  0.3985 -0.4204  0.0446
  536loPI   C2A 8568   0.627   4.313   8.653  0.1060  0.0372 -0.0584
  536loPI   C3A 8569   0.450   4.235   8.189 -0.2247  0.0759  0.4659
  536loPI   C4A 8570   0.436   4.324   7.729 -0.1486 -0.0632 -0.1635
  536loPI   C5A 8571   0.381   4.664   7.517  0.2643 -0.1399  0.1444
  536loPI   C6A 8572   0.296   4.963   7.299  0.1685 -0.0019 -0.1819
  536loPI   C1B 8573   1.136   3.961   8.861  0.0395 -0.2392  0.3073
  536loPI   C2B 8574   0.962   3.986   8.436  0.0284  0.0307 -0.0512
  536loPI   C3B 8575   0.867   4.074   7.979 -0.1091 -0.0397 -0.0917
  536loPI   C4B 8576   0.824   4.097   7.521  0.1054  0.0569  0.3367
  537loPI    C1 8577   3.336  18.103   9.732 -0.0794 -0.3369 -0.0853
  537loPI    C2 8578   3.287  18.027  10.122  0.2136 -0.0804  0.0058
  537loPI    C3 8579   3.651  18.005   9.959  0.1086 -0.0834 -0.2324
  537loPI   PO4 8580   3.223  17.881   9.618 -0.0726  0.4843  0.1236
  537loPI   GL1 8581   3.198  17.600   9.201  0.0730 -0.0089  0.4018
  537loPI   GL2 8582   2.971  17.905   9.113 -0.1926  0.2320  0.1566
  537loPI   C1A 8583   3.175  17.510   8.814 -0.2663  0.0062  0.0107
  537loPI   C2A 8584   3.123  17.528   8.425 -0.1383  0.3779 -0.2087
  537loPI   C3A 8585   3.270  17.274   8.070  0.0871 -0.0978  0.0319
  537loPI   C4A 8586   3.512  17.157   7.714 -0.3353  0.0163  0.3870
  537loPI   C5A 8587   3.683  17.306   7.265  0.2719  0.1910  0.1309
  537loPI   C6A 8588   4.100  17.396   7.206  0.0568 -0.2183 -0.1702
  537loPI   C1B 8589   3.061  18.012   8.661 -0.1268  0.1232 -0.0376
  537loPI   C2B 8590   2.970  18.020   8.356  0.0423  0.3422  0.0838
  537loPI   C3B 8591   2.629  18.008   7.955  0.2058  0.0260  0.0059
  537loPI   C4B 8592   2.465  17.888   7.647 -0.0076  0.2855 -0.0440
  538loPI    C1 8593   5.141   1.329   9.321 -0.0126  0.1165  0.0298
  538loPI    C2 8594   5.047   1.359   9.709  0.0721  0.2035  0.0442
  538loPI    C3 8595   5.419   1.439   9.587  0.1792 -0.3090  0.0137
  538loPI   PO4 8596   4.946   1.357   9.192  0.2758 -0.0375 -0.5213
  538loPI   GL1 8597   4.830   1.296   8.718  0.1258 -0.3504  0.0663
  538loPI   GL2 8598   4.440   1.416   8.599  0.0208  0.3680  0.0629
  538loPI   C1A 8599   4.674   1.003   8.400 -0.0785  0.0427 -0.1310
  538loPI   C2A 8600   4.680   0.832   7.967  0.1441  0.0511 -0.0989
  538loPI   C3A 8601   4.872   0.939   7.602 -0.1256 -0.4490  0.0655
  538loPI   C4A 8602   4.747   0.973   7.173  0.0529  0.2158 -0.2434
  538loPI   C5A 8603   4.846   0.976   6.808  0.2835  0.1677  0.1300
  538loPI   C6A 8604   5.032   0.740   6.453  0.0259  0.0070 -0.1410
  538loPI   C1B 8605   4.701   1.477   8.226  0.4735 -0.1545 -0.1264
  538loPI   C2B 8606   4.849   1.466   7.826 -0.2720 -0.0124 -0.0556
  538loPI   C3B 8607   4.702   1.412   7.434  0.6665  0.0796  0.1036
  538loPI   C4B 8608   4.597   1.517   6.983 -0.0633 -0.0439 -0.0526
  539loPI    C1 8609   0.306   3.881   9.787  0.0325  0.1485 -0.0140
  539loPI    C2 8610   0.222   4.146  10.076 -0.1399 -0.0615  0.1315
  539loPI    C3 8611   0.356   3.781  10.171  0.2281  0.0159 -0.0728
  539loPI   PO4 8612   0.081   3.837   9.555  0.0946 -0.1621 -0.0361
  539loPI   GL1 8613   0.044   3.682   9.106 -0.1404  0.5041 -0.0988
  539loPI   GL2 8614   0.243   3.416   9.293 -0.0742 -0.1107 -0.1616
  539loPI   C1A 8615  -0.090   3.335   8.855  0.0404 -0.0140  0.2304
  539loPI   C2A 8616  -0.064   3.006   8.613  0.5946  0.0189 -0.2280
  539loPI   C3A 8617  -0.233   2.686   8.296 -0.0137 -0.3609 -0.1354
  539loPI   C4A 8618  -0.315   2.402   7.994  0.1008  0.0663 -0.0476
  539loPI   C5A 8619  -0.556   2.319   7.610 -0.3285 -0.3843 -0.0344
  539loPI   C6A 8620  -0.830   2.029   7.420  0.0126 -0.0430  0.0358
  539loPI   C1B 8621   0.555   3.521   9.110 -0.0585 -0.0721  0.0352
  539loPI   C2B 8622   0.597   3.808   8.821 -0.2462  0.3445  0.2410
  539loPI   C3B 8623   0.407   3.868   8.484 -0.4164 -0.0091 -0.2149
  539loPI   C4B 8624   0.171   3.686   8.078 -0.1601 -0.0682  0.2186
  540loPI    C1 8625  10.759   1.933   9.573  0.0582  0.1026 -0.0121
  540loPI    C2 8626  10.428   2.116   9.702  0.0900  0.2857 -0.1849
  540loPI    C3 8627  10.786   2.283   9.766  0.1683 -0.0046  0.1702
  540loPI   PO4 8628  10.667   1.886   9.339 -0.2472  0.2663 -0.1225
  540loPI   GL1 8629  10.593   2.022   8.928 -0.0537 -0.0524 -0.2102
  540loPI   GL2 8630  10.463   1.713   8.913  0.4147  0.2210  0.0353
  540loPI   C1A 8631  10.555   2.232   8.554  0.0949  0.5513 -0.2355
  540loPI   C2A 8632  10.541   2.048   8.123 -0.1330 -0.1180  0.0793
  540loPI   C3A 8633  10.210   2.102   7.750  0.1904  0.2247 -0.0177
  540loPI   C4A 8634  10.084   2.149   7.299  0.2395  0.1426  0.0049
  540loPI   C5A 8635  10.173   2.219   6.858 -0.0065 -0.2112 -0.1054
  540loPI   C6A 8636  10.239   2.481   6.428  0.3293  0.0449  0.0256
  540loPI   C1B 8637  10.439   1.695   8.398 -0.1095  0.0996  0.0965
  540loPI   C2B 8638  10.307   1.424   8.027  0.2187  0.2222 -0.2066
  540loPI   C3B 8639  10.259   1.202   7.596  0.1769 -0.2569 -0.0781
  540loPI   C4B 8640  10.227   0.879   7.311 -0.1269  0.2036 -0.1400
  541loPI    C1 8641  18.633  17.872  10.149 -0.0600  0.0126 -0.2883
  541loPI    C2 8642  18.702  17.479  10.123  0.2043  0.0444 -0.1152
  541loPI    C3 8643  18.999  17.738  10.057  0.0960  0.2075  0.0291
  541loPI   PO4 8644  18.411  17.857   9.928 -0.0761 -0.2663 -0.0957
  541loPI   GL1 8645  18.260  17.975   9.457  0.0687 -0.0073  0.0652
  541loPI   GL2 8646  18.042  17.744   9.622 -0.0816  0.2887 -0.0738
  541loPI   C1A 8647  18.123  17.722   9.100 -0.1158  0.2435 -0.2658
  541loPI   C2A 8648  18.015  17.721   8.698  0.0714 -0.0395 -0.0403
  541loPI   C3A 8649  17.783  17.849   8.387  0.1238  0.1757 -0.3514
  541loPI   C4A 8650  17.476  17.970   7.975  0.0034  0.1479  0.2548
  541loPI   C5A 8651  17.632  18.142   7.583 -0.0655  0.1587  0.3377
  541loPI   C6A 8652  17.821  18.058   7.274  0.1893  0.0649 -0.2027
  541loPI   C1B 8653  17.686  17.857   9.352  0.0672  0.0375 -0.0776
  541loPI   C2B 8654  17.504  17.686   8.968  0.2233 -0.3931  0.4249
  541loPI   C3B 8655  17.377  17.636   8.578  0.2483 -0.0633 -0.0146
  541loPI   C4B 8656  17.091  17.918   8.479 -0.1847  0.0912 -0.2289
  542loPI    C1 8657   7.190  14.086  10.076 -0.0438 -0.3240 -0.0851
  542loPI    C2 8658   7.108  14.253  10.430  0.2950 -0.2313 -0.0468
  542loPI    C3 8659   6.907  13.929  10.310 -0.0550 -0.0655  0.0784
  542loPI   PO4 8660   7.168  14.270   9.905 -0.1687 -0.0449 -0.2758
  542loPI   GL1 8661   6.927  14.044   9.597 -0.4099  0.3047  0.0559
  542loPI   GL2 8662   7.255  13.894   9.494 -0.0169 -0.0579 -0.1660
  542loPI   C1A 8663   6.763  14.290   9.366 -0.0160 -0.1232 -0.2589
  542loPI   C2A 8664   6.529  14.654   9.081 -0.2100 -0.4190 -0.1191
  542loPI   C3A 8665   6.243  14.836   8.789  0.1494 -0.2570 -0.1086
  542loPI   C4A 8666   6.193  15.098   8.361  0.0066  0.0395 -0.0532
  542loPI   C5A 8667   5.931  15.088   7.959  0.3700 -0.1931  0.1179
  542loPI   C6A 8668   5.768  15.042   7.488  0.1388 -0.0255 -0.2102
  542loPI   C1B 8669   7.271  13.790   9.111 -0.0145 -0.3137 -0.0740
  542loPI   C2B 8670   7.336  14.049   8.752 -0.2526  0.1601 -0.0992
  542loPI   C3B 8671   7.382  14.070   8.379 -0.1963 -0.1072 -0.2779
  542loPI   C4B 8672   7.272  14.374   8.118 -0.0741  0.0552 -0.4604
  543loPI    C1 8673   6.349   9.171   9.238 -0.0120  0.0857 -0.1176
  543loPI    C2 8674   6.119   9.483   9.339 -0.1485 -0.0987  0.1551
  543loPI    C3 8675   6.159   9.174   9.590  0.1608 -0.2049 -0.0183
  543loPI   PO4 8676   6.373   9.157   9.020 -0.3126 -0.3133 -0.2027
  543loPI   GL1 8677   6.498   9.397   8.675  0.1402 -0.0069  0.0228
  543loPI   GL2 8678   6.206   9.198   8.580  0.2624  0.2566  0.1899
  543loPI   C1A 8679   6.512   9.628   8.388 -0.2584  0.3131 -0.3833
  543loPI   C2A 8680   6.652   9.851   8.028  0.1458  0.1283  0.3422
  543loPI   C3A 8681   6.722   9.963   7.683  0.0605  0.2392 -0.0956
  543loPI   C4A 8682   6.601   9.862   7.325 -0.2820  0.0518  0.0639
  543loPI   C5A 8683   6.681   9.645   7.008  0.3225 -0.1152  0.2090
  543loPI   C6A 8684   6.785   9.468   6.580  0.0253  0.3117  0.3459
  543loPI   C1B 8685   6.259   9.074   8.289 -0.2640 -0.1600 -0.0406
  543loPI   C2B 8686   6.161   9.035   7.794 -0.2797 -0.2098  0.1036
  543loPI   C3B 8687   6.234   8.860   7.356 -0.4272 -0.0078  0.2288
  543loPI   C4B 8688   6.054   8.684   7.102 -0.0513 -0.0440  0.0174
  544loPI    C1 8689   4.975   2.282   9.505 -0.1661 -0.2935  0.1741
  544loPI    C2 8690   4.976   2.391   9.889  0.1401  0.1901  0.0448
  544loPI    C3 8691   5.322   2.353   9.691 -0.0192  0.0373 -0.2093
  544loPI   PO4 8692   4.803   2.507   9.450  0.3899 -0.1072  0.1375
  544loPI   GL1 8693   4.591   2.602   9.087  0.2730 -0.0690 -0.2358
  544loPI   GL2 8694   4.750   2.367   9.008 -0.4317 -0.1879  0.0483
  544loPI   C1A 8695   4.393   2.639   8.695  0.0640  0.4037  0.2292
  544loPI   C2A 8696   4.233   2.717   8.271 -0.0487  0.0578  0.0051
  544loPI   C3A 8697   4.349   2.780   7.956  0.1137  0.2843 -0.0603
  544loPI   C4A 8698   4.529   2.873   7.675  0.3229 -0.3019 -0.2900
  544loPI   C5A 8699   4.538   3.116   7.310  0.0180 -0.1001 -0.0682
  544loPI   C6A 8700   4.725   2.864   6.866  0.0093  0.2457 -0.1782
  544loPI   C1B 8701   4.772   2.375   8.588 -0.4038 -0.1590 -0.2191
  544loPI   C2B 8702   4.621   2.330   8.135  0.1585 -0.0990  0.1295
  544loPI   C3B 8703   4.417   2.331   7.670  0.0299  0.1106 -0.1766
  544loPI   C4B 8704   4.270   2.447   7.263  0.1649 -0.1333  0.1853
  545loPI    C1 8705  17.099   8.049   9.944 -0.5541 -0.1969 -0.0183
  545loPI    C2 8706  17.126   7.706  10.148 -0.1144 -0.1239  0.0573
  545loPI    C3 8707  17.317   8.032  10.279 -0.0390 -0.0072 -0.3318
  545loPI   PO4 8708  17.201   7.910   9.634  0.1075  0.0079  0.0598
  545loPI   GL1 8709  17.392   8.242   9.318  0.2140  0.0763 -0.0349
  545loPI   GL2 8710  17.343   7.989   9.096  0.0092 -0.0394  0.0641
  545loPI   C1A 8711  17.425   8.593   8.976  0.0760 -0.0268 -0.1054
  545loPI   C2A 8712  17.510   8.594   8.564  0.2578  0.0479  0.2538
  545loPI   C3A 8713  17.498   8.660   8.112  0.0073  0.2688 -0.1546
  545loPI   C4A 8714  17.561   8.728   7.685  0.0367 -0.2984 -0.1937
  545loPI   C5A 8715  17.347   8.956   7.374 -0.1195 -0.3005 -0.1897
  545loPI   C6A 8716  17.257   8.756   7.001 -0.0220 -0.1101  0.0581
  545loPI   C1B 8717  17.297   7.829   8.672  0.1427 -0.0928  0.1192
  545loPI   C2B 8718  17.302   7.780   8.216  0.0321 -0.0229  0.2788
  545loPI   C3B 8719  17.246   7.842   7.845 -0.2726 -0.2826 -0.3477
  545loPI   C4B 8720  17.603   7.678   7.500  0.0192  0.0376  0.1265
  546loPI    C1 8721   9.183  13.357  10.125  0.0568 -0.0346 -0.0131
  546loPI    C2 8722   9.303  13.675  10.336  0.0645 -0.0796  0.0505
  546loPI    C3 8723   9.101  13.380  10.516  0.0954 -0.1312  0.0011
  546loPI   PO4 8724   9.082  13.415   9.875  0.0823 -0.1373  0.4921
  546loPI   GL1 8725   8.647  13.589   9.704  0.0716 -0.1845 -0.2241
  546loPI   GL2 8726   8.337  13.447   9.581  0.2391 -0.3792 -0.1369
  546loPI   C1A 8727   8.590  13.593   9.204 -0.0846 -0.3879  0.0983
  546loPI   C2A 8728   8.398  13.555   8.847  0.1239 -0.1674  0.2454
  546loPI   C3A 8729   8.311  13.668   8.429 -0.0259 -0.3540  0.2260
  546loPI   C4A 8730   8.588  13.870   8.096 -0.1190  0.0062  0.3725
  546loPI   C5A 8731   8.507  14.170   7.715  0.0226 -0.3029 -0.0229
  546loPI   C6A 8732   8.453  14.101   7.262 -0.2342 -0.0061 -0.2112
  546loPI   C1B 8733   8.109  13.408   9.249  0.2456 -0.0485 -0.0367
  546loPI   C2B 8734   8.144  12.987   9.019 -0.0365  0.1391  0.1103
  546loPI   C3B 8735   8.268  12.965   8.592 -0.3282  0.6103  0.0719
  546loPI   C4B 8736   8.358  12.966   8.131 -0.2037  0.1122 -0.0544
  547loPI    C1 8737  17.329   6.507  10.105 -0.1919  0.0563  0.0376
  547loPI    C2 8738  17.287   6.132  10.237  0.0762  0.0417  0.0859
  547loPI    C3 8739  17.125   6.434  10.441 -0.0617 -0.0391  0.0968
  547loPI   PO4 8740  17.627   6.447  10.049 -0.0558  0.1327 -0.2163
  547loPI   GL1 8741  17.972   6.241   9.708 -0.0222 -0.2437 -0.4006
  547loPI   GL2 8742  18.071   6.408   9.473 -0.1125  0.4519  0.2583
  547loPI   C1A 8743  17.690   6.066   9.393 -0.0212 -0.2683  0.0108
  547loPI   C2A 8744  17.795   5.761   9.033  0.4628 -0.0869 -0.2145
  547loPI   C3A 8745  17.942   5.716   8.624  0.2503 -0.2811 -0.0562
  547loPI   C4A 8746  18.124   5.235   8.449 -0.1621  0.4613 -0.1714
  547loPI   C5A 8747  18.089   4.987   8.124  0.2229  0.0245  0.1021
  547loPI   C6A 8748  18.028   4.854   7.738  0.0728  0.1261  0.1885
  547loPI   C1B 8749  17.908   6.338   9.011  0.1036  0.2550 -0.3207
  547loPI   C2B 8750  17.954   6.230   8.614 -0.1573 -0.0350  0.1774
  547loPI   C3B 8751  18.186   6.201   8.289 -0.4087 -0.1987 -0.4185
  547loPI   C4B 8752  18.311   6.244   7.949  0.0733  0.0592  0.3139
  548loPI    C1 8753  16.634   4.916   9.760 -0.2838 -0.0871 -0.2170
  548loPI    C2 8754  16.444   4.928  10.112 -0.0764  0.1179 -0.1093
  548loPI    C3 8755  16.558   4.577   9.957 -0.4697 -0.0013 -0.1385
  548loPI   PO4 8756  16.513   5.209   9.572  0.0905  0.1397  0.0610
  548loPI   GL1 8757  16.629   5.452   9.103 -0.2775 -0.1871 -0.2995
  548loPI   GL2 8758  16.890   5.636   9.218  0.2436 -0.5108  0.2623
  548loPI   C1A 8759  16.735   5.514   8.731 -0.1456  0.2677  0.5092
  548loPI   C2A 8760  16.728   5.537   8.368 -0.2826  0.0133 -0.0307
  548loPI   C3A 8761  16.521   5.612   7.944 -0.3646 -0.1976 -0.3438
  548loPI   C4A 8762  16.092   5.824   7.666 -0.1551  0.1523  0.0962
  548loPI   C5A 8763  15.621   5.792   7.660  0.0396 -0.1305 -0.0232
  548loPI   C6A 8764  15.209   5.719   7.738 -0.0592  0.2250  0.0081
  548loPI   C1B 8765  17.176   5.690   8.963 -0.2311  0.0507  0.0173
  548loPI   C2B 8766  17.149   5.832   8.489  0.1117 -0.1558  0.3431
  548loPI   C3B 8767  16.867   5.936   8.119  0.2918 -0.0427  0.1928
  548loPI   C4B 8768  16.530   6.161   7.832 -0.0119 -0.2362  0.0429
  549loPI    C1 8769  15.080  18.077  10.169  0.1975 -0.1144  0.1190
  549loPI    C2 8770  14.879  17.733  10.131  0.0572 -0.0274  0.0641
  549loPI    C3 8771  14.723  18.034  10.344  0.3174 -0.1034  0.3709
  549loPI   PO4 8772  15.152  18.045   9.884 -0.2089  0.0741 -0.1216
  549loPI   GL1 8773  14.903  18.096   9.490 -0.4967  0.1499  0.2440
  549loPI   GL2 8774  15.116  18.360   9.430  0.2549 -0.2022 -0.0107
  549loPI   C1A 8775  15.199  17.816   9.285 -0.1392 -0.3737 -0.3180
  549loPI   C2A 8776  15.637  17.855   9.167  0.1162  0.0016 -0.1669
  549loPI   C3A 8777  15.762  18.204   9.040 -0.1066 -0.0511  0.1171
  549loPI   C4A 8778  15.927  18.241   8.746  0.0768 -0.0522  0.2294
  549loPI   C5A 8779  15.747  18.190   8.244  0.4710 -0.0084 -0.1281
  549loPI   C6A 8780  15.630  18.201   7.783 -0.2551 -0.3797  0.0027
  549loPI   C1B 8781  15.253  18.402   8.990  0.1066 -0.0026  0.0145
  549loPI   C2B 8782  15.436  18.458   8.651 -0.4125 -0.0334  0.0628
  549loPI   C3B 8783  15.307  18.562   8.178  0.1014  0.0398 -0.0161
  549loPI   C4B 8784  14.927  18.683   8.052 -0.0268  0.2509 -0.3202
  550loPI    C1 8785  12.039   0.399   9.956 -0.3807 -0.1904  0.1856
  550loPI    C2 8786  12.139   0.087  10.186 -0.1262  0.0891  0.4637
  550loPI    C3 8787  12.314   0.442  10.244 -0.0731  0.1741 -0.1517
  550loPI   PO4 8788  11.943   0.217   9.713  0.0554  0.0948 -0.0960
  550loPI   GL1 8789  11.950   0.051   9.395  0.1139 -0.1959  0.2508
  550loPI   GL2 8790  11.670  -0.039   9.253  0.0026 -0.0531 -0.0233
  550loPI   C1A 8791  12.180  -0.040   8.996 -0.3875  0.4590  0.2714
  550loPI   C2A 8792  12.248  -0.128   8.554 -0.0791  0.0288 -0.4133
  550loPI   C3A 8793  12.186  -0.104   8.130 -0.0620 -0.2727  0.0148
  550loPI   C4A 8794  12.380  -0.021   7.795  0.1192 -0.1036  0.0093
  550loPI   C5A 8795  12.195   0.201   7.448 -0.1906 -0.1460  0.3353
  550loPI   C6A 8796  11.800   0.124   7.361  0.5092  0.1544  0.5341
  550loPI   C1B 8797  11.751  -0.010   8.712  0.2515 -0.2787  0.4898
  550loPI   C2B 8798  11.604  -0.192   8.271 -0.2741 -0.0162 -0.0576
  550loPI   C3B 8799  11.567  -0.416   7.865 -0.0100  0.0287 -0.2548
  550loPI   C4B 8800  11.677  -0.677   7.495  0.0182  0.1030  0.3273
  551loPI    C1 8801  10.483  14.051   9.889 -0.1273  0.2216 -0.2309
  551loPI    C2 8802  10.863  13.954   9.812 -0.1740 -0.2140  0.0506
  551loPI    C3 8803  10.759  14.079  10.177 -0.2707  0.0929 -0.0786
  551loPI   PO4 8804  10.452  14.053   9.552  0.2218  0.1859  0.1334
  551loPI   GL1 8805  10.558  13.861   9.244 -0.0591 -0.1817 -0.2958
  551loPI   GL2 8806  10.319  13.910   9.048 -0.3972  0.5435 -0.0082
  551loPI   C1A 8807  10.945  13.755   8.949  0.1138  0.3258 -0.0809
  551loPI   C2A 8808  11.087  13.682   8.465  0.0032  0.2208 -0.0306
  551loPI   C3A 8809  11.108  13.725   8.095  0.0564  0.1512 -0.2045
  551loPI   C4A 8810  11.408  13.706   7.806  0.0102  0.2266 -0.2104
  551loPI   C5A 8811  11.733  13.561   7.485 -0.1210  0.0579  0.0220
  551loPI   C6A 8812  12.205  13.396   7.568 -0.0364  0.2525 -0.4654
  551loPI   C1B 8813   9.946  13.798   9.009  0.1006  0.0459  0.1924
  551loPI   C2B 8814   9.746  13.484   8.817 -0.0686 -0.0720 -0.1726
  551loPI   C3B 8815   9.806  13.526   8.345 -0.0273  0.0402  0.2348
  551loPI   C4B 8816  10.112  13.612   8.079 -0.4418 -0.1389  0.1783
  552loPI    C1 8817   6.388  16.910   9.890 -0.0637  0.1567 -0.1832
  552loPI    C2 8818   6.512  16.987  10.263  0.0883 -0.1174 -0.1744
  552loPI    C3 8819   6.135  17.067  10.157  0.0513 -0.0153  0.0303
  552loPI   PO4 8820   6.628  16.798   9.764  0.0151 -0.1147  0.2698
  552loPI   GL1 8821   6.756  16.910   9.320  0.1580  0.0217  0.0793
  552loPI   GL2 8822   6.959  16.685   9.426  0.0650 -0.4316  0.1277
  552loPI   C1A 8823   6.700  16.999   8.938  0.1062  0.1083 -0.0673
  552loPI   C2A 8824   6.704  16.854   8.529  0.1224  0.0894 -0.2997
  552loPI   C3A 8825   6.618  16.828   8.110 -0.0521 -0.0157  0.2017
  552loPI   C4A 8826   6.571  16.732   7.633 -0.0887  0.1257 -0.0606
  552loPI   C5A 8827   6.806  16.548   7.322 -0.1012 -0.0757 -0.2514
  552loPI   C6A 8828   6.888  16.315   7.039  0.1287 -0.1305 -0.0495
  552loPI   C1B 8829   6.848  16.569   8.952  0.1205  0.3061  0.2081
  552loPI   C2B 8830   6.880  16.382   8.583 -0.2617 -0.2050  0.1271
  552loPI   C3B 8831   6.755  16.150   8.224  0.1534 -0.2621 -0.4341
  552loPI   C4B 8832   6.429  15.908   8.119  0.0084  0.2226  0.1717
  553loPI    C1 8833  19.004   7.669  10.020  0.0343  0.1654 -0.0296
  553loPI    C2 8834  19.114   8.049  10.085 -0.1585  0.2189 -0.0101
  553loPI    C3 8835  19.040   7.806  10.394  0.0184  0.1482 -0.0218
  553loPI   PO4 8836  18.886   7.778   9.708 -0.0675 -0.1518  0.1523
  553loPI   GL1 8837  18.492   7.874   9.511 -0.3990  0.2702 -0.0123
  553loPI   GL2 8838  18.588   7.643   9.328  0.4809  0.0497 -0.3347
  553loPI   C1A 8839  18.069   7.859   9.316  0.1891 -0.0923  0.0098
  553loPI   C2A 8840  17.798   7.705   8.892 -0.1345 -0.2199  0.0125
  553loPI   C3A 8841  17.831   7.721   8.401 -0.0788 -0.0294 -0.2636
  553loPI   C4A 8842  17.839   7.792   8.007  0.1165 -0.0147 -0.0864
  553loPI   C5A 8843  18.017   8.015   7.708  0.0063  0.1008  0.3454
  553loPI   C6A 8844  17.836   8.046   7.213 -0.0903 -0.0025  0.1517
  553loPI   C1B 8845  18.462   7.838   9.000 -0.0271 -0.0512  0.2245
  553loPI   C2B 8846  18.176   8.042   8.735  0.2193  0.3149 -0.1596
  553loPI   C3B 8847  18.132   8.255   8.347 -0.0230  0.1449 -0.1306
  553loPI   C4B 8848  17.943   8.456   7.992  0.1800 -0.1730 -0.1538
  554loPI    C1 8849   2.930   0.990   9.719 -0.0104  0.1389  0.0762
  554loPI    C2 8850   2.745   1.090  10.059 -0.0429 -0.1226  0.1381
  554loPI    C3 8851   3.141   1.035  10.055  0.0036  0.1962  0.0598
  554loPI   PO4 8852   2.886   1.171   9.570 -0.2501  0.0250  0.1928
  554loPI   GL1 8853   2.768   1.285   9.145 -0.0060  0.0225 -0.0031
  554loPI   GL2 8854   2.661   1.508   9.140  0.2549 -0.3117  0.1868
  554loPI   C1A 8855   2.812   1.160   8.761 -0.2242 -0.1201  0.0382
  554loPI   C2A 8856   2.973   1.373   8.314 -0.2379  0.1524  0.2233
  554loPI   C3A 8857   2.762   1.593   7.900  0.1168 -0.2047  0.0804
  554loPI   C4A 8858   2.706   1.560   7.476  0.3904  0.0077 -0.0057
  554loPI   C5A 8859   2.818   1.406   7.023  0.2711 -0.3772 -0.2211
  554loPI   C6A 8860   2.571   1.109   6.701  0.1471 -0.0378  0.0074
  554loPI   C1B 8861   2.684   1.655   8.617  0.0390 -0.1219  0.0852
  554loPI   C2B 8862   2.701   2.072   8.340  0.2565  0.2645 -0.2568
  554loPI   C3B 8863   2.963   2.181   7.938 -0.1571 -0.1302 -0.1685
  554loPI   C4B 8864   2.770   2.144   7.530 -0.1088 -0.0398 -0.1330
  555loPI    C1 8865   2.217   5.858  10.020 -0.1332  0.1026  0.0274
  555loPI    C2 8866   1.831   5.808  10.112 -0.1300  0.1800  0.0841
  555loPI    C3 8867   2.038   6.107  10.277 -0.0719  0.1992 -0.0229
  555loPI   PO4 8868   2.196   5.819   9.738 -0.1246 -0.3347 -0.2615
  555loPI   GL1 8869   2.165   5.733   9.428 -0.1144 -0.0639  0.1294
  555loPI   GL2 8870   2.146   5.889   9.151  0.1389  0.3239  0.0066
  555loPI   C1A 8871   1.671   5.623   9.219 -0.3616 -0.1494  0.1992
  555loPI   C2A 8872   1.629   5.567   8.729  0.0862 -0.1627  0.1298
  555loPI   C3A 8873   1.799   5.553   8.352 -0.2467 -0.1299 -0.2203
  555loPI   C4A 8874   1.718   5.673   7.873  0.0843 -0.2315 -0.2915
  555loPI   C5A 8875   1.636   5.446   7.547  0.2947 -0.0672 -0.0961
  555loPI   C6A 8876   1.752   5.152   7.234  0.3229  0.2183 -0.0469
  555loPI   C1B 8877   2.173   5.631   8.747  0.2775 -0.0630  0.0844
  555loPI   C2B 8878   2.318   5.627   8.267  0.0594 -0.1000 -0.2871
  555loPI   C3B 8879   2.304   5.873   7.984  0.0037 -0.0426 -0.0478
  555loPI   C4B 8880   2.115   5.895   7.543  0.0350 -0.0636  0.1702
  556loPI    C1 8881  17.193  10.345   9.618  0.0351  0.0121 -0.1392
  556loPI    C2 8882  17.118  10.376  10.009  0.0754  0.3189 -0.1538
  556loPI    C3 8883  17.449  10.540   9.855  0.0911  0.1456 -0.3073
  556loPI   PO4 8884  16.942  10.286   9.527  0.2338  0.0994 -0.2212
  556loPI   GL1 8885  16.972  10.099   9.095  0.1642 -0.1100 -0.1646
  556loPI   GL2 8886  17.453   9.994   9.216  0.0141  0.0173 -0.0586
  556loPI   C1A 8887  16.947   9.945   8.757 -0.3006 -0.2786  0.1276
  556loPI   C2A 8888  16.994  10.013   8.384 -0.1533 -0.2196 -0.0039
  556loPI   C3A 8889  16.898  10.111   7.986 -0.2238  0.1739  0.0891
  556loPI   C4A 8890  17.163   9.994   7.598 -0.0800  0.1957  0.1047
  556loPI   C5A 8891  17.558   9.816   7.374 -0.2295 -0.4295 -0.0406
  556loPI   C6A 8892  17.706   9.400   7.336  0.1747  0.2865 -0.3956
  556loPI   C1B 8893  17.396  10.285   8.762  0.1984 -0.1974  0.5058
  556loPI   C2B 8894  17.455  10.494   8.340  0.3082  0.1978 -0.0434
  556loPI   C3B 8895  17.615  10.585   7.906  0.1323 -0.0079 -0.1387
  556loPI   C4B 8896  17.955  10.648   7.621  0.3861  0.1098 -0.0592
  557loPI    C1 8897  16.692   3.633  10.160 -0.2569 -0.3673 -0.0920
  557loPI    C2 8898  16.351   3.728   9.973 -0.1422  0.0947 -0.0772
  557loPI    C3 8899  16.401   3.823  10.358 -0.0428 -0.0820 -0.0452
  557loPI   PO4 8900  16.888   3.593   9.946 -0.4046  0.1972 -0.2263
  557loPI   GL1 8901  16.947   3.466   9.557  0.1306  0.0038 -0.0145
  557loPI   GL2 8902  17.145   3.533   9.395 -0.0765  0.0017  0.4087
  557loPI   C1A 8903  16.650   3.501   9.188 -0.1312 -0.2655  0.0140
  557loPI   C2A 8904  16.822   3.599   8.784  0.3479 -0.3023 -0.3075
  557loPI   C3A 8905  17.042   3.832   8.559 -0.1933  0.2105 -0.0028
  557loPI   C4A 8906  17.360   3.930   8.189 -0.2031  0.0812 -0.1367
  557loPI   C5A 8907  17.716   4.125   7.861  0.2048  0.0999 -0.0841
  557loPI   C6A 8908  18.064   3.874   7.632 -0.0926 -0.0931 -0.0665
  557loPI   C1B 8909  17.355   3.574   8.982 -0.1871  0.0305 -0.2132
  557loPI   C2B 8910  17.354   3.458   8.476  0.1915 -0.0472  0.0212
  557loPI   C3B 8911  16.989   3.533   8.064  0.1988  0.0275 -0.1232
  557loPI   C4B 8912  16.890   3.747   7.737  0.1668 -0.0362 -0.1122
  558loPI    C1 8913  12.733   6.177  10.219 -0.0314  0.0027  0.0258
  558loPI    C2 8914  12.970   6.020  10.500 -0.0845 -0.0197  0.0581
  558loPI    C3 8915  12.631   6.206  10.604  0.0902  0.3185  0.0376
  558loPI   PO4 8916  12.832   6.298  10.002 -0.2423  0.0080  0.0551
  558loPI   GL1 8917  13.019   6.148   9.679 -0.1238  0.2341 -0.1282
  558loPI   GL2 8918  12.944   6.414   9.353 -0.1593 -0.0673 -0.0996
  558loPI   C1A 8919  13.044   5.783   9.381 -0.0354  0.2856 -0.1475
  558loPI   C2A 8920  12.985   5.668   8.966 -0.1650  0.0113  0.0821
  558loPI   C3A 8921  13.024   5.701   8.522  0.1336  0.2682 -0.0983
  558loPI   C4A 8922  13.093   5.667   8.046 -0.1851  0.1311 -0.2775
  558loPI   C5A 8923  12.902   5.690   7.601  0.2853 -0.4227 -0.3867
  558loPI   C6A 8924  12.453   5.856   7.435  0.2889 -0.1825 -0.2194
  558loPI   C1B 8925  13.307   6.532   9.054  0.0592  0.0780 -0.0875
  558loPI   C2B 8926  13.559   6.455   8.753 -0.3113 -0.3605  0.1749
  558loPI   C3B 8927  13.640   6.671   8.443 -0.1554 -0.1692  0.3068
  558loPI   C4B 8928  13.845   6.880   8.062 -0.1927  0.0076  0.0365
  559loPI    C1 8929   0.950  10.300   9.953 -0.2924 -0.2122 -0.1414
  559loPI    C2 8930   0.884   9.914  10.035 -0.0554 -0.2041  0.1023
  559loPI    C3 8931   0.767  10.196  10.293 -0.1393 -0.1177 -0.0289
  559loPI   PO4 8932   1.197  10.378   9.916  0.0070  0.1017  0.0635
  559loPI   GL1 8933   1.399  10.467   9.586 -0.1643 -0.4917 -0.0188
  559loPI   GL2 8934   1.174  10.746   9.422 -0.1273 -0.3800 -0.2054
  559loPI   C1A 8935   1.691  10.594   9.250  0.1527 -0.2061 -0.0269
  559loPI   C2A 8936   1.742  10.706   8.827 -0.0248  0.1400 -0.0248
  559loPI   C3A 8937   1.505  10.849   8.427 -0.2010  0.1274  0.0286
  559loPI   C4A 8938   1.587  10.974   8.002  0.0501  0.2844  0.1701
  559loPI   C5A 8939   1.635  11.235   7.733  0.0829 -0.1517 -0.2503
  559loPI   C6A 8940   2.013  11.461   7.556 -0.2285  0.0529  0.0574
  559loPI   C1B 8941   1.190  10.532   8.937 -0.3508  0.1060 -0.1594
  559loPI   C2B 8942   1.234  10.468   8.419  0.2678  0.0393 -0.1613
  559loPI   C3B 8943   1.215  10.597   8.010 -0.2314 -0.1493 -0.0977
  559loPI   C4B 8944   1.236  10.811   7.609  0.2614  0.0933  0.0910
  560loPI    C1 8945  12.608  12.888  10.023  0.0098  0.0352 -0.1086
  560loPI    C2 8946  12.480  12.538  10.169 -0.0528 -0.0359 -0.3290
  560loPI    C3 8947  12.711  12.776  10.393 -0.3187 -0.0446 -0.0377
  560loPI   PO4 8948  12.731  12.744   9.772 -0.0913 -0.1531 -0.3375
  560loPI   GL1 8949  12.950  12.899   9.418 -0.2422 -0.1930 -0.0774
  560loPI   GL2 8950  13.171  13.042   9.431  0.1466 -0.2136 -0.2494
  560loPI   C1A 8951  12.894  13.023   9.052 -0.0155 -0.0102  0.2339
  560loPI   C2A 8952  12.793  13.089   8.577 -0.0342  0.1582  0.1879
  560loPI   C3A 8953  12.758  12.901   8.202  0.0615  0.1026 -0.0684
  560loPI   C4A 8954  12.817  12.832   7.839  0.0261  0.2822 -0.2573
  560loPI   C5A 8955  13.046  12.767   7.406 -0.0017  0.2059 -0.0733
  560loPI   C6A 8956  13.180  12.822   6.972 -0.1453  0.0401 -0.2917
  560loPI   C1B 8957  13.303  12.731   9.048  0.2316  0.3008 -0.2489
  560loPI   C2B 8958  13.097  12.716   8.665 -0.0767  0.0705  0.0269
  560loPI   C3B 8959  13.213  12.658   8.255 -0.2727  0.0292  0.1450
  560loPI   C4B 8960  13.234  12.375   7.864 -0.2471 -0.1373 -0.1903
  561loPI    C1 8961   8.993  16.309  10.160 -0.0740 -0.1213 -0.1558
  561loPI    C2 8962   8.717  16.024  10.114 -0.2524  0.0707 -0.2949
  561loPI    C3 8963   8.626  16.361  10.309 -0.0789  0.0843 -0.2358
  561loPI   PO4 8964   9.126  16.284   9.828  0.2703  0.0692 -0.1892
  561loPI   GL1 8965   8.856  16.238   9.496 -0.0651  0.2626  0.0606
  561loPI   GL2 8966   8.653  16.129   9.582  0.4414  0.0628  0.0017
  561loPI   C1A 8967   8.821  16.122   9.046  0.0463 -0.1220 -0.1540
  561loPI   C2A 8968   8.812  15.751   8.699  0.4504  0.1381 -0.0222
  561loPI   C3A 8969   8.684  15.715   8.285  0.2340 -0.1542 -0.3702
  561loPI   C4A 8970   8.475  15.702   7.910 -0.1377  0.0533 -0.1173
  561loPI   C5A 8971   8.589  15.790   7.472  0.0974  0.1038  0.0943
  561loPI   C6A 8972   8.729  15.852   7.055  0.1977  0.0937 -0.0695
  561loPI   C1B 8973   8.411  15.849   9.303  0.1548 -0.0816  0.1209
  561loPI   C2B 8974   8.336  15.878   8.873  0.2490 -0.0285 -0.1695
  561loPI   C3B 8975   8.264  15.986   8.569  0.1950 -0.2200  0.1553
  561loPI   C4B 8976   8.310  16.107   8.125 -0.0686  0.0187 -0.2590
  562loPI    C1 8977   9.697  13.375  10.079  0.2328  0.1653  0.1352
  562loPI    C2 8978   9.722  12.999  10.214  0.3507  0.1605  0.1004
  562loPI    C3 8979   9.673  13.301  10.472 -0.0080  0.0985  0.1098
  562loPI   PO4 8980   9.616  13.408   9.845  0.1037  0.0701 -0.0538
  562loPI   GL1 8981   9.407  13.618   9.465  0.3027 -0.2130  0.3583
  562loPI   GL2 8982   9.051  13.565   9.315 -0.2446 -0.1999 -0.0397
  562loPI   C1A 8983   9.453  13.862   9.044  0.2533 -0.0879 -0.1854
  562loPI   C2A 8984   9.668  13.975   8.614 -0.0912  0.1408 -0.2159
  562loPI   C3A 8985   9.753  14.098   8.242 -0.3198 -0.0883 -0.0060
  562loPI   C4A 8986   9.536  13.854   7.975  0.0628  0.0773  0.0015
  562loPI   C5A 8987   9.414  13.796   7.536 -0.1430  0.0824  0.0396
  562loPI   C6A 8988   9.296  13.468   7.259 -0.3921  0.2651  0.0304
  562loPI   C1B 8989   9.097  13.441   8.881  0.1782 -0.1492  0.1135
  562loPI   C2B 8990   9.359  13.521   8.488 -0.2193 -0.1796 -0.1214
  562loPI   C3B 8991   9.189  13.418   8.163  0.1924  0.0809  0.3340
  562loPI   C4B 8992   9.234  13.370   7.727 -0.0251 -0.1119  0.2306
  563loPI    C1 8993   9.865  15.229   9.799 -0.2528  0.0586 -0.0727
  563loPI    C2 8994   9.790  15.096   9.429 -0.3558  0.0226 -0.0393
  563loPI    C3 8995  10.135  15.002   9.609 -0.2852  0.0790 -0.1436
  563loPI   PO4 8996   9.774  15.464   9.786  0.4232  0.1193 -0.0911
  563loPI   GL1 8997   9.557  15.562   9.471 -0.2645 -0.2233 -0.0429
  563loPI   GL2 8998   9.272  15.547   9.506 -0.0092  0.2447  0.1330
  563loPI   C1A 8999   9.532  15.289   9.079  0.0684 -0.0381  0.2326
  563loPI   C2A 9000   9.151  15.175   8.736  0.4328 -0.0814  0.1715
  563loPI   C3A 9001   8.916  15.281   8.442 -0.4574 -0.2237 -0.1998
  563loPI   C4A 9002   8.647  15.198   8.130 -0.2549 -0.1562  0.2086
  563loPI   C5A 9003   8.269  15.180   7.885 -0.1197  0.1332 -0.0567
  563loPI   C6A 9004   7.924  14.862   8.046  0.0306  0.0270  0.4271
  563loPI   C1B 9005   9.307  15.744   9.079  0.0412  0.5040  0.0239
  563loPI   C2B 9006   9.304  15.597   8.644  0.1514 -0.3160 -0.1518
  563loPI   C3B 9007   9.196  15.705   8.320  0.2850  0.0840  0.0365
  563loPI   C4B 9008   9.048  15.455   8.012 -0.2880 -0.0544 -0.0120
  564loPI    C1 9009   4.416   2.179   9.457  0.2069  0.3977 -0.0544
  564loPI    C2 9010   4.087   2.207   9.682  0.0976 -0.0868 -0.1417
  564loPI    C3 9011   4.442   2.313   9.833 -0.0184 -0.1009  0.1479
  564loPI   PO4 9012   4.361   2.002   9.289 -0.0551 -0.1221  0.2550
  564loPI   GL1 9013   4.487   1.991   8.821  0.1121  0.1391 -0.0687
  564loPI   GL2 9014   4.152   1.762   8.895  0.1610  0.0992  0.1521
  564loPI   C1A 9015   4.248   2.194   8.511 -0.0192 -0.2398  0.0009
  564loPI   C2A 9016   4.140   2.222   8.085  0.2281 -0.0085 -0.0414
  564loPI   C3A 9017   3.984   2.142   7.768 -0.1077 -0.0932 -0.2245
  564loPI   C4A 9018   3.826   2.407   7.506 -0.0448 -0.3265 -0.4279
  564loPI   C5A 9019   3.496   2.732   7.392 -0.0253  0.1501  0.1197
  564loPI   C6A 9020   3.207   2.988   7.206 -0.0402 -0.3182 -0.2875
  564loPI   C1B 9021   3.987   1.731   8.432  0.0185  0.1922 -0.3033
  564loPI   C2B 9022   3.755   1.774   7.981  0.2842  0.0304 -0.5363
  564loPI   C3B 9023   3.688   1.773   7.532 -0.2872  0.1681  0.1911
  564loPI   C4B 9024   3.675   1.430   7.229 -0.1259 -0.0009  0.1027
  565loPI    C1 9025   2.036   3.836   9.881 -0.2036 -0.0886  0.2555
  565loPI    C2 9026   2.022   3.444   9.960  0.2990 -0.1107  0.2672
  565loPI    C3 9027   2.375   3.629   9.926  0.0732  0.2708 -0.1034
  565loPI   PO4 9028   1.904   3.861   9.709  0.1025  0.0412 -0.0436
  565loPI   GL1 9029   2.114   3.996   9.301 -0.0179 -0.2230 -0.2288
  565loPI   GL2 9030   2.087   4.282   9.171 -0.0664 -0.0968 -0.0582
  565loPI   C1A 9031   2.050   3.631   9.075 -0.1642  0.1652 -0.1535
  565loPI   C2A 9032   2.269   3.348   8.708 -0.0402 -0.3488  0.1280
  565loPI   C3A 9033   2.020   3.091   8.330  0.0900 -0.0758  0.0483
  565loPI   C4A 9034   1.943   2.928   7.913 -0.1101  0.4901  0.1531
  565loPI   C5A 9035   1.978   2.712   7.511  0.1186 -0.2020  0.1744
  565loPI   C6A 9036   2.022   2.688   7.079 -0.2426 -0.1645 -0.0386
  565loPI   C1B 9037   2.074   4.217   8.670  0.0933 -0.0604  0.0905
  565loPI   C2B 9038   1.885   4.031   8.237  0.3356  0.1782 -0.2712
  565loPI   C3B 9039   1.628   3.836   8.022 -0.2693  0.1844 -0.1663
  565loPI   C4B 9040   1.712   3.716   7.622  0.1194  0.0082  0.2939
  566loPI    C1 9041  11.853   1.516   9.563 -0.0099  0.0540  0.1941
  566loPI    C2 9042  12.132   1.232   9.523  0.1916  0.2701  0.0316
  566loPI    C3 9043  12.160   1.500   9.819 -0.1086  0.0032  0.3102
  566loPI   PO4 9044  11.835   1.626   9.346 -0.1144 -0.2215  0.0714
  566loPI   GL1 9045  11.873   1.782   8.995 -0.3662 -0.2969  0.0089
  566loPI   GL2 9046  12.141   1.868   8.907 -0.1233 -0.0982  0.2676
  566loPI   C1A 9047  11.617   1.803   8.662 -0.1085 -0.1500  0.0556
  566loPI   C2A 9048  11.351   1.579   8.322 -0.0983 -0.1600  0.0128
  566loPI   C3A 9049  11.135   1.440   7.875  0.0733 -0.2984 -0.2058
  566loPI   C4A 9050  11.236   1.462   7.527  0.3413 -0.0830 -0.0652
  566loPI   C5A 9051  11.440   1.314   7.105  0.0072 -0.0868 -0.2391
  566loPI   C6A 9052  11.370   1.007   6.739 -0.1858 -0.0678 -0.1205
  566loPI   C1B 9053  12.077   1.792   8.449  0.4088  0.2411 -0.2309
  566loPI   C2B 9054  12.170   1.777   8.099 -0.0070  0.1978 -0.0084
  566loPI   C3B 9055  12.016   1.902   7.822 -0.2057 -0.2190  0.2412
  566loPI   C4B 9056  11.747   1.705   7.441 -0.0817 -0.3335 -0.0549
  567loPI    C1 9057   0.193   9.121  10.189  0.0459  0.1891 -0.0791
  567loPI    C2 9058   0.408   9.025  10.513 -0.0594  0.1579 -0.0183
  567loPI    C3 9059   0.020   9.115  10.549 -0.0419  0.2770 -0.1194
  567loPI   PO4 9060   0.314   8.982   9.979  0.1823 -0.2003 -0.1631
  567loPI   GL1 9061   0.276   9.068   9.622  0.1553 -0.2378  0.0364
  567loPI   GL2 9062   0.502   9.324   9.598  0.0277 -0.0189  0.1712
  567loPI   C1A 9063   0.116   9.183   9.206  0.0321  0.0706  0.1425
  567loPI   C2A 9064   0.157   9.280   8.796  0.1935 -0.1427  0.1591
  567loPI   C3A 9065   0.380   9.181   8.385 -0.0560  0.1221  0.0060
  567loPI   C4A 9066   0.375   9.110   7.936  0.3075  0.0996  0.0880
  567loPI   C5A 9067   0.522   9.035   7.458 -0.1804  0.2034 -0.0820
  567loPI   C6A 9068   0.765   8.649   7.330  0.1314 -0.4219 -0.2205
  567loPI   C1B 9069   0.541   9.502   9.266  0.0159 -0.2294  0.2999
  567loPI   C2B 9070   0.637   9.388   8.921 -0.0725 -0.1455  0.1090
  567loPI   C3B 9071   0.670   9.504   8.634 -0.1405  0.0794 -0.1043
  567loPI   C4B 9072   0.723   9.664   8.277  0.0854 -0.1656 -0.0316
  568loPI    C1 9073   0.438  10.265   9.950 -0.1370  0.0546 -0.0644
  568loPI    C2 9074   0.153  10.542   9.996 -0.0009  0.1838  0.0075
  568loPI    C3 9075   0.249  10.301  10.301 -0.0829  0.0912 -0.0391
  568loPI   PO4 9076   0.467  10.252   9.718  0.0744 -0.2432 -0.0041
  568loPI   GL1 9077   0.545  10.508   9.343  0.1750 -0.0446  0.0788
  568loPI   GL2 9078   0.801  10.676   9.152  0.2279 -0.1271 -0.3874
  568loPI   C1A 9079   0.343  10.280   9.092 -0.1035  0.0493  0.2491
  568loPI   C2A 9080  -0.061  10.267   8.784  0.0338 -0.0417  0.0731
  568loPI   C3A 9081  -0.096  10.428   8.325  0.1791  0.2081 -0.3591
  568loPI   C4A 9082  -0.118  10.226   7.929  0.1069 -0.0276  0.1148
  568loPI   C5A 9083   0.030  10.377   7.621 -0.2859  0.2083 -0.1917
  568loPI   C6A 9084   0.425  10.221   7.392  0.0143 -0.2432 -0.1669
  568loPI   C1B 9085   0.775  10.764   8.695  0.1669  0.1532  0.3991
  568loPI   C2B 9086   0.735  10.712   8.275 -0.0405 -0.0289  0.1315
  568loPI   C3B 9087   0.466  10.550   7.858 -0.0348  0.0086 -0.3216
  568loPI   C4B 9088   0.396  10.159   7.917 -0.0473  0.0122  0.0427
  569loPI    C1 9089  14.795  18.932  10.046 -0.1294  0.1779 -0.5378
  569loPI    C2 9090  14.891  19.302  10.166  0.3545 -0.1825  0.2758
  569loPI    C3 9091  15.165  19.073   9.985  0.2124 -0.3177  0.2297
  569loPI   PO4 9092  14.572  18.866  10.013  0.1718  0.4553 -0.1914
  569loPI   GL1 9093  14.382  18.843   9.704 -0.1593  0.1863 -0.0517
  569loPI   GL2 9094  14.306  18.526   9.648  0.2589  0.1029  0.3141
  569loPI   C1A 9095  14.180  18.920   9.333 -0.0615  0.0225  0.1418
  569loPI   C2A 9096  13.919  18.899   8.986 -0.1780  0.0672 -0.2371
  569loPI   C3A 9097  13.742  19.040   8.558 -0.3108  0.0449  0.1290
  569loPI   C4A 9098  14.000  19.144   8.190  0.1131 -0.2871 -0.0719
  569loPI   C5A 9099  14.285  19.031   7.931 -0.0803 -0.0437  0.2610
  569loPI   C6A 9100  14.462  18.835   7.699 -0.1684 -0.0287 -0.1731
  569loPI   C1B 9101  13.948  18.448   9.296  0.2688 -0.1230  0.0496
  569loPI   C2B 9102  13.962  18.080   8.988  0.0324  0.2673  0.0988
  569loPI   C3B 9103  14.135  17.821   8.715  0.0397  0.3724  0.2085
  569loPI   C4B 9104  14.469  18.041   8.594 -0.0174  0.0108 -0.2913
  570loPI    C1 9105  12.374   8.835   9.675 -0.1345  0.0509  0.1103
  570loPI    C2 9106  12.387   8.938  10.061  0.0620 -0.3581  0.2187
  570loPI    C3 9107  12.276   8.568   9.956 -0.0272 -0.2390 -0.1216
  570loPI   PO4 9108  12.667   9.000   9.643  0.3835  0.2281  0.2432
  570loPI   GL1 9109  12.738   9.117   9.247 -0.0197 -0.5021  0.0794
  570loPI   GL2 9110  12.959   8.851   9.105 -0.2831 -0.0490  0.1154
  570loPI   C1A 9111  12.816   9.166   8.822 -0.0920 -0.0887 -0.1442
  570loPI   C2A 9112  13.065   9.330   8.406 -0.1706  0.1314  0.2301
  570loPI   C3A 9113  13.238   9.118   8.019 -0.0569  0.0038 -0.0208
  570loPI   C4A 9114  13.311   8.861   7.691  0.1495  0.1275 -0.1971
  570loPI   C5A 9115  13.465   8.785   7.362 -0.0186  0.0810 -0.1010
  570loPI   C6A 9116  13.839   8.624   7.227  0.1214 -0.0978 -0.3647
  570loPI   C1B 9117  12.878   8.718   8.646 -0.4532  0.0893 -0.2479
  570loPI   C2B 9118  12.778   8.932   8.289  0.1485 -0.2434  0.1670
  570loPI   C3B 9119  12.720   9.047   7.827 -0.5136 -0.1607 -0.0393
  570loPI   C4B 9120  12.680   9.246   7.342  0.2111 -0.1330 -0.0689
  571loPI    C1 9121  12.704   2.065   9.648  0.2621 -0.0543  0.2043
  571loPI    C2 9122  12.482   2.222   9.940  0.2252 -0.0915  0.1963
  571loPI    C3 9123  12.503   1.825   9.897 -0.0317 -0.0813 -0.0528
  571loPI   PO4 9124  12.861   2.219   9.505 -0.2000  0.1141  0.3637
  571loPI   GL1 9125  12.961   2.279   9.107  0.1202 -0.0811 -0.0203
  571loPI   GL2 9126  12.812   1.971   8.987  0.3713 -0.3113 -0.1890
  571loPI   C1A 9127  12.864   2.409   8.666  0.4272 -0.1650 -0.1280
  571loPI   C2A 9128  12.894   2.446   8.279 -0.0971  0.0758 -0.1703
  571loPI   C3A 9129  12.918   2.426   7.855 -0.1422  0.0451 -0.0721
  571loPI   C4A 9130  12.624   2.379   7.574 -0.0861 -0.0646  0.2518
  571loPI   C5A 9131  12.554   2.013   7.418 -0.3022  0.1859 -0.0133
  571loPI   C6A 9132  12.556   1.852   7.047  0.0346  0.2532 -0.0146
  571loPI   C1B 9133  12.780   1.660   8.677  0.0771 -0.3304 -0.2359
  571loPI   C2B 9134  12.615   1.545   8.298 -0.1596  0.0142  0.1252
  571loPI   C3B 9135  12.654   1.298   8.014  0.0621  0.2530  0.2304
  571loPI   C4B 9136  12.733   0.962   7.834  0.1852 -0.0892 -0.0795
  572loPI    C1 9137  10.476  10.738   9.858 -0.1080  0.2507  0.2167
  572loPI    C2 9138  10.103  10.876   9.904 -0.2262 -0.0518  0.1909
  572loPI    C3 9139  10.264  10.637  10.182 -0.2201 -0.2897 -0.0136
  572loPI   PO4 9140  10.521  10.620   9.636  0.0354 -0.0213  0.1497
  572loPI   GL1 9141  10.389  10.488   9.158 -0.0264  0.0445 -0.2117
  572loPI   GL2 9142  10.160  10.578   9.043  0.1424  0.1218 -0.1953
  572loPI   C1A 9143  10.412  10.184   8.847  0.0194  0.4265 -0.0267
  572loPI   C2A 9144  10.676  10.026   8.492  0.0326  0.2336  0.0580
  572loPI   C3A 9145  10.804  10.150   8.011  0.2107 -0.0731  0.0888
  572loPI   C4A 9146  10.597  10.361   7.587 -0.0854  0.1536 -0.0548
  572loPI   C5A 9147  10.772  10.687   7.297  0.2880 -0.0333  0.0869
  572loPI   C6A 9148  10.716  10.678   6.900 -0.0557  0.1059  0.1051
  572loPI   C1B 9149  10.347  10.655   8.653 -0.1083 -0.3414  0.0792
  572loPI   C2B 9150  10.208  10.859   8.308 -0.0355  0.2736  0.1377
  572loPI   C3B 9151  10.030  11.050   7.913 -0.0924  0.1203 -0.0995
  572loPI   C4B 9152   9.813  11.313   7.645 -0.0062 -0.0698  0.1157
  573loPI    C1 9153   4.835  14.106  10.243 -0.2779  0.2821 -0.1015
  573loPI    C2 9154   4.533  14.228  10.475 -0.0176  0.2753  0.2495
  573loPI    C3 9155   4.763  13.921  10.590 -0.0160  0.1304 -0.1249
  573loPI   PO4 9156   4.901  14.318  10.125 -0.1223 -0.2861 -0.0201
  573loPI   GL1 9157   4.754  14.312   9.700 -0.0593  0.2968 -0.1213
  573loPI   GL2 9158   4.578  14.538   9.679 -0.1603 -0.4522  0.2050
  573loPI   C1A 9159   4.616  14.234   9.221 -0.1137  0.0325  0.1338
  573loPI   C2A 9160   4.631  14.371   8.724 -0.0698  0.1722  0.0322
  573loPI   C3A 9161   4.782  14.205   8.383 -0.1931 -0.1002 -0.1048
  573loPI   C4A 9162   4.798  13.813   8.204  0.1528  0.0666 -0.0200
  573loPI   C5A 9163   4.765  13.656   7.842 -0.0741  0.3738  0.1303
  573loPI   C6A 9164   4.653  13.528   7.535 -0.3031  0.0296 -0.3702
  573loPI   C1B 9165   4.231  14.299   9.504 -0.3330 -0.0045 -0.2804
  573loPI   C2B 9166   3.924  14.124   9.342  0.1405  0.0785  0.1786
  573loPI   C3B 9167   3.510  14.016   9.211  0.0151  0.1438 -0.2490
  573loPI   C4B 9168   3.136  13.989   9.361  0.1393 -0.0684 -0.2730
  574loPI    C1 9169   4.689   8.584   9.495  0.2104 -0.1413  0.1136
  574loPI    C2 9170   4.516   8.224   9.499  0.0728 -0.0835 -0.2567
  574loPI    C3 9171   4.564   8.426   9.840  0.1672 -0.4575 -0.0430
  574loPI   PO4 9172   4.517   8.624   9.234  0.0332 -0.1011 -0.1938
  574loPI   GL1 9173   4.542   8.612   8.819  0.5341 -0.2387 -0.3827
  574loPI   GL2 9174   4.550   8.955   8.638 -0.0497  0.2827  0.1165
  574loPI   C1A 9175   4.420   8.585   8.386  0.3591  0.2246  0.1233
  574loPI   C2A 9176   4.231   8.582   7.993 -0.0837  0.1650  0.0895
  574loPI   C3A 9177   4.134   8.622   7.556 -0.1263 -0.0742 -0.3663
  574loPI   C4A 9178   3.745   8.912   7.366  0.0504 -0.0277 -0.1156
  574loPI   C5A 9179   3.627   9.259   7.190 -0.0412  0.2555  0.0964
  574loPI   C6A 9180   3.596   9.276   6.731 -0.2326  0.0525 -0.1342
  574loPI   C1B 9181   4.527   9.010   8.175  0.2753  0.3960  0.1042
  574loPI   C2B 9182   4.471   8.952   7.722 -0.0295  0.3706 -0.2655
  574loPI   C3B 9183   4.655   8.939   7.281  0.5025 -0.0249 -0.1112
  574loPI   C4B 9184   4.500   8.796   6.842 -0.0064  0.2755  0.1181
  575loPI    C1 9185  18.524   9.033   9.946 -0.2380 -0.0134  0.0683
  575loPI    C2 9186  18.332   8.774   9.708  0.0344 -0.2510  0.1013
  575loPI    C3 9187  18.172   8.880  10.059 -0.3138  0.0111 -0.1295
  575loPI   PO4 9188  18.751   9.082   9.901 -0.0605 -0.2000 -0.2711
  575loPI   GL1 9189  18.714   9.240   9.440 -0.1271 -0.2847  0.0246
  575loPI   GL2 9190  18.511   9.010   9.300 -0.2211  0.1525  0.2334
  575loPI   C1A 9191  18.973   9.208   9.131 -0.3798 -0.2161  0.1410
  575loPI   C2A 9192  19.172   8.953   8.804 -0.1333  0.3547  0.4276
  575loPI   C3A 9193  19.186   8.852   8.478 -0.1716  0.1830 -0.1003
  575loPI   C4A 9194  19.350   8.919   8.163 -0.2074  0.2298 -0.2381
  575loPI   C5A 9195  19.266   9.089   7.727  0.0278  0.0675 -0.1503
  575loPI   C6A 9196  19.520   9.320   7.447 -0.1745 -0.2859 -0.0594
  575loPI   C1B 9197  18.642   9.011   8.769  0.3490 -0.3465 -0.2374
  575loPI   C2B 9198  18.707   9.247   8.322  0.1204  0.1172  0.1320
  575loPI   C3B 9199  18.844   9.601   8.120 -0.1836 -0.1965 -0.3852
  575loPI   C4B 9200  18.837  10.114   8.148  0.0892  0.4461  0.3878
  576loPI    C1 9201   3.821   4.657   9.796  0.3247 -0.0826  0.0957
  576loPI    C2 9202   3.607   4.782  10.110 -0.1297 -0.0409 -0.2207
  576loPI    C3 9203   3.858   5.033   9.927 -0.1204  0.0375 -0.1016
  576loPI   PO4 9204   3.581   4.521   9.701 -0.3594  0.0614  0.1370
  576loPI   GL1 9205   3.388   4.366   9.318  0.4141 -0.0399  0.2502
  576loPI   GL2 9206   3.623   4.013   9.477  0.0380 -0.4011  0.3520
  576loPI   C1A 9207   3.263   4.517   9.059  0.1006 -0.1950  0.2887
  576loPI   C2A 9208   3.025   4.298   8.660 -0.0104  0.3279 -0.1961
  576loPI   C3A 9209   2.752   4.067   8.381 -0.0868 -0.0759  0.2309
  576loPI   C4A 9210   2.681   3.939   7.990  0.3912 -0.3657 -0.2458
  576loPI   C5A 9211   2.652   3.909   7.580  0.0190  0.1850  0.0694
  576loPI   C6A 9212   2.778   3.997   7.162  0.1827  0.0074  0.1442
  576loPI   C1B 9213   3.602   3.959   8.957 -0.2850  0.1984  0.1664
  576loPI   C2B 9214   3.650   3.756   8.648 -0.0942 -0.0345 -0.5522
  576loPI   C3B 9215   3.690   3.740   8.247  0.1673  0.0695  0.1625
  576loPI   C4B 9216   3.501   3.768   7.760 -0.0468  0.0577 -0.0464
  577loPI    C1 9217  17.769  11.282  10.091 -0.1098  0.1675 -0.2199
  577loPI    C2 9218  17.915  11.085   9.775 -0.2226  0.0028 -0.1707
  577loPI    C3 9219  17.790  10.883  10.097 -0.0416  0.1729  0.0092
  577loPI   PO4 9220  18.023  11.512  10.101  0.1461  0.1183 -0.0394
  577loPI   GL1 9221  18.168  11.816   9.798  0.2391  0.0281 -0.1351
  577loPI   GL2 9222  18.085  11.558   9.615 -0.0024  0.4166  0.2119
  577loPI   C1A 9223  18.035  12.192   9.510 -0.0343  0.4191 -0.1729
  577loPI   C2A 9224  18.022  12.261   9.096 -0.3161  0.5294 -0.0214
  577loPI   C3A 9225  18.195  12.488   8.827 -0.0885  0.3113 -0.0045
  577loPI   C4A 9226  18.371  12.519   8.407 -0.1235  0.0439  0.0147
  577loPI   C5A 9227  18.705  12.616   8.015 -0.2539 -0.0519  0.0998
  577loPI   C6A 9228  18.747  12.369   7.717 -0.1227  0.1995  0.1790
  577loPI   C1B 9229  18.324  11.865   9.325  0.1534 -0.3992 -0.1275
  577loPI   C2B 9230  18.431  11.878   8.846 -0.2108  0.0138  0.1836
  577loPI   C3B 9231  18.216  12.017   8.519  0.2739 -0.2314  0.1696
  577loPI   C4B 9232  18.407  12.172   8.064 -0.2487  0.2382 -0.1731
  578loPI    C1 9233   7.109   0.404   9.606 -0.0527 -0.1040  0.0707
  578loPI    C2 9234   7.159   0.008   9.586 -0.3944 -0.1516  0.1052
  578loPI    C3 9235   6.963   0.169   9.895 -0.1953  0.0522  0.1272
  578loPI   PO4 9236   7.101   0.444   9.233 -0.0533 -0.2337  0.1574
  578loPI   GL1 9237   7.450   0.484   8.909 -0.1725 -0.0982 -0.0260
  578loPI   GL2 9238   7.247   0.181   8.779 -0.1388  0.2266 -0.3046
  578loPI   C1A 9239   7.526   0.743   8.416 -0.0611 -0.3528 -0.2725
  578loPI   C2A 9240   7.642   0.800   8.061 -0.1143  0.1463 -0.1390
  578loPI   C3A 9241   7.562   0.993   7.768 -0.1655 -0.0585  0.0588
  578loPI   C4A 9242   7.387   1.064   7.359 -0.2483 -0.4543 -0.1770
  578loPI   C5A 9243   7.085   0.844   7.149  0.0195  0.0497  0.2281
  578loPI   C6A 9244   6.640   0.785   6.952  0.0040  0.1303  0.1159
  578loPI   C1B 9245   7.194   0.429   8.473 -0.0254 -0.0647 -0.2175
  578loPI   C2B 9246   7.217   0.464   8.056  0.0168 -0.1308 -0.1693
  578loPI   C3B 9247   7.430   0.478   7.763 -0.0421 -0.0252  0.2139
  578loPI   C4B 9248   7.406   0.440   7.312 -0.2412 -0.1831 -0.4038
  579loPI    C1 9249  12.198  13.915   9.888  0.1584  0.0615 -0.1189
  579loPI    C2 9250  12.376  13.844  10.239 -0.0541  0.0346 -0.0150
  579loPI    C3 9251  12.069  13.616  10.121 -0.2010  0.2532 -0.0630
  579loPI   PO4 9252  12.343  14.088   9.761  0.1046 -0.2586 -0.1333
  579loPI   GL1 9253  12.676  14.028   9.457 -0.1929 -0.3836 -0.2282
  579loPI   GL2 9254  12.873  13.704   9.475 -0.0706  0.0108 -0.3006
  579loPI   C1A 9255  12.342  13.854   9.184 -0.1222  0.0165 -0.1090
  579loPI   C2A 9256  12.334  13.491   8.932 -0.2003  0.1550 -0.1223
  579loPI   C3A 9257  12.374  13.328   8.432 -0.1825 -0.0453  0.2402
  579loPI   C4A 9258  12.612  13.321   8.007  0.0236  0.0667 -0.1452
  579loPI   C5A 9259  12.623  13.189   7.572  0.4218  0.4548 -0.3244
  579loPI   C6A 9260  12.694  13.095   7.173  0.0834 -0.1588 -0.1234
  579loPI   C1B 9261  12.833  13.574   9.112 -0.0886  0.0193  0.1210
  579loPI   C2B 9262  13.002  13.502   8.749 -0.2458  0.3914  0.2071
  579loPI   C3B 9263  13.356  13.529   8.504 -0.3355  0.1014  0.1276
  579loPI   C4B 9264  13.728  13.648   8.441 -0.3100 -0.0273  0.0761
  580loPI    C1 9265  10.799   7.685  10.018  0.0433  0.0516  0.2160
  580loPI    C2 9266  10.497   7.602  10.266  0.0442  0.3727  0.3284
  580loPI    C3 9267  10.867   7.474  10.351 -0.0831 -0.1745  0.1011
  580loPI   PO4 9268  10.759   7.635   9.733 -0.0124  0.0593 -0.3472
  580loPI   GL1 9269  10.875   7.731   9.227 -0.2410 -0.0897 -0.1201
  580loPI   GL2 9270  10.703   7.753   9.024  0.0757 -0.1110 -0.1214
  580loPI   C1A 9271  11.062   7.312   9.087 -0.1218  0.1671  0.0869
  580loPI   C2A 9272  11.033   7.114   8.625 -0.1307  0.2099 -0.1635
  580loPI   C3A 9273  10.838   7.127   8.228 -0.1528  0.2703 -0.0148
  580loPI   C4A 9274  10.523   6.925   7.974  0.1637  0.2332  0.1221
  580loPI   C5A 9275  10.491   6.814   7.468  0.1640  0.0019  0.2251
  580loPI   C6A 9276  10.494   6.732   7.117  0.3630 -0.1996 -0.1614
  580loPI   C1B 9277  10.866   7.573   8.631  0.3268  0.1468  0.2544
  580loPI   C2B 9278  10.840   7.851   8.188 -0.2461 -0.2014  0.3246
  580loPI   C3B 9279  10.783   7.858   7.782  0.2220  0.1327  0.2909
  580loPI   C4B 9280  11.200   7.899   7.510 -0.0659 -0.0241  0.0829
  581loPI    C1 9281   4.501  17.242   9.939  0.1822 -0.0207 -0.1560
  581loPI    C2 9282   4.201  17.398  10.152  0.2135  0.0867 -0.1902
  581loPI    C3 9283   4.525  17.255  10.338  0.1232 -0.0690 -0.1506
  581loPI   PO4 9284   4.358  17.112   9.630 -0.1411  0.0475 -0.0689
  581loPI   GL1 9285   4.146  17.399   9.376 -0.2007 -0.0373 -0.1450
  581loPI   GL2 9286   3.926  17.196   9.238 -0.1184  0.2271  0.2871
  581loPI   C1A 9287   3.941  17.657   8.946  0.0152 -0.1671 -0.0465
  581loPI   C2A 9288   4.081  17.632   8.510 -0.0818  0.1060 -0.0381
  581loPI   C3A 9289   4.246  17.536   8.047  0.1214 -0.1457 -0.0626
  581loPI   C4A 9290   4.440  17.523   7.710  0.3551  0.1688 -0.0982
  581loPI   C5A 9291   4.879  17.472   7.574 -0.0266  0.1093 -0.2815
  581loPI   C6A 9292   5.292  17.217   7.399 -0.0456 -0.2976 -0.3112
  581loPI   C1B 9293   3.577  17.258   8.949  0.2097 -0.0017 -0.1174
  581loPI   C2B 9294   3.581  17.392   8.574  0.3651  0.1995 -0.0957
  581loPI   C3B 9295   3.729  17.427   8.124  0.0004 -0.0260 -0.1956
  581loPI   C4B 9296   3.858  17.611   7.658  0.1446 -0.1141  0.0684
  582loPI    C1 9297   3.599  16.804   9.833  0.2379 -0.3275 -0.0011
  582loPI    C2 9298   3.316  16.711  10.099 -0.0235  0.0614 -0.1343
  582loPI    C3 9299   3.701  16.639  10.182 -0.1451 -0.3326  0.1120
  582loPI   PO4 9300   3.541  16.736   9.581 -0.1733  0.2110  0.3954
  582loPI   GL1 9301   3.642  16.762   9.121 -0.1431  0.2542  0.3210
  582loPI   GL2 9302   3.383  16.528   9.124 -0.0559 -0.3895  0.0317
  582loPI   C1A 9303   3.803  16.891   8.767 -0.2080  0.0872  0.0372
  582loPI   C2A 9304   3.985  17.132   8.470  0.0756  0.1919  0.0988
  582loPI   C3A 9305   4.458  17.263   8.434  0.3939  0.1414  0.2377
  582loPI   C4A 9306   4.656  17.184   7.977  0.0770  0.2155 -0.1902
  582loPI   C5A 9307   4.580  17.014   7.659 -0.0794 -0.0283  0.0191
  582loPI   C6A 9308   4.322  16.918   7.333 -0.0286  0.1535  0.3600
  582loPI   C1B 9309   3.371  16.542   8.731  0.3377 -0.4131  0.1529
  582loPI   C2B 9310   3.678  16.502   8.386 -0.0646  0.0408 -0.5970
  582loPI   C3B 9311   3.904  16.238   8.036  0.0584 -0.0956 -0.1133
  582loPI   C4B 9312   3.928  15.992   7.704  0.0465  0.0335 -0.1515
  583loPI    C1 9313   4.426  15.489  10.176 -0.1410 -0.1166  0.1236
  583loPI    C2 9314   4.180  15.178  10.123  0.1085 -0.2701 -0.1693
  583loPI    C3 9315   4.511  15.135  10.343 -0.0897 -0.0796  0.1760
  583loPI   PO4 9316   4.415  15.649   9.871  0.1640 -0.2143  0.0790
  583loPI   GL1 9317   4.434  15.674   9.490 -0.1245 -0.3620 -0.2096
  583loPI   GL2 9318   4.673  15.771   9.344 -0.3902 -0.0493 -0.1339
  583loPI   C1A 9319   4.369  15.454   9.139 -0.1581  0.1561  0.1372
  583loPI   C2A 9320   4.145  15.181   8.957 -0.7494  0.0200  0.0619
  583loPI   C3A 9321   4.161  15.097   8.537  0.1424  0.1237 -0.0693
  583loPI   C4A 9322   4.243  15.170   8.062 -0.1200  0.2640 -0.0848
  583loPI   C5A 9323   4.001  15.496   7.771  0.3940 -0.1667 -0.0257
  583loPI   C6A 9324   3.829  15.587   7.357  0.2526  0.0391  0.4119
  583loPI   C1B 9325   4.803  15.810   8.884  0.2957  0.2671  0.0065
  583loPI   C2B 9326   4.770  15.830   8.456  0.1755  0.2469 -0.1040
  583loPI   C3B 9327   4.989  15.800   8.061  0.2289 -0.2140 -0.0846
  583loPI   C4B 9328   5.266  15.590   7.605  0.0151 -0.0904  0.3372
  584loPI    C1 9329  12.495   4.240   9.958 -0.0109 -0.0881  0.2153
  584loPI    C2 9330  12.675   4.018  10.238 -0.0149 -0.1363  0.1797
  584loPI    C3 9331  12.341   3.886  10.062  0.0344 -0.1449  0.0917
  584loPI   PO4 9332  12.723   4.406   9.808 -0.0959 -0.2393 -0.0306
  584loPI   GL1 9333  12.812   4.357   9.433 -0.0945 -0.0173 -0.4066
  584loPI   GL2 9334  13.144   4.313   9.532 -0.3350 -0.2301  0.1358
  584loPI   C1A 9335  12.591   4.768   9.291 -0.2682 -0.1237 -0.0056
  584loPI   C2A 9336  12.648   5.045   9.093  0.2166  0.2272 -0.2170
  584loPI   C3A 9337  12.700   5.253   8.770 -0.1467 -0.2384  0.3637
  584loPI   C4A 9338  12.835   5.331   8.312 -0.0803  0.0644 -0.0184
  584loPI   C5A 9339  13.144   5.201   7.924 -0.2407 -0.0123  0.1332
  584loPI   C6A 9340  13.341   4.886   7.771 -0.3433 -0.2009  0.0328
  584loPI   C1B 9341  13.100   4.181   9.091  0.2901 -0.0761  0.2902
  584loPI   C2B 9342  13.081   4.233   8.596  0.0856 -0.1933 -0.2410
  584loPI   C3B 9343  12.868   4.041   8.333 -0.1541 -0.0520 -0.0799
  584loPI   C4B 9344  12.725   4.078   7.929  0.0105 -0.1801 -0.0335
  585loPI    C1 9345  18.426  19.333   9.869 -0.1700  0.2331  0.1350
  585loPI    C2 9346  18.438  19.319  10.269 -0.0669 -0.0844  0.1235
  585loPI    C3 9347  18.143  19.135  10.072 -0.0128 -0.0889  0.0458
  585loPI   PO4 9348  18.429  19.549   9.764  0.2271 -0.0809 -0.0900
  585loPI   GL1 9349  18.321  19.620   9.394  0.1139  0.0075 -0.1399
  585loPI   GL2 9350  18.029  19.520   9.270 -0.0207  0.0169 -0.0920
  585loPI   C1A 9351  18.513  19.291   9.175 -0.0041  0.1317  0.1270
  585loPI   C2A 9352  18.451  19.213   8.691 -0.1969 -0.0215 -0.4248
  585loPI   C3A 9353  18.579  19.036   8.279  0.2324 -0.3106 -0.2341
  585loPI   C4A 9354  18.481  18.562   8.118  0.0112 -0.1247  0.0133
  585loPI   C5A 9355  18.272  18.393   7.721 -0.0180 -0.0994 -0.1721
  585loPI   C6A 9356  18.277  18.179   7.509 -0.0292  0.2480 -0.3231
  585loPI   C1B 9357  18.005  19.330   8.877  0.1329 -0.0896 -0.0253
  585loPI   C2B 9358  17.745  19.161   8.526 -0.3830 -0.1375 -0.0217
  585loPI   C3B 9359  17.684  19.199   8.049  0.0529  0.0090 -0.1011
  585loPI   C4B 9360  17.632  19.486   7.729  0.1259  0.1493 -0.0126
  586loPI    C1 9361  10.951  18.482  10.157 -0.3643  0.1666  0.0559
  586loPI    C2 9362  11.032  18.097  10.226  0.0097  0.2279 -0.0229
  586loPI    C3 9363  11.039  18.359  10.528  0.2018  0.2476 -0.0426
  586loPI   PO4 9364  10.998  18.434   9.834 -0.2784  0.3331 -0.3456
  586loPI   GL1 9365  11.361  18.548   9.491 -0.0034  0.2418  0.2785
  586loPI   GL2 9366  11.270  18.216   9.343 -0.2327  0.0409 -0.0135
  586loPI   C1A 9367  11.428  18.641   9.033 -0.0855 -0.1034  0.2432
  586loPI   C2A 9368  11.629  18.565   8.631  0.0503  0.0053  0.0454
  586loPI   C3A 9369  11.648  18.522   8.236 -0.3738  0.0234 -0.0853
  586loPI   C4A 9370  11.810  18.397   7.873  0.1618  0.1842 -0.1076
  586loPI   C5A 9371  11.897  18.205   7.540  0.1607 -0.2741  0.5346
  586loPI   C6A 9372  12.113  18.218   7.211  0.1384  0.2653  0.2219
  586loPI   C1B 9373  11.292  17.902   8.945 -0.1356  0.0700 -0.1241
  586loPI   C2B 9374  11.307  17.760   8.514 -0.1905 -0.0249  0.2228
  586loPI   C3B 9375  11.334  17.632   8.053  0.0947 -0.0098 -0.2691
  586loPI   C4B 9376  11.026  17.355   7.755 -0.0800 -0.1453  0.1079
  587loPI    C1 9377  11.399   3.713   9.901 -0.0216 -0.0440  0.0048
  587loPI    C2 9378  11.397   3.492   9.568  0.1309 -0.1011  0.0405
  587loPI    C3 9379  11.484   3.322   9.919 -0.2568 -0.0900  0.1464
  587loPI   PO4 9380  11.500   3.974   9.744 -0.1371  0.0734  0.2137
  587loPI   GL1 9381  11.549   4.021   9.283  0.0631 -0.3362  0.1561
  587loPI   GL2 9382  11.832   4.200   9.262 -0.3003 -0.0919 -0.0616
  587loPI   C1A 9383  11.468   3.859   8.898 -0.0660 -0.7039 -0.2346
  587loPI   C2A 9384  11.585   3.612   8.584  0.1385 -0.3347 -0.1638
  587loPI   C3A 9385  11.328   3.574   8.217 -0.3767  0.0307  0.0999
  587loPI   C4A 9386  11.289   3.527   7.724  0.1114 -0.1298  0.1671
  587loPI   C5A 9387  11.160   3.275   7.466 -0.1993 -0.1340 -0.3539
  587loPI   C6A 9388  11.159   3.420   7.041  0.0137  0.1009  0.0475
  587loPI   C1B 9389  12.309   4.273   9.100 -0.0172  0.2415 -0.0051
  587loPI   C2B 9390  12.524   4.189   8.724 -0.0782 -0.0394 -0.1777
  587loPI   C3B 9391  12.610   4.429   8.321 -0.0927 -0.0468 -0.1854
  587loPI   C4B 9392  12.817   4.628   8.021  0.2809 -0.1339  0.3591
  588loPI    C1 9393   1.108   8.490   9.925 -0.1920 -0.2737 -0.0200
  588loPI    C2 9394   1.371   8.216  10.053  0.0486 -0.0572 -0.0419
  588loPI    C3 9395   1.259   8.514  10.295  0.1732  0.1084 -0.1855
  588loPI   PO4 9396   0.962   8.391   9.782  0.3236  0.1427  0.0294
  588loPI   GL1 9397   0.961   8.525   9.319 -0.0107  0.2761  0.3106
  588loPI   GL2 9398   1.247   8.743   9.418  0.1336  0.0050  0.0328
  588loPI   C1A 9399   0.764   8.425   8.961 -0.0897 -0.2436  0.1879
  588loPI   C2A 9400   0.823   8.356   8.532 -0.4835  0.1714 -0.1393
  588loPI   C3A 9401   0.746   8.297   8.099  0.0810 -0.1264  0.0986
  588loPI   C4A 9402   0.465   8.320   7.696  0.1937  0.0784  0.0936
  588loPI   C5A 9403   0.326   8.375   7.263  0.0777 -0.1041 -0.0044
  588loPI   C6A 9404   0.425   8.115   7.032 -0.3239 -0.2201 -0.0809
  588loPI   C1B 9405   1.225   8.733   8.941  0.4669  0.2341  0.0940
  588loPI   C2B 9406   1.217   8.731   8.508 -0.1467 -0.1227  0.0138
  588loPI   C3B 9407   1.146   8.581   8.079  0.2125  0.2240 -0.0058
  588loPI   C4B 9408   1.038   8.370   7.678 -0.0630  0.0471 -0.1263
  589loPI    C1 9409  11.259  17.438  10.153  0.1361 -0.0555  0.1350
  589loPI    C2 9410  11.426  17.786  10.260  0.0324 -0.0149  0.1658
  589loPI    C3 9411  11.273  17.544  10.539 -0.0710  0.0049  0.1268
  589loPI   PO4 9412  11.464  17.345   9.986 -0.1061 -0.2772  0.2233
  589loPI   GL1 9413  11.472  17.134   9.505  0.3519  0.1074 -0.2111
  589loPI   GL2 9414  11.327  16.823   9.387  0.2609  0.0209 -0.1521
  589loPI   C1A 9415  11.473  17.227   9.044  0.1096  0.2571  0.0412
  589loPI   C2A 9416  11.639  17.475   8.830  0.2037 -0.1692 -0.1555
  589loPI   C3A 9417  11.761  17.524   8.455 -0.0343 -0.0732 -0.0272
  589loPI   C4A 9418  12.110  17.634   8.285 -0.4631  0.1738 -0.2037
  589loPI   C5A 9419  12.381  17.602   7.954 -0.2162  0.1184 -0.1306
  589loPI   C6A 9420  12.777  17.731   7.814 -0.4022  0.1392  0.0175
  589loPI   C1B 9421  11.207  16.758   8.947 -0.0827 -0.0975  0.1760
  589loPI   C2B 9422  11.141  16.644   8.567  0.1556  0.5032 -0.0224
  589loPI   C3B 9423  11.052  16.642   8.180 -0.1801 -0.0205 -0.1342
  589loPI   C4B 9424  10.810  16.800   7.838 -0.1372 -0.2310  0.3871
  590loPI    C1 9425   1.842   6.852   9.934 -0.1219  0.0954  0.2865
  590loPI    C2 9426   2.074   6.629  10.172  0.2699 -0.0398 -0.2044
  590loPI    C3 9427   2.186   7.000  10.075  0.0421  0.0659 -0.0718
  590loPI   PO4 9428   1.821   6.652   9.659  0.3175 -0.2299  0.0016
  590loPI   GL1 9429   2.022   6.408   9.274  0.3788  0.3382  0.0967
  590loPI   GL2 9430   2.302   6.386   9.312 -0.2417  0.3692 -0.1173
  590loPI   C1A 9431   2.053   6.424   8.839  0.1887  0.4436 -0.1596
  590loPI   C2A 9432   2.212   6.756   8.533  0.4046  0.1144  0.2234
  590loPI   C3A 9433   2.320   6.768   8.180  0.0637  0.3157 -0.2285
  590loPI   C4A 9434   2.394   6.792   7.652 -0.1831  0.0077  0.0992
  590loPI   C5A 9435   2.529   6.431   7.229 -0.1655  0.3214 -0.1068
  590loPI   C6A 9436   2.665   6.440   6.969 -0.0888  0.3208  0.0841
  590loPI   C1B 9437   2.500   6.575   8.890 -0.0707 -0.1399 -0.0131
  590loPI   C2B 9438   2.635   6.993   8.651  0.3380 -0.1236  0.2230
  590loPI   C3B 9439   2.687   7.262   8.341  0.0979 -0.3543  0.0144
  590loPI   C4B 9440   2.882   7.509   8.041 -0.1434  0.1556  0.1915
  591loPI    C1 9441   3.248  11.712   9.857  0.0496 -0.1248 -0.0148
  591loPI    C2 9442   3.116  11.977  10.126  0.1925 -0.1338  0.0654
  591loPI    C3 9443   3.500  11.979  10.016  0.1150 -0.0688 -0.2110
  591loPI   PO4 9444   3.071  11.598   9.673  0.2547 -0.0773 -0.2440
  591loPI   GL1 9445   3.127  11.494   9.245  0.0578 -0.0095 -0.0646
  591loPI   GL2 9446   3.443  11.429   9.203 -0.0066  0.1931 -0.0668
  591loPI   C1A 9447   2.986  11.645   8.917  0.1025  0.0583  0.2847
  591loPI   C2A 9448   2.957  11.575   8.447 -0.1698  0.0773  0.0215
  591loPI   C3A 9449   2.943  11.657   7.977 -0.0676 -0.1903 -0.0530
  591loPI   C4A 9450   2.862  11.801   7.587 -0.0018 -0.2767 -0.3909
  591loPI   C5A 9451   2.807  12.062   7.244  0.3465 -0.0219  0.2211
  591loPI   C6A 9452   2.795  12.532   6.937 -0.3316 -0.0485  0.0635
  591loPI   C1B 9453   3.275  11.235   8.781 -0.0002  0.0987 -0.0153
  591loPI   C2B 9454   3.202  11.182   8.391  0.2054 -0.0377 -0.1171
  591loPI   C3B 9455   2.921  11.061   8.035  0.0550 -0.0342 -0.1058
  591loPI   C4B 9456   2.700  11.195   7.776  0.0707 -0.0852  0.3274
  592loPI    C1 9457  16.768   6.672  10.156 -0.1491  0.0187  0.0444
  592loPI    C2 9458  16.852   6.305  10.020  0.1511  0.0735  0.0766
  592loPI    C3 9459  16.584   6.353  10.312  0.1201 -0.1219  0.0811
  592loPI   PO4 9460  16.886   6.819   9.948  0.1201 -0.0046 -0.2520
  592loPI   GL1 9461  16.897   6.840   9.516 -0.0768 -0.1701  0.0257
  592loPI   GL2 9462  17.098   6.959   9.373  0.3021  0.3514  0.3210
  592loPI   C1A 9463  16.828   6.553   9.167  0.3770 -0.3679  0.1298
  592loPI   C2A 9464  16.985   6.460   8.749 -0.3059  0.0905  0.3590
  592loPI   C3A 9465  17.221   6.363   8.383  0.0770  0.2379 -0.0470
  592loPI   C4A 9466  17.128   6.420   7.974  0.1173 -0.0136  0.1582
  592loPI   C5A 9467  16.792   6.547   7.624  0.2284  0.2394  0.2199
  592loPI   C6A 9468  16.421   6.616   7.335 -0.3343  0.0741 -0.2094
  592loPI   C1B 9469  17.130   6.994   8.937  0.2654 -0.3501 -0.0480
  592loPI   C2B 9470  17.233   6.924   8.417 -0.1800  0.0992  0.2522
  592loPI   C3B 9471  17.402   6.890   8.056 -0.3723  0.0812 -0.1271
  592loPI   C4B 9472  17.527   6.766   7.706 -0.2106 -0.0404  0.0722
  593loPI    C1 9473   7.834  12.561  10.353 -0.1946  0.0429  0.0905
  593loPI    C2 9474   8.207  12.443  10.268 -0.2502  0.0583 -0.1839
  593loPI    C3 9475   8.033  12.327  10.609 -0.0491 -0.0717 -0.1239
  593loPI   PO4 9476   7.816  12.738  10.051  0.3590  0.0253  0.1448
  593loPI   GL1 9477   7.726  12.625   9.633  0.1874  0.4531  0.3699
  593loPI   GL2 9478   7.506  12.495   9.458 -0.4132 -0.1235  0.0098
  593loPI   C1A 9479   7.932  12.462   9.192 -0.0923  0.2997  0.0909
  593loPI   C2A 9480   7.956  12.439   8.715  0.1620 -0.0287 -0.0012
  593loPI   C3A 9481   7.739  12.256   8.351  0.3103  0.0180 -0.1001
  593loPI   C4A 9482   7.640  12.457   7.994 -0.1162  0.4260 -0.3795
  593loPI   C5A 9483   7.595  12.630   7.742  0.0124 -0.4310  0.4840
  593loPI   C6A 9484   7.622  13.033   7.515 -0.3225 -0.2996 -0.0840
  593loPI   C1B 9485   7.389  12.556   8.914 -0.1511  0.2648 -0.0877
  593loPI   C2B 9486   7.291  12.605   8.442 -0.0448 -0.0217  0.0973
  593loPI   C3B 9487   7.099  12.600   8.033  0.0416 -0.0379  0.2016
  593loPI   C4B 9488   7.131  12.793   7.699  0.0551 -0.0567  0.1037
  594loPI    C1 9489   1.137   5.868   9.949  0.2536 -0.2257 -0.1553
  594loPI    C2 9490   0.914   5.539   9.899  0.0123 -0.0501 -0.2547
  594loPI    C3 9491   1.020   5.656  10.267  0.0145 -0.1829 -0.2129
  594loPI   PO4 9492   1.264   5.918   9.735 -0.2482 -0.1146  0.0023
  594loPI   GL1 9493   1.132   5.627   9.503 -0.0681  0.1640 -0.0063
  594loPI   GL2 9494   1.293   5.393   9.499  0.1915  0.1424 -0.7089
  594loPI   C1A 9495   1.176   5.683   9.082  0.1804 -0.0847 -0.0003
  594loPI   C2A 9496   1.346   5.974   8.789 -0.2296  0.1514 -0.0207
  594loPI   C3A 9497   1.187   6.053   8.361  0.1801 -0.2191 -0.3601
  594loPI   C4A 9498   0.985   6.124   7.959  0.2159 -0.0578  0.1659
  594loPI   C5A 9499   1.163   6.199   7.517  0.1364 -0.0553 -0.3193
  594loPI   C6A 9500   1.258   6.310   7.054 -0.0011  0.0237  0.0354
  594loPI   C1B 9501   1.422   5.218   9.130 -0.2112  0.2499 -0.2957
  594loPI   C2B 9502   1.426   5.055   8.627  0.2710  0.1084 -0.0630
  594loPI   C3B 9503   1.412   5.043   8.278  0.0179 -0.2565  0.1223
  594loPI   C4B 9504   1.352   4.740   7.958  0.1399  0.1427  0.1352
  595loPI    C1 9505   5.233   6.730   9.761 -0.1928 -0.0939  0.1561
  595loPI    C2 9506   5.191   7.117   9.851  0.0161 -0.0178 -0.0635
  595loPI    C3 9507   5.534   6.929   9.933 -0.1142 -0.1800  0.1193
  595loPI   PO4 9508   5.136   6.720   9.510 -0.1726  0.0213 -0.0656
  595loPI   GL1 9509   5.015   6.870   9.113  0.2668 -0.0749  0.3802
  595loPI   GL2 9510   4.715   6.691   9.187 -0.0946  0.1115 -0.1282
  595loPI   C1A 9511   4.945   6.768   8.692  0.2556  0.4112 -0.4146
  595loPI   C2A 9512   4.663   6.867   8.256 -0.0365 -0.2307  0.2746
  595loPI   C3A 9513   4.789   7.182   7.942  0.1733 -0.0845 -0.1685
  595loPI   C4A 9514   4.680   7.332   7.496 -0.0063  0.0533  0.0249
  595loPI   C5A 9515   4.829   7.241   6.982  0.4651  0.0277 -0.0012
  595loPI   C6A 9516   5.036   7.168   6.544 -0.0154 -0.3034 -0.2114
  595loPI   C1B 9517   4.487   6.561   8.858  0.0868  0.3998  0.0973
  595loPI   C2B 9518   4.413   6.399   8.428 -0.2058  0.3874  0.3126
  595loPI   C3B 9519   4.617   6.428   8.027 -0.0365  0.0223 -0.1140
  595loPI   C4B 9520   4.945   6.277   7.758 -0.1133 -0.2908  0.2016
  596loPI    C1 9521   3.675  11.917  10.483 -0.3691  0.1604  0.0526
  596loPI    C2 9522   3.634  12.158  10.800  0.1451 -0.0279  0.2743
  596loPI    C3 9523   3.593  11.762  10.843 -0.1821 -0.0266  0.0171
  596loPI   PO4 9524   3.924  11.894  10.309  0.1727  0.2323 -0.1516
  596loPI   GL1 9525   4.126  12.096  10.001  0.4128 -0.1501 -0.3105
  596loPI   GL2 9526   3.847  12.206   9.716 -0.0059  0.0936  0.1082
  596loPI   C1A 9527   4.239  11.888   9.557 -0.1263 -0.4008  0.0361
  596loPI   C2A 9528   4.059  12.009   9.245  0.0790 -0.0401  0.3958
  596loPI   C3A 9529   4.174  12.246   8.882  0.0805  0.1324  0.1888
  596loPI   C4A 9530   4.279  12.643   8.625  0.1698 -0.0236 -0.3443
  596loPI   C5A 9531   4.293  12.891   8.211  0.0558  0.1986 -0.0966
  596loPI   C6A 9532   4.493  12.688   7.908  0.1655  0.0237 -0.0369
  596loPI   C1B 9533   3.643  12.325   9.220 -0.5588 -0.0176 -0.2123
  596loPI   C2B 9534   3.783  12.593   8.842  0.0278 -0.1777  0.1336
  596loPI   C3B 9535   3.856  12.649   8.423  0.1824 -0.1052 -0.5784
  596loPI   C4B 9536   3.767  12.863   8.182 -0.1654  0.0769  0.0951
  597loPI    C1 9537   2.362  19.277  10.028 -0.0519  0.0687 -0.0425
  597loPI    C2 9538   2.747  19.265  10.137 -0.0670 -0.0897 -0.0042
  597loPI    C3 9539   2.528  19.592  10.210  0.1365  0.1154 -0.2901
  597loPI   PO4 9540   2.324  18.947   9.882  0.0730  0.1057  0.0870
  597loPI   GL1 9541   2.407  18.835   9.418  0.1713 -0.4060 -0.1983
  597loPI   GL2 9542   2.186  19.103   9.224 -0.0765  0.0438  0.0164
  597loPI   C1A 9543   2.469  18.664   9.134 -0.0132  0.1725  0.3702
  597loPI   C2A 9544   2.363  18.706   8.690 -0.2163 -0.1619  0.2991
  597loPI   C3A 9545   2.468  18.838   8.285  0.1782 -0.0344  0.0817
  597loPI   C4A 9546   2.352  19.074   7.910 -0.0334 -0.0268  0.3790
  597loPI   C5A 9547   2.387  18.955   7.498  0.1819 -0.0507  0.0171
  597loPI   C6A 9548   2.154  19.234   7.208 -0.2547 -0.1852 -0.3465
  597loPI   C1B 9549   2.174  19.171   8.824  0.1098 -0.1359  0.0809
  597loPI   C2B 9550   2.180  19.396   8.400 -0.0984  0.0165  0.2566
  597loPI   C3B 9551   2.381  19.769   8.220 -0.0376  0.1870 -0.0668
  597loPI   C4B 9552   2.196  20.207   8.348  0.1525  0.2739  0.3879
  598loPI    C1 9553   3.364   0.636   9.912  0.1009 -0.0002  0.0181
  598loPI    C2 9554   3.646   0.352   9.918  0.0413 -0.0619 -0.0866
  598loPI    C3 9555   3.636   0.629  10.206  0.2094 -0.0587 -0.0829
  598loPI   PO4 9556   3.346   0.683   9.627 -0.0742 -0.0201  0.0725
  598loPI   GL1 9557   3.371   0.849   9.302  0.0911 -0.0110 -0.1890
  598loPI   GL2 9558   3.085   0.797   9.211 -0.1214  0.0201 -0.0453
  598loPI   C1A 9559   3.586   0.744   8.958 -0.0755 -0.0507  0.1595
  598loPI   C2A 9560   3.748   0.772   8.615 -0.3356  0.1485  0.1941
  598loPI   C3A 9561   3.687   0.839   8.164 -0.1299  0.1689 -0.2506
  598loPI   C4A 9562   3.563   0.853   7.795 -0.1337 -0.1414 -0.0581
  598loPI   C5A 9563   3.497   0.692   7.451  0.1142  0.1423 -0.2025
  598loPI   C6A 9564   3.679   0.429   7.093 -0.0709  0.0130 -0.1280
  598loPI   C1B 9565   3.085   0.766   8.760 -0.3562  0.1505 -0.3992
  598loPI   C2B 9566   3.189   0.860   8.331  0.1765 -0.1667  0.0345
  598loPI   C3B 9567   3.123   1.058   7.988  0.1190 -0.0510  0.2817
  598loPI   C4B 9568   3.062   1.168   7.544  0.1420  0.1851 -0.0318
  599loPI    C1 9569   0.457  15.348   9.851  0.1934  0.0055  0.0031
  599loPI    C2 9570   0.132  15.148   9.972  0.1396  0.0021 -0.1447
  599loPI    C3 9571   0.289  15.434  10.204 -0.0905  0.1449 -0.1627
  599loPI   PO4 9572   0.359  15.406   9.550 -0.1066 -0.0511  0.1403
  599loPI   GL1 9573   0.376  15.290   9.165  0.1230  0.3354  0.1243
  599loPI   GL2 9574   0.435  14.953   9.183 -0.1843 -0.1755  0.2753
  599loPI   C1A 9575   0.591  15.478   8.801 -0.0616  0.0393  0.1853
  599loPI   C2A 9576   0.643  15.271   8.488  0.5081 -0.1800  0.1067
  599loPI   C3A 9577   0.550  15.100   8.069  0.1742 -0.1443  0.0291
  599loPI   C4A 9578   0.481  14.895   7.787  0.1726 -0.1947  0.3110
  599loPI   C5A 9579   0.729  14.568   7.566 -0.1213 -0.2059  0.0730
  599loPI   C6A 9580   1.154  14.476   7.443  0.1168 -0.2278  0.3254
  599loPI   C1B 9581   0.316  14.996   8.751 -0.0983  0.1375  0.2030
  599loPI   C2B 9582   0.069  15.088   8.398 -0.2479  0.1597 -0.0315
  599loPI   C3B 9583   0.065  15.250   7.953  0.4322  0.1486  0.0193
  599loPI   C4B 9584   0.216  15.549   7.573 -0.0110 -0.1253  0.0317
  600loPI    C1 9585   0.394   0.064   9.493  0.1081  0.1461 -0.0909
  600loPI    C2 9586   0.581  -0.133   9.787  0.2425  0.0059 -0.2681
  600loPI    C3 9587   0.430   0.231   9.855 -0.0381 -0.1677  0.0725
  600loPI   PO4 9588   0.530  -0.015   9.327  0.0868 -0.1010 -0.0593
  600loPI   GL1 9589   0.773   0.096   8.984  0.1892  0.0699 -0.0551
  600loPI   GL2 9590   0.440   0.113   8.869  0.1024 -0.1754  0.0786
  600loPI   C1A 9591   0.833   0.189   8.565 -0.0230  0.0876  0.1679
  600loPI   C2A 9592   0.905   0.202   8.150 -0.1028  0.2757  0.0006
  600loPI   C3A 9593   1.151   0.161   7.767  0.0490 -0.0401  0.0327
  600loPI   C4A 9594   1.129   0.031   7.342 -0.3650 -0.3202 -0.2629
  600loPI   C5A 9595   0.927  -0.286   7.064  0.0340 -0.0164 -0.1749
  600loPI   C6A 9596   0.476  -0.470   6.790  0.0345 -0.1191  0.1934
  600loPI   C1B 9597   0.414   0.218   8.402 -0.2384  0.1460  0.0383
  600loPI   C2B 9598   0.377   0.131   7.934  0.0225 -0.1909  0.1313
  600loPI   C3B 9599   0.631   0.186   7.602 -0.0566 -0.1110 -0.1607
  600loPI   C4B 9600   0.689   0.334   7.153  0.2954  0.0690  0.0879
  601loPI    C1 9601   5.307  16.322  10.159 -0.0848  0.1064 -0.0124
  601loPI    C2 9602   5.073  16.320  10.483 -0.3477  0.3188 -0.1972
  601loPI    C3 9603   5.282  16.648  10.389  0.1069  0.1000  0.0193
  601loPI   PO4 9604   5.136  16.227   9.886  0.0118  0.0565 -0.0639
  601loPI   GL1 9605   5.057  16.029   9.608 -0.0506  0.0658  0.0333
  601loPI   GL2 9606   5.037  15.626   9.623  0.2051 -0.2356  0.2806
  601loPI   C1A 9607   5.127  16.157   9.194  0.1443  0.0713  0.1276
  601loPI   C2A 9608   5.268  16.169   8.747 -0.1012  0.0522  0.0575
  601loPI   C3A 9609   5.386  15.962   8.342  0.2252 -0.1160 -0.4897
  601loPI   C4A 9610   5.334  16.056   7.855  0.2672  0.1327 -0.0369
  601loPI   C5A 9611   5.017  16.063   7.514  0.0834 -0.1058 -0.2739
  601loPI   C6A 9612   4.761  16.224   7.153  0.1802  0.3982 -0.1220
  601loPI   C1B 9613   5.186  15.661   9.207  0.2615  0.2084  0.0462
  601loPI   C2B 9614   5.244  15.648   8.768  0.5254  0.3403  0.1048
  601loPI   C3B 9615   5.227  15.425   8.388 -0.0114 -0.0330  0.2164
  601loPI   C4B 9616   5.280  15.360   8.036  0.0319  0.3434 -0.2130
  602loPI    C1 9617   0.939  17.560   9.963  0.1561  0.2644  0.0686
  602loPI    C2 9618   1.023  17.291   9.679 -0.1619 -0.0735  0.2844
  602loPI    C3 9619   1.081  17.200  10.064  0.1234  0.3265  0.3427
  602loPI   PO4 9620   0.999  17.750   9.915 -0.0583 -0.2853 -0.2344
  602loPI   GL1 9621   1.057  17.901   9.499 -0.0165  0.2077  0.0472
  602loPI   GL2 9622   0.963  17.635   9.280 -0.0376  0.2335  0.0365
  602loPI   C1A 9623   1.150  18.053   9.103  0.2566 -0.0843 -0.2047
  602loPI   C2A 9624   1.222  18.101   8.647  0.2363  0.2117  0.1359
  602loPI   C3A 9625   1.237  18.181   8.151 -0.0647 -0.0734  0.2672
  602loPI   C4A 9626   1.224  18.085   7.705  0.3388 -0.1340  0.0645
  602loPI   C5A 9627   1.443  17.766   7.478  0.2589 -0.3997 -0.1579
  602loPI   C6A 9628   1.706  17.713   7.071  0.1557  0.0990  0.1771
  602loPI   C1B 9629   1.132  17.603   8.924 -0.1312  0.1643  0.1992
  602loPI   C2B 9630   1.048  17.608   8.531  0.0328 -0.1200  0.4045
  602loPI   C3B 9631   0.885  17.642   8.005 -0.1708  0.0514 -0.0092
  602loPI   C4B 9632   0.637  17.739   7.607 -0.2652  0.3514  0.2178
  603loPI    C1 9633  16.386   1.368  10.030  0.2089  0.2000 -0.1015
  603loPI    C2 9634  16.112   1.220  10.281  0.1024  0.1327 -0.2558
  603loPI    C3 9635  16.500   1.139  10.338  0.0927  0.2374 -0.0301
  603loPI   PO4 9636  16.245   1.388   9.763  0.0941  0.3027 -0.0045
  603loPI   GL1 9637  16.190   1.389   9.289  0.1605 -0.0193 -0.1006
  603loPI   GL2 9638  15.950   1.487   9.246 -0.1176 -0.1468 -0.2822
  603loPI   C1A 9639  16.479   1.571   8.950  0.1158  0.1023  0.0001
  603loPI   C2A 9640  16.685   1.831   8.643 -0.1015 -0.0029 -0.0878
  603loPI   C3A 9641  16.922   2.096   8.408  0.0377  0.2429  0.2127
  603loPI   C4A 9642  17.179   2.331   8.210 -0.2172  0.0821 -0.0346
  603loPI   C5A 9643  17.256   2.309   7.725 -0.2738  0.0624  0.1650
  603loPI   C6A 9644  17.126   2.099   7.405 -0.0585  0.0767 -0.2517
  603loPI   C1B 9645  16.000   1.653   8.786 -0.1152  0.2153 -0.5857
  603loPI   C2B 9646  16.104   1.460   8.415  0.2356  0.2323 -0.1863
  603loPI   C3B 9647  16.089   1.319   7.943 -0.1159  0.0225 -0.3934
  603loPI   C4B 9648  16.165   1.425   7.454  0.0726  0.2309 -0.0077
  604loPI    C1 9649   6.066   4.083   9.180  0.1059  0.1729 -0.2739
  604loPI    C2 9650   6.261   4.345   9.410 -0.2198  0.2970 -0.1338
  604loPI    C3 9651   6.181   3.978   9.548 -0.0385  0.2271 -0.2125
  604loPI   PO4 9652   5.889   4.263   9.060 -0.1253  0.0433 -0.1088
  604loPI   GL1 9653   5.778   4.341   8.587  0.3755  0.1955  0.1958
  604loPI   GL2 9654   5.878   4.621   8.683  0.0923  0.0671  0.0714
  604loPI   C1A 9655   5.851   4.312   8.161  0.1069 -0.0156  0.0664
  604loPI   C2A 9656   5.906   4.325   7.791 -0.1362 -0.2580 -0.2952
  604loPI   C3A 9657   5.910   4.482   7.384  0.0181 -0.0421  0.1247
  604loPI   C4A 9658   5.924   4.720   7.061 -0.1844  0.2070  0.1164
  604loPI   C5A 9659   6.227   4.941   6.957 -0.0080 -0.0105  0.2165
  604loPI   C6A 9660   6.347   5.252   6.755  0.1100  0.2133 -0.0269
  604loPI   C1B 9661   6.103   5.065   8.511 -0.0807 -0.1441 -0.1567
  604loPI   C2B 9662   6.281   5.340   8.326  0.1988  0.2728 -0.0961
  604loPI   C3B 9663   6.702   5.493   8.182  0.1792 -0.1365  0.1660
  604loPI   C4B 9664   6.854   5.593   7.807  0.2792  0.0560 -0.1313
  605loPI    C1 9665   8.586  14.497   9.719 -0.0871 -0.0743 -0.0247
  605loPI    C2 9666   8.624  14.099   9.726 -0.0751 -0.0745 -0.0939
  605loPI    C3 9667   8.841  14.325   9.975  0.0312 -0.1028 -0.1603
  605loPI   PO4 9668   8.501  14.499   9.458  0.1943  0.1527  0.2278
  605loPI   GL1 9669   8.112  14.415   9.151  0.0814 -0.2232  0.2401
  605loPI   GL2 9670   8.142  14.035   9.252 -0.0413 -0.2989 -0.1183
  605loPI   C1A 9671   8.307  14.711   8.796 -0.0216 -0.1687  0.0266
  605loPI   C2A 9672   8.310  14.740   8.420  0.0321  0.0347 -0.1037
  605loPI   C3A 9673   8.417  14.746   8.103 -0.2942 -0.5395 -0.0415
  605loPI   C4A 9674   8.586  14.776   7.738  0.2471  0.1086 -0.0671
  605loPI   C5A 9675   8.507  14.927   7.286  0.3117  0.3251  0.2793
  605loPI   C6A 9676   8.248  15.361   7.308 -0.3500 -0.0730  0.2082
  605loPI   C1B 9677   8.370  14.021   8.877  0.1276  0.0063 -0.0506
  605loPI   C2B 9678   8.208  14.183   8.492  0.2286 -0.1931 -0.0734
  605loPI   C3B 9679   8.283  14.296   8.144  0.1835 -0.1074  0.0035
  605loPI   C4B 9680   8.108  14.499   7.754 -0.1100  0.0458 -0.0231
  606loPI    C1 9681  12.608   7.650   9.573  0.2213 -0.0392  0.1219
  606loPI    C2 9682  12.898   7.571   9.837 -0.0300 -0.4979  0.2709
  606loPI    C3 9683  12.559   7.359   9.843 -0.3611  0.0082  0.0792
  606loPI   PO4 9684  12.759   7.663   9.296  0.2234 -0.0339  0.0259
  606loPI   GL1 9685  12.807   7.548   8.986 -0.0842  0.0062 -0.0376
  606loPI   GL2 9686  12.591   7.766   8.787  0.0785 -0.1898  0.0392
  606loPI   C1A 9687  13.070   7.418   8.605 -0.0665 -0.0741 -0.3824
  606loPI   C2A 9688  13.001   7.306   8.186 -0.2247 -0.2574  0.1139
  606loPI   C3A 9689  13.017   7.512   7.742 -0.0110  0.0731 -0.5784
  606loPI   C4A 9690  12.987   7.675   7.284  0.2749 -0.0250 -0.1044
  606loPI   C5A 9691  13.097   7.769   6.833  0.0375  0.0969 -0.0839
  606loPI   C6A 9692  13.212   7.770   6.461 -0.2391 -0.4004 -0.1140
  606loPI   C1B 9693  12.676   7.631   8.429  0.1136  0.0397  0.2293
  606loPI   C2B 9694  12.629   7.617   7.990 -0.0109 -0.2720 -0.1884
  606loPI   C3B 9695  12.555   7.774   7.636 -0.0162  0.4980 -0.0993
  606loPI   C4B 9696  12.482   7.507   7.341 -0.1878 -0.1143 -0.1950
  607loPI    C1 9697  15.384  15.815  10.527  0.0646 -0.0356 -0.0343
  607loPI    C2 9698  15.706  15.943  10.727 -0.0213  0.2253 -0.0596
  607loPI    C3 9699  15.608  15.555  10.733  0.1408  0.1859  0.1667
  607loPI   PO4 9700  15.416  15.863  10.360  0.3015 -0.2914  0.0568
  607loPI   GL1 9701  15.541  15.738   9.925  0.1781 -0.0127 -0.2282
  607loPI   GL2 9702  15.319  15.977   9.831  0.1009  0.2740 -0.3857
  607loPI   C1A 9703  15.789  16.037   9.593  0.3238  0.4742 -0.0223
  607loPI   C2A 9704  15.967  16.019   9.168  0.2393 -0.0757 -0.3940
  607loPI   C3A 9705  16.077  16.231   8.689  0.1032 -0.0513 -0.3799
  607loPI   C4A 9706  16.338  16.295   8.274 -0.1258 -0.2955  0.0934
  607loPI   C5A 9707  16.375  16.336   7.804 -0.0829  0.1641 -0.0514
  607loPI   C6A 9708  16.260  16.439   7.500  0.1538 -0.0089  0.3056
  607loPI   C1B 9709  15.376  15.772   9.350  0.0882  0.0043 -0.2823
  607loPI   C2B 9710  15.353  15.412   8.975  0.1390 -0.3881  0.1243
  607loPI   C3B 9711  15.580  15.392   8.540  0.2284  0.1824  0.1034
  607loPI   C4B 9712  16.008  15.456   8.226  0.1690 -0.0138 -0.1543
  608loPI    C1 9713  12.765  18.355  10.458  0.0929  0.0277 -0.0657
  608loPI    C2 9714  12.804  18.612  10.762  0.1238 -0.0007 -0.0457
  608loPI    C3 9715  12.572  18.289  10.802  0.1265 -0.0035 -0.0528
  608loPI   PO4 9716  12.985  18.512  10.236  0.0915  0.0227  0.2193
  608loPI   GL1 9717  12.887  18.426   9.834  0.2915 -0.4049  0.2822
  608loPI   GL2 9718  12.712  18.167  10.001 -0.1134 -0.0652 -0.1514
  608loPI   C1A 9719  12.988  18.390   9.315 -0.2307 -0.1343  0.2673
  608loPI   C2A 9720  13.199  18.186   8.920  0.0391 -0.1654  0.1982
  608loPI   C3A 9721  13.222  18.446   8.526 -0.3038 -0.0183  0.1526
  608loPI   C4A 9722  13.543  18.656   8.346  0.1282 -0.2758  0.1658
  608loPI   C5A 9723  13.575  18.914   7.936 -0.1751  0.0828  0.3594
  608loPI   C6A 9724  13.327  19.057   7.672 -0.1277  0.1140 -0.0684
  608loPI   C1B 9725  12.500  18.364   9.546 -0.5260  0.0866  0.2111
  608loPI   C2B 9726  12.581  18.698   9.330  0.1517 -0.0343  0.1463
  608loPI   C3B 9727  12.446  18.905   8.973  0.0200  0.2581  0.0291
  608loPI   C4B 9728  12.409  18.778   8.533  0.4287 -0.1047 -0.1536
  609POPI    C1 9729   1.226   6.676   9.607 -0.0228 -0.0719 -0.0138
  609POPI    C2 9730   1.349   6.737   9.982  0.0287 -0.1855 -0.0118
  609POPI    C3 9731   0.971   6.818   9.880  0.0875  0.1101 -0.0038
  609POPI   PO4 9732   1.377   6.395   9.552  0.1857  0.3293 -0.1077
  609POPI   GL1 9733   1.350   6.132   9.244  0.1879  0.2062 -0.1731
  609POPI   GL2 9734   1.757   6.100   9.009  0.0673 -0.1753 -0.2343
  609POPI   C1A 9735   1.433   6.440   8.822  0.2298  0.0301  0.0320
  609POPI   D2A 9736   1.683   6.556   8.463  0.0363  0.0022  0.0225
  609POPI   C3A 9737   1.742   6.823   8.133 -0.1333  0.1537 -0.0531
  609POPI   C4A 9738   1.911   6.808   7.795 -0.1748 -0.1960  0.0775
  609POPI   C1B 9739   1.825   6.030   8.639 -0.1307  0.1263 -0.1019
  609POPI   C2B 9740   1.651   6.038   8.229 -0.1777  0.1191  0.3258
  609POPI   C3B 9741   1.476   6.344   8.082 -0.1060  0.0149 -0.1754
  609POPI   C4B 9742   1.456   6.595   7.748 -0.0657 -0.3324  0.2868
  610POPI    C1 9743   6.663  17.291   9.648  0.0713  0.3451 -0.0731
  610POPI    C2 9744   6.518  17.417   9.999 -0.1035 -0.0138 -0.0127
  610POPI    C3 9745   6.855  17.202   9.987  0.0368  0.2077 -0.0890
  610POPI   PO4 9746   6.583  17.442   9.445 -0.1710 -0.1524  0.1187
  610POPI   GL1 9747   6.357  17.324   9.039  0.1941  0.0228 -0.0026
  610POPI   GL2 9748   6.011  17.168   9.091  0.0874 -0.0231  0.1400
  610POPI   C1A 9749   5.995  17.385   8.587  0.2621 -0.0072  0.0052
  610POPI   D2A 9750   5.587  17.245   8.448 -0.0920  0.1145 -0.1892
  610POPI   C3A 9751   5.545  16.921   8.108  0.1093 -0.1878  0.2047
  610POPI   C4A 9752   5.625  17.021   7.761 -0.0394  0.1582 -0.2680
  610POPI   C1B 9753   5.525  17.267   8.917  0.1316 -0.1124 -0.1626
  610POPI   C2B 9754   5.164  17.230   8.680  0.2819  0.1030 -0.1185
  610POPI   C3B 9755   4.737  17.494   8.766 -0.0525 -0.0059 -0.1730
  610POPI   C4B 9756   4.369  17.309   8.920 -0.0604 -0.1693  0.0186
  611POPI    C1 9757   3.343   9.351  10.200 -0.0021 -0.0291  0.1072
  611POPI    C2 9758   3.217   8.998  10.061  0.0359  0.0216 -0.0592
  611POPI    C3 9759   3.385   9.022  10.424  0.1064 -0.1446 -0.0798
  611POPI   PO4 9760   3.503   9.558   9.999  0.0359  0.2565 -0.1403
  611POPI   GL1 9761   3.523   9.902   9.598 -0.0686 -0.1358  0.1949
  611POPI   GL2 9762   3.385   9.607   9.417 -0.0044  0.1795  0.0313
  611POPI   C1A 9763   3.484  10.269   9.376 -0.0737 -0.0690 -0.1078
  611POPI   D2A 9764   3.216  10.196   8.988 -0.0152 -0.0680 -0.2816
  611POPI   C3A 9765   3.015   9.829   8.871  0.1595 -0.2164 -0.0589
  611POPI   C4A 9766   2.794   9.508   8.604 -0.0589 -0.0796 -0.0763
  611POPI   C1B 9767   3.707   9.764   9.146  0.0088 -0.1227 -0.0030
  611POPI   C2B 9768   3.428   9.851   8.656  0.0790 -0.2719 -0.0527
  611POPI   C3B 9769   3.598   9.837   8.262 -0.1358 -0.3478  0.1443
  611POPI   C4B 9770   3.712   9.901   7.898 -0.0440  0.1558  0.1729
  612POPI    C1 9771   7.210  11.945   9.937  0.0727  0.2593 -0.1115
  612POPI    C2 9772   6.984  12.081  10.238  0.1358  0.1804 -0.0281
  612POPI    C3 9773   7.047  11.688  10.196  0.1694  0.1947 -0.1146
  612POPI   PO4 9774   7.113  12.149   9.717  0.4563  0.1177  0.0008
  612POPI   GL1 9775   7.091  12.267   9.299 -0.2852 -0.0906 -0.2088
  612POPI   GL2 9776   6.822  12.463   9.490 -0.0541  0.1720  0.0072
  612POPI   C1A 9777   7.098  12.076   8.815 -0.0020 -0.1541 -0.4127
  612POPI   D2A 9778   6.978  12.104   8.326  0.2246 -0.0825 -0.3306
  612POPI   C3A 9779   6.963  11.763   8.012 -0.0242  0.1371 -0.1501
  612POPI   C4A 9780   6.534  11.697   7.932 -0.1003 -0.0702 -0.0424
  612POPI   C1B 9781   6.699  12.541   9.037 -0.0430 -0.0578  0.0473
  612POPI   C2B 9782   6.690  12.668   8.627 -0.1806 -0.2827  0.0358
  612POPI   C3B 9783   6.617  12.671   8.243  0.0576  0.3514 -0.2320
  612POPI   C4B 9784   6.655  12.839   7.811  0.0983  0.1030 -0.2598
  613POPI    C1 9785   0.060   3.452   9.988  0.0525  0.0461 -0.1407
  613POPI    C2 9786  -0.176   3.776   9.984 -0.1286 -0.0832 -0.0625
  613POPI    C3 9787  -0.087   3.597  10.331 -0.0863 -0.1590 -0.1121
  613POPI   PO4 9788  -0.042   3.312   9.727  0.0713 -0.2210 -0.0749
  613POPI   GL1 9789  -0.280   3.271   9.426 -0.3381  0.1078 -0.0248
  613POPI   GL2 9790  -0.499   3.562   9.533  0.0433  0.1625  0.3685
  613POPI   C1A 9791  -0.572   3.138   9.260 -0.2054 -0.2112 -0.2791
  613POPI   D2A 9792  -0.785   3.082   8.927  0.0158  0.0829 -0.3104
  613POPI   C3A 9793  -1.198   2.904   8.850 -0.1092  0.0015 -0.2237
  613POPI   C4A 9794  -1.432   2.771   8.456 -0.2105 -0.0060 -0.1083
  613POPI   C1B 9795  -0.520   3.591   9.050 -0.0539 -0.1190  0.3182
  613POPI   C2B 9796  -0.568   3.523   8.605  0.1249  0.0399 -0.2478
  613POPI   C3B 9797  -0.797   3.459   8.215  0.1235  0.3004  0.0042
  613POPI   C4B 9798  -0.503   3.474   7.877  0.0600  0.2489  0.1108
  614POPI    C1 9799  11.226   1.712   9.635  0.2213  0.1355 -0.0061
  614POPI    C2 9800  11.539   1.960   9.608  0.1054  0.3045  0.1715
  614POPI    C3 9801  11.215   2.069   9.815 -0.1036  0.1628 -0.0742
  614POPI   PO4 9802  11.333   1.520   9.493 -0.1218  0.1532  0.1747
  614POPI   GL1 9803  11.364   1.276   9.171 -0.2328 -0.2017  0.2215
  614POPI   GL2 9804  11.718   1.283   8.966 -0.0920 -0.0521  0.1912
  614POPI   C1A 9805  11.311   1.429   8.786  0.0862  0.2800  0.0383
  614POPI   D2A 9806  10.870   1.562   8.529 -0.0105  0.0988 -0.1408
  614POPI   C3A 9807  10.803   1.637   8.089 -0.2984  0.2706 -0.2669
  614POPI   C4A 9808  10.653   1.780   7.735  0.1249  0.1567  0.2387
  614POPI   C1B 9809  11.746   1.273   8.533  0.4944 -0.3474 -0.1883
  614POPI   C2B 9810  11.829   1.435   8.147  0.4175  0.1488  0.0501
  614POPI   C3B 9811  12.068   1.416   7.813  0.0229  0.4035  0.0898
  614POPI   C4B 9812  12.377   1.534   7.448 -0.0085 -0.2727 -0.1345
  615POPI    C1 9813  17.509   2.101   9.923 -0.0471 -0.1867  0.1598
  615POPI    C2 9814  17.170   2.137  10.132 -0.0219  0.2420  0.1352
  615POPI    C3 9815  17.502   2.007  10.312 -0.1338  0.0729  0.2229
  615POPI   PO4 9816  17.447   2.023   9.731  0.0546 -0.1237 -0.2238
  615POPI   GL1 9817  17.576   1.824   9.365 -0.2986  0.0890  0.1730
  615POPI   GL2 9818  17.881   2.034   9.400 -0.2003 -0.0608  0.2096
  615POPI   C1A 9819  17.919   1.502   9.188 -0.1609 -0.0014 -0.3803
  615POPI   D2A 9820  18.209   1.330   8.815  0.2138  0.2285 -0.1239
  615POPI   C3A 9821  18.192   1.000   8.583  0.1539  0.0622 -0.0763
  615POPI   C4A 9822  18.183   0.915   8.182  0.3255  0.1731  0.3534
  615POPI   C1B 9823  17.810   1.882   8.981 -0.0383 -0.1970  0.0722
  615POPI   C2B 9824  17.768   1.698   8.695  0.1714 -0.2264 -0.0395
  615POPI   C3B 9825  17.577   1.863   8.280  0.0093  0.0656 -0.1435
  615POPI   C4B 9826  17.512   1.903   7.738  0.1659 -0.3771 -0.0339
  616POPI    C1 9827   7.731  17.782   9.674 -0.1768 -0.2764  0.0872
  616POPI    C2 9828   7.393  17.972   9.770 -0.0261 -0.0142  0.1091
  616POPI    C3 9829   7.607  17.790  10.054 -0.0434 -0.0046  0.1282
  616POPI   PO4 9830   7.806  17.960   9.407  0.1582 -0.0377  0.1897
  616POPI   GL1 9831   7.843  17.855   9.022 -0.1407  0.3309  0.0098
  616POPI   GL2 9832   7.941  17.581   9.100  0.1943 -0.1312  0.2100
  616POPI   C1A 9833   8.239  17.840   8.783  0.3305  0.0302  0.2666
  616POPI   D2A 9834   8.412  17.962   8.406  0.0917  0.0631  0.1665
  616POPI   C3A 9835   8.337  17.989   8.039  0.1875  0.0030 -0.2831
  616POPI   C4A 9836   8.145  17.787   7.661  0.3593  0.1034  0.0882
  616POPI   C1B 9837   8.060  17.397   8.628 -0.0473 -0.1417 -0.3230
  616POPI   C2B 9838   8.187  17.216   8.286 -0.0447  0.1506  0.0788
  616POPI   C3B 9839   8.127  16.779   7.997 -0.1479  0.1255 -0.3015
  616POPI   C4B 9840   8.078  16.718   7.471 -0.2435 -0.2113 -0.0275
  617POPI    C1 9841   9.433   0.079   9.416 -0.1564  0.2609  0.2048
  617POPI    C2 9842   9.372   0.008   9.805 -0.1673 -0.4975  0.0793
  617POPI    C3 9843   9.745   0.050   9.666 -0.1712 -0.0414  0.1920
  617POPI   PO4 9844   9.305  -0.118   9.248  0.5085 -0.0150  0.0688
  617POPI   GL1 9845   9.268  -0.338   8.832  0.0683  0.0625 -0.0475
  617POPI   GL2 9846   9.145  -0.268   8.543 -0.2346  0.1203  0.1574
  617POPI   C1A 9847   9.616  -0.480   8.625 -0.0540  0.2534 -0.1487
  617POPI   D2A 9848   9.801  -0.660   8.162  0.1344 -0.4717  0.2423
  617POPI   C3A 9849  10.063  -0.451   7.845 -0.0332  0.1105 -0.1254
  617POPI   C4A 9850  10.286  -0.550   7.483  0.0844  0.1311 -0.0666
  617POPI   C1B 9851   9.296  -0.178   8.150  0.5069 -0.0167  0.2439
  617POPI   C2B 9852   9.237  -0.289   7.727  0.3075  0.1688  0.1052
  617POPI   C3B 9853   9.160  -0.343   7.338  0.1210 -0.0324  0.0399
  617POPI   C4B 9854   8.798  -0.493   7.124 -0.0854 -0.3512 -0.2858
  618POPI    C1 9855  10.532  18.223   9.931 -0.1226 -0.1470 -0.0268
  618POPI    C2 9856  10.395  18.531  10.146 -0.0791 -0.2342  0.1277
  618POPI    C3 9857  10.559  18.217  10.330  0.3136 -0.1397 -0.0512
  618POPI   PO4 9858  10.264  18.260   9.753  0.2926  0.3842 -0.2810
  618POPI   GL1 9859  10.172  18.395   9.382 -0.1020 -0.2473 -0.2088
  618POPI   GL2 9860  10.005  18.279   9.093  0.1151 -0.0030 -0.1701
  618POPI   C1A 9861  10.530  18.391   8.938 -0.3003 -0.0660 -0.2558
  618POPI   D2A 9862  10.617  18.273   8.592 -0.3050  0.0622 -0.1156
  618POPI   C3A 9863  10.825  17.927   8.487 -0.0754  0.1377 -0.0704
  618POPI   C4A 9864  10.859  17.529   8.282 -0.0540  0.2645 -0.0813
  618POPI   C1B 9865  10.087  18.467   8.700 -0.0110 -0.1826  0.0535
  618POPI   C2B 9866  10.280  18.383   8.247  0.2478  0.3451 -0.0881
  618POPI   C3B 9867  10.389  18.345   7.816  0.2386 -0.0605  0.3284
  618POPI   C4B 9868  10.072  18.337   7.531 -0.0397 -0.1120  0.3433
  619POPI    C1 9869   2.376  11.726   9.929  0.3237 -0.1659  0.3183
  619POPI    C2 9870   2.309  11.402  10.155  0.1138 -0.0864  0.3725
  619POPI    C3 9871   2.319  11.765  10.323  0.0367 -0.0344  0.2669
  619POPI   PO4 9872   2.277  11.729   9.722  0.1185  0.0745  0.0744
  619POPI   GL1 9873   2.533  11.650   9.448  0.2210  0.0866 -0.0009
  619POPI   GL2 9874   2.765  11.857   9.282  0.2873  0.1314 -0.1159
  619POPI   C1A 9875   2.507  11.506   9.020  0.1838  0.0208  0.1436
  619POPI   D2A 9876   2.422  11.417   8.556 -0.4060  0.0311 -0.1156
  619POPI   C3A 9877   2.529  11.490   8.147 -0.4295 -0.0946  0.0804
  619POPI   C4A 9878   2.429  11.680   7.854  0.0970  0.0842 -0.2729
  619POPI   C1B 9879   2.642  12.099   8.890 -0.1769 -0.1889 -0.0000
  619POPI   C2B 9880   2.578  11.912   8.495 -0.1665 -0.1559 -0.1089
  619POPI   C3B 9881   2.633  12.155   8.086  0.0121 -0.0045  0.1762
  619POPI   C4B 9882   2.406  12.266   7.716 -0.0478 -0.2354 -0.1270
  620POPI    C1 9883  16.758  16.063  10.424  0.1301  0.1551 -0.1997
  620POPI    C2 9884  16.962  15.860  10.701 -0.0686  0.1207 -0.0767
  620POPI    C3 9885  16.595  15.997  10.783 -0.2220 -0.0858 -0.3977
  620POPI   PO4 9886  16.792  15.894  10.209 -0.0635  0.1009 -0.0124
  620POPI   GL1 9887  16.687  15.811   9.790  0.1720 -0.1866 -0.1670
  620POPI   GL2 9888  16.980  15.600   9.895  0.0006 -0.0936 -0.2189
  620POPI   C1A 9889  16.439  15.844   9.432  0.2299 -0.4545  0.0430
  620POPI   D2A 9890  16.528  15.880   9.038  0.3201  0.0142  0.2269
  620POPI   C3A 9891  17.034  16.162   9.022  0.0542  0.1486  0.2190
  620POPI   C4A 9892  17.498  16.247   9.047 -0.1330 -0.0308  0.0157
  620POPI   C1B 9893  16.742  15.415   9.506  0.2262  0.1700 -0.0398
  620POPI   C2B 9894  16.826  15.529   9.099 -0.1288  0.1300 -0.0175
  620POPI   C3B 9895  16.626  15.459   8.795  0.3735 -0.0157 -0.2227
  620POPI   C4B 9896  16.624  15.375   8.400 -0.2588  0.1878  0.0071
  621POPI    C1 9897   8.003   6.724   8.867  0.0944  0.0096 -0.0681
  621POPI    C2 9898   7.908   6.893   9.217 -0.0160 -0.2014  0.0061
  621POPI    C3 9899   7.840   7.089   8.875 -0.0899 -0.0738  0.0927
  621POPI   PO4 9900   7.909   6.505   8.851 -0.0715  0.3874  0.1435
  621POPI   GL1 9901   7.780   6.457   8.523 -0.0077  0.0439  0.3761
  621POPI   GL2 9902   7.941   6.106   8.598  0.0539  0.3091  0.0416
  621POPI   C1A 9903   7.498   6.812   8.293  0.3145  0.1245 -0.3177
  621POPI   D2A 9904   7.143   7.139   8.235 -0.2887 -0.2388 -0.1058
  621POPI   C3A 9905   6.918   7.129   7.795 -0.0135 -0.2003  0.3643
  621POPI   C4A 9906   6.920   6.941   7.395  0.2635 -0.1255  0.3947
  621POPI   C1B 9907   8.038   6.400   8.127  0.1697  0.2438 -0.2727
  621POPI   C2B 9908   8.211   6.499   7.668 -0.1337  0.3022 -0.1484
  621POPI   C3B 9909   8.531   6.387   7.419  0.2582  0.1780 -0.1513
  621POPI   C4B 9910   8.773   6.197   7.091  0.3172  0.2139 -0.0726
  622POPI    C1 9911   3.024  13.676  10.337  0.0680  0.1100 -0.0100
  622POPI    C2 9912   3.396  13.559  10.251 -0.0244 -0.1880 -0.0155
  622POPI    C3 9913   3.174  13.346  10.506 -0.0872  0.1572  0.2257
  622POPI   PO4 9914   2.896  13.728  10.110  0.0068 -0.2089 -0.1458
  622POPI   GL1 9915   2.871  13.627   9.643 -0.0031 -0.0824  0.0263
  622POPI   GL2 9916   2.656  13.967   9.523  0.3717 -0.1364 -0.1065
  622POPI   C1A 9917   2.863  13.556   9.240  0.1749  0.1523  0.0851
  622POPI   D2A 9918   3.021  13.816   8.875 -0.0970  0.2454 -0.1082
  622POPI   C3A 9919   3.370  13.866   8.655  0.5100 -0.0278 -0.2266
  622POPI   C4A 9920   3.461  14.045   8.265  0.0821  0.2944 -0.1949
  622POPI   C1B 9921   2.387  13.616   9.456 -0.0847 -0.1887  0.2345
  622POPI   C2B 9922   1.984  13.322   9.340  0.2165  0.2715 -0.1496
  622POPI   C3B 9923   1.932  13.029   8.936  0.2275  0.1630 -0.1963
  622POPI   C4B 9924   1.910  12.854   8.654  0.0353 -0.1498 -0.0091
  623POPI    C1 9925  16.369   8.938   9.855  0.0741 -0.1995 -0.1449
  623POPI    C2 9926  16.718   9.059  10.007  0.1213 -0.5907  0.0699
  623POPI    C3 9927  16.395   9.039  10.241 -0.1109 -0.0047 -0.1814
  623POPI   PO4 9928  16.488   8.976   9.582 -0.1454 -0.0599 -0.3738
  623POPI   GL1 9929  16.568   9.163   9.215  0.2650 -0.1550  0.1109
  623POPI   GL2 9930  16.311   9.362   9.259  0.1350 -0.0652  0.3022
  623POPI   C1A 9931  16.570   9.043   8.767  0.0105  0.0890  0.3678
  623POPI   D2A 9932  16.581   9.211   8.404  0.2211  0.1517 -0.0164
  623POPI   C3A 9933  16.709   9.147   7.917  0.0346  0.3625  0.1037
  623POPI   C4A 9934  16.811   9.146   7.502 -0.2302 -0.0723 -0.1824
  623POPI   C1B 9935  16.180   9.448   8.847 -0.2483 -0.0215  0.3509
  623POPI   C2B 9936  16.068   9.483   8.403  0.4489 -0.0812 -0.3022
  623POPI   C3B 9937  15.827   9.708   8.098 -0.3158  0.0221 -0.2946
  623POPI   C4B 9938  15.767   9.539   7.736  0.1414 -0.1436 -0.0352
  624POPI    C1 9939   0.483   1.909   9.829  0.2156 -0.1760 -0.1988
  624POPI    C2 9940   0.324   1.644  10.084 -0.0574  0.1157 -0.0582
  624POPI    C3 9941   0.710   1.745  10.115 -0.0548  0.0456  0.1529
  624POPI   PO4 9942   0.296   1.948   9.703 -0.2435 -0.1872 -0.0371
  624POPI   GL1 9943   0.438   1.743   9.317  0.1207  0.0541 -0.0899
  624POPI   GL2 9944   0.633   1.421   9.180  0.0701 -0.0328 -0.0691
  624POPI   C1A 9945   0.080   1.603   9.057  0.0507  0.1122 -0.2726
  624POPI   D2A 9946  -0.243   1.790   8.729 -0.1462 -0.0790  0.3765
  624POPI   C3A 9947  -0.451   1.562   8.372 -0.0418  0.1492  0.1371
  624POPI   C4A 9948  -0.610   1.421   7.958 -0.0427  0.2156  0.0226
  624POPI   C1B 9949   0.494   1.590   8.788  0.1543 -0.1180  0.1555
  624POPI   C2B 9950   0.497   1.587   8.352  0.0725  0.0040  0.0445
  624POPI   C3B 9951   0.529   1.736   7.898  0.0399 -0.1893 -0.1912
  624POPI   C4B 9952   0.545   2.151   7.645  0.0030 -0.0232 -0.1628
  625DPPI    C1 9953  17.392  17.432  10.011 -0.1811 -0.1411  0.0644
  625DPPI    C2 9954  17.131  17.389  10.312 -0.4119  0.2619 -0.0715
  625DPPI    C3 9955  17.367  17.712  10.296 -0.1140  0.0456 -0.1114
  625DPPI   PO4 9956  17.259  17.332   9.800 -0.0011  0.2783  0.0842
  625DPPI   GL1 9957  16.976  17.142   9.441 -0.3061 -0.3291  0.2887
  625DPPI   GL2 9958  16.761  16.960   9.404  0.4912 -0.0763 -0.0267
  625DPPI   C1A 9959  17.182  17.165   9.084  0.0593 -0.1820 -0.0839
  625DPPI   C2A 9960  17.207  17.110   8.650  0.1487  0.1087 -0.3603
  625DPPI   C3A 9961  17.302  17.182   8.286 -0.1448  0.2110 -0.1517
  625DPPI   C4A 9962  17.158  17.229   7.813 -0.0090 -0.0188 -0.0128
  625DPPI   C1B 9963  16.742  16.838   9.049 -0.1756  0.5269 -0.2696
  625DPPI   C2B 9964  16.715  17.101   8.661 -0.4010 -0.0414 -0.1497
  625DPPI   C3B 9965  16.789  16.973   8.119  0.0344  0.0418  0.1188
  625DPPI   C4B 9966  16.688  17.254   7.712  0.0830  0.0529 -0.1974
  626DPPI    C1 9967  11.222   2.950   9.644  0.2877 -0.0730  0.1160
  626DPPI    C2 9968  10.914   2.723   9.527  0.2316  0.1017 -0.0833
  626DPPI    C3 9969  11.169   2.588   9.805 -0.1628  0.0517  0.2642
  626DPPI   PO4 9970  11.353   3.003   9.387  0.0861  0.1582 -0.2993
  626DPPI   GL1 9971  11.330   3.340   9.112  0.0663 -0.3085  0.0637
  626DPPI   GL2 9972  11.057   3.598   9.040 -0.0410  0.2691  0.1355
  626DPPI   C1A 9973  11.309   3.175   8.735 -0.3341  0.0002 -0.1140
  626DPPI   C2A 9974  11.543   3.044   8.439 -0.2435 -0.2072 -0.0689
  626DPPI   C3A 9975  11.549   3.106   8.008 -0.1466  0.2056  0.2044
  626DPPI   C4A 9976  11.782   3.046   7.588  0.0649 -0.1177 -0.2648
  626DPPI   C1B 9977  10.986   3.677   8.557  0.1643 -0.1741  0.1768
  626DPPI   C2B 9978  10.898   3.645   8.057 -0.1341  0.1314  0.3038
  626DPPI   C3B 9979  10.805   3.627   7.642 -0.0526 -0.1260 -0.4112
  626DPPI   C4B 9980  10.738   3.635   7.285  0.0361  0.0277 -0.0069
  627DPPI    C1 9981  14.099  11.615   9.863  0.0777 -0.1518 -0.0043
  627DPPI    C2 9982  14.400  11.415  10.035 -0.0781 -0.1374  0.2909
  627DPPI    C3 9983  14.227  11.720  10.227  0.1066  0.2395 -0.1226
  627DPPI   PO4 9984  14.202  11.591   9.576 -0.1638  0.1514  0.1378
  627DPPI   GL1 9985  14.375  11.437   9.200 -0.1870 -0.0338  0.2104
  627DPPI   GL2 9986  14.184  11.150   9.034  0.0162  0.1806  0.1964
  627DPPI   C1A 9987  14.670  11.520   8.736 -0.0891  0.0757 -0.2378
  627DPPI   C2A 9988  14.864  11.470   8.354 -0.0815 -0.1888  0.2677
  627DPPI   C3A 9989  14.888  11.537   7.916  0.1235  0.1883  0.2972
  627DPPI   C4A 9990  14.621  11.626   7.557  0.3331  0.0552  0.0307
  627DPPI   C1B 9991  14.145  11.340   8.732 -0.3199  0.2484 -0.0684
  627DPPI   C2B 9992  14.283  11.333   8.302 -0.1071 -0.1738  0.1974
  627DPPI   C3B 9993  14.495  11.152   7.868  0.0327  0.1135 -0.1791
  627DPPI   C4B 9994  14.896  11.057   7.626 -0.1182  0.2124 -0.0335
  628DPPI    C1 9995  18.636   1.723   9.639  0.2141 -0.0646  0.0133
  628DPPI    C2 9996  18.381   1.637   9.936  0.1806  0.0625  0.0218
  628DPPI    C3 9997  18.246   1.676   9.562  0.2014  0.0399  0.0119
  628DPPI   PO4 9998  18.833   1.600   9.749 -0.1317  0.2341  0.2582
  628DPPI   GL1 9999  19.094   1.684   9.493  0.1420  0.2666 -0.1995
  628DPPI   GL210000  19.278   1.912   9.394 -0.1154  0.0180  0.0055
  628DPPI   C1A10001  18.865   1.722   9.138  0.2788 -0.2570  0.0833
  628DPPI   C2A10002  18.708   2.032   8.713 -0.1461  0.0203 -0.2970
  628DPPI   C3A10003  18.757   2.032   8.246  0.2188  0.1760 -0.0769
  628DPPI   C4A10004  18.529   1.891   7.879 -0.1833  0.2225 -0.0516
  628DPPI   C1B10005  19.083   2.200   9.003  0.1236 -0.0214  0.1257
  628DPPI   C2B10006  19.148   2.263   8.521  0.2137  0.0429  0.1251
  628DPPI   C3B10007  19.241   1.942   8.226 -0.1769  0.2542  0.1204
  628DPPI   C4B10008  18.999   1.854   7.728 -0.0783  0.0623  0.1818
  629DPPI    C110009  16.871  18.285  10.135 -0.2054 -0.1746 -0.0570
  629DPPI    C210010  16.803  18.497  10.466 -0.1475 -0.1339 -0.0711
  629DPPI    C310011  17.036  18.173  10.481 -0.0754 -0.0833 -0.0890
  629DPPI   PO410012  16.965  18.572   9.905 -0.0839 -0.1537 -0.2261
  629DPPI   GL110013  17.049  18.608   9.473 -0.4606  0.1708  0.0892
  629DPPI   GL210014  16.730  18.737   9.365 -0.2512 -0.1831  0.2671
  629DPPI   C1A10015  17.261  18.685   9.174  0.1132 -0.0506 -0.1972
  629DPPI   C2A10016  17.237  18.778   8.747 -0.0579 -0.4765  0.0095
  629DPPI   C3A10017  17.102  18.712   8.415  0.0587 -0.0679 -0.3549
  629DPPI   C4A10018  16.749  18.452   8.506 -0.1961 -0.0554 -0.1186
  629DPPI   C1B10019  16.813  18.645   8.975  0.1599  0.0922  0.0753
  629DPPI   C2B10020  16.748  18.984   8.747  0.0070  0.3698  0.1056
  629DPPI   C3B10021  16.684  19.002   8.370 -0.0865 -0.0569  0.0381
  629DPPI   C4B10022  16.505  19.262   8.082 -0.3928  0.3725  0.1372
  630DPPI    C110023   9.056  18.581   9.693 -0.0382  0.0277 -0.1619
  630DPPI    C210024   9.241  18.934   9.653 -0.2183  0.1557  0.1040
  630DPPI    C310025   9.454  18.602   9.723 -0.0446  0.2017 -0.1894
  630DPPI   PO410026   8.876  18.495   9.463 -0.1325 -0.3651  0.1010
  630DPPI   GL110027   8.701  18.565   9.001 -0.1563 -0.1531 -0.1038
  630DPPI   GL210028   8.931  18.716   8.880 -0.2694 -0.2445 -0.3888
  630DPPI   C1A10029   8.505  18.385   8.677  0.2645  0.2782 -0.2074
  630DPPI   C2A10030   8.523  18.402   8.221  0.0964  0.0785  0.2863
  630DPPI   C3A10031   8.366  18.460   7.768  0.0816  0.0645 -0.0895
  630DPPI   C4A10032   8.316  18.565   7.349  0.1479 -0.0276  0.0884
  630DPPI   C1B10033   8.886  18.728   8.403  0.1392 -0.3230  0.0176
  630DPPI   C2B10034   8.929  18.552   8.068  0.1301  0.1827 -0.0700
  630DPPI   C3B10035   8.736  18.114   7.846 -0.2002  0.2560 -0.1822
  630DPPI   C4B10036   8.660  17.642   7.712 -0.2269  0.1502  0.0401
  631DPPI    C110037  11.515   0.466  10.156 -0.0354 -0.1534  0.0084
  631DPPI    C210038  11.805   0.712  10.279 -0.2360  0.0660  0.0516
  631DPPI    C310039  11.796   0.333  10.408 -0.0154  0.0795  0.1116
  631DPPI   PO410040  11.566   0.617   9.783 -0.0807  0.3548 -0.1272
  631DPPI   GL110041  11.534   0.459   9.386 -0.1291 -0.0114  0.0579
  631DPPI   GL210042  11.461   0.705   9.295 -0.1216  0.2593  0.2183
  631DPPI   C1A10043  11.838   0.390   9.088 -0.0474  0.2385 -0.1770
  631DPPI   C2A10044  12.041   0.414   8.741  0.2566  0.0972 -0.0461
  631DPPI   C3A10045  12.216   0.436   8.373  0.1789 -0.0186  0.0428
  631DPPI   C4A10046  12.357   0.421   8.034  0.3288 -0.0779  0.0463
  631DPPI   C1B10047  11.415   0.893   8.842 -0.2560  0.0638 -0.1440
  631DPPI   C2B10048  11.535   0.669   8.572 -0.1361 -0.0515  0.2140
  631DPPI   C3B10049  11.701   0.322   8.307 -0.0841 -0.1778  0.1051
  631DPPI   C4B10050  11.853   0.199   7.858 -0.2416  0.0209 -0.4942
  632DPPI    C110051  11.791   9.738   9.821  0.1432  0.0447 -0.0525
  632DPPI    C210052  11.507   9.520   9.641  0.1286  0.0552 -0.0422
  632DPPI    C310053  11.612   9.440  10.019  0.0424  0.1394 -0.0003
  632DPPI   PO410054  11.935   9.770   9.669  0.2464  0.1015 -0.1586
  632DPPI   GL110055  12.057   9.748   9.274  0.3004  0.0637  0.0846
  632DPPI   GL210056  12.066  10.060   9.231 -0.3033 -0.0532 -0.1118
  632DPPI   C1A10057  11.859   9.562   8.858 -0.3514 -0.1855  0.0069
  632DPPI   C2A10058  11.716   9.419   8.448  0.4427 -0.4694 -0.0812
  632DPPI   C3A10059  11.893   9.177   8.201 -0.1374  0.2903  0.2997
  632DPPI   C4A10060  11.863   8.724   7.940 -0.2115  0.0371 -0.1270
  632DPPI   C1B10061  12.090  10.182   8.756 -0.3490 -0.0569 -0.0531
  632DPPI   C2B10062  11.966  10.283   8.334 -0.0379 -0.0746  0.1742
  632DPPI   C3B10063  11.834  10.391   7.932 -0.2174  0.0118 -0.3511
  632DPPI   C4B10064  11.615  10.333   7.508 -0.0942 -0.0262  0.1248
  633DPPI    C110065   2.082   9.005   9.853 -0.0622 -0.0841  0.1203
  633DPPI    C210066   2.165   8.782  10.175 -0.1309 -0.0340  0.1728
  633DPPI    C310067   1.929   9.103  10.209 -0.0487  0.0354  0.0935
  633DPPI   PO410068   1.958   8.908   9.708  0.1228  0.1671 -0.0181
  633DPPI   GL110069   1.729   8.791   9.504 -0.1118 -0.4742 -0.1064
  633DPPI   GL210070   1.688   8.611   9.252 -0.1103  0.0038 -0.3004
  633DPPI   C1A10071   1.515   9.052   9.140  0.0059 -0.1612  0.0222
  633DPPI   C2A10072   1.684   9.040   8.732  0.2152  0.0178 -0.1772
  633DPPI   C3A10073   1.717   9.098   8.300  0.0227  0.0125  0.0207
  633DPPI   C4A10074   1.576   8.829   7.978  0.3404 -0.0986 -0.2463
  633DPPI   C1B10075   1.756   8.579   8.876  0.1844  0.0560  0.1907
  633DPPI   C2B10076   1.639   8.540   8.417  0.1265 -0.0744  0.3642
  633DPPI   C3B10077   1.574   8.302   7.973  0.3307 -0.2289  0.0358
  633DPPI   C4B10078   1.457   8.095   7.649 -0.1132  0.2194  0.0347
  634DPPI    C110079  16.360  13.114  10.037 -0.3889 -0.0083  0.1465
  634DPPI    C210080  16.139  13.230   9.724  0.0532  0.2183 -0.0917
  634DPPI    C310081  16.171  12.841   9.815 -0.2402  0.1663 -0.2020
  634DPPI   PO410082  16.593  13.198   9.968 -0.1175 -0.1170 -0.2334
  634DPPI   GL110083  16.732  13.495   9.692  0.0458 -0.1527 -0.1231
  634DPPI   GL210084  17.065  13.337   9.822  0.1253 -0.1674 -0.0872
  634DPPI   C1A10085  16.688  13.395   9.334  0.0345  0.1262 -0.2993
  634DPPI   C2A10086  16.799  13.059   9.062 -0.1673  0.0918 -0.0450
  634DPPI   C3A10087  16.644  12.562   9.029 -0.3367 -0.1483  0.1852
  634DPPI   C4A10088  16.439  12.175   8.923  0.1331  0.1274 -0.0982
  634DPPI   C1B10089  17.193  13.350   9.360 -0.0944  0.2128 -0.0694
  634DPPI   C2B10090  17.265  13.260   8.858  0.4519 -0.0633  0.0331
  634DPPI   C3B10091  17.285  13.175   8.503 -0.2789  0.0334  0.0230
  634DPPI   C4B10092  17.251  13.199   8.109 -0.1038 -0.1869 -0.0354
  635PYPI    C110093  16.296   7.735   9.715 -0.0130 -0.0452  0.0412
  635PYPI    C210094  15.960   7.547   9.606 -0.1424  0.1262  0.1384
  635PYPI    C310095  16.055   7.579   9.994  0.0165  0.0287  0.1087
  635PYPI   PO410096  16.381   7.911   9.464 -0.2482 -0.1866  0.0923
  635PYPI   GL110097  16.252   8.220   9.162 -0.0978  0.1189  0.1107
  635PYPI   GL210098  16.414   8.055   8.996  0.1298 -0.0989 -0.4285
  635PYPI   C1A10099  15.944   8.009   8.833 -0.0793 -0.0242 -0.1314
  635PYPI   C2A10100  15.861   7.950   8.372 -0.3376  0.3951 -0.0161
  635PYPI   D3A10101  15.590   7.805   8.108 -0.1475 -0.2711  0.3027
  635PYPI   C4A10102  15.223   7.899   8.204 -0.1658  0.0835  0.3430
  635PYPI   C1B10103  16.370   7.853   8.612  0.2092  0.1642  0.1579
  635PYPI   C2B10104  16.506   7.523   8.342  0.0443 -0.2901 -0.0820
  635PYPI   C3B10105  16.517   7.353   7.895 -0.0998  0.0884 -0.2320
  635PYPI   C4B10106  16.576   7.066   7.538  0.1678  0.3104 -0.2075
  636PYPI    C110107  15.884   8.894  10.135 -0.2014  0.0176 -0.1938
  636PYPI    C210108  15.513   8.783  10.237 -0.1653  0.1279  0.0665
  636PYPI    C310109  15.703   9.064  10.448  0.1012  0.0092 -0.0103
  636PYPI   PO410110  15.893   8.790   9.879 -0.0851 -0.2204 -0.4338
  636PYPI   GL110111  15.793   8.823   9.415 -0.1164  0.1437 -0.3549
  636PYPI   GL210112  16.078   8.748   9.363 -0.0000  0.0639 -0.0638
  636PYPI   C1A10113  15.835   9.143   9.118 -0.1325 -0.2782 -0.0150
  636PYPI   C2A10114  15.715   9.232   8.655  0.1613 -0.0247 -0.0675
  636PYPI   D3A10115  15.656   9.219   8.203  0.1228  0.2378  0.1032
  636PYPI   C4A10116  15.680   8.919   7.844 -0.2169 -0.1015 -0.1662
  636PYPI   C1B10117  16.177   8.803   8.975 -0.0225  0.1779 -0.1359
  636PYPI   C2B10118  16.090   8.952   8.472 -0.0871  0.0099 -0.4586
  636PYPI   C3B10119  16.100   9.157   8.021 -0.1891  0.2490 -0.0046
  636PYPI   C4B10120  16.361   9.476   7.794  0.1155 -0.1069  0.2686
  637PYPI    C110121  16.094  16.322  10.248  0.0675 -0.1543  0.0529
  637PYPI    C210122  15.993  15.980  10.066  0.0473 -0.1955  0.1406
  637PYPI    C310123  16.287  15.983  10.338 -0.0065 -0.1589  0.1987
  637PYPI   PO410124  16.052  16.463  10.064  0.3397  0.0600 -0.0725
  637PYPI   GL110125  15.739  16.566   9.772  0.3085 -0.1972  0.0143
  637PYPI   GL210126  15.785  16.864   9.549 -0.0253  0.0322  0.1094
  637PYPI   C1A10127  15.603  16.394   9.351  0.0482  0.0700  0.2235
  637PYPI   C2A10128  15.639  16.426   8.925 -0.3059  0.2770 -0.1993
  637PYPI   D3A10129  15.480  16.362   8.638 -0.1073 -0.1038 -0.3302
  637PYPI   C4A10130  15.629  16.337   8.270  0.6076 -0.1248  0.1273
  637PYPI   C1B10131  15.788  16.880   9.079 -0.0285 -0.0117  0.1537
  637PYPI   C2B10132  15.776  16.774   8.551 -0.4300 -0.2404 -0.1024
  637PYPI   C3B10133  15.738  16.809   8.148  0.0166 -0.2577  0.0899
  637PYPI   C4B10134  15.806  16.504   7.823  0.0371  0.1364 -0.3035
  638PYPI    C110135   9.437   4.009   9.266  0.0218 -0.3793  0.1796
  638PYPI    C210136   9.820   4.067   9.364  0.0160  0.1267 -0.0649
  638PYPI    C310137   9.534   4.108   9.641  0.1254 -0.1405  0.0915
  638PYPI   PO410138   9.477   4.063   8.956  0.0202  0.3044 -0.1763
  638PYPI   GL110139   9.466   4.127   8.517 -0.1619 -0.3902 -0.0863
  638PYPI   GL210140   9.669   4.165   8.300  0.0307 -0.0496 -0.0118
  638PYPI   C1A10141   9.333   4.250   8.016 -0.0858  0.1116  0.0272
  638PYPI   C2A10142   9.071   4.392   7.714  0.1145  0.0591  0.1573
  638PYPI   D3A10143   8.752   4.125   7.539 -0.0726 -0.0262  0.1175
  638PYPI   C4A10144   8.861   3.766   7.321  0.1523 -0.1718  0.1977
  638PYPI   C1B10145   9.916   4.107   7.982  0.2703 -0.0907  0.0968
  638PYPI   C2B10146   9.805   4.374   7.585 -0.1072  0.0703 -0.1682
  638PYPI   C3B10147   9.861   4.702   7.407  0.0693  0.0903 -0.0851
  638PYPI   C4B10148  10.025   5.074   7.190  0.0557  0.1635 -0.0064
  639PYPI    C110149   9.092   1.707   9.248  0.1717  0.0558  0.0432
  639PYPI    C210150   8.938   1.592   9.599 -0.2537  0.3310 -0.0457
  639PYPI    C310151   9.195   1.898   9.584  0.0576  0.0807  0.0645
  639PYPI   PO410152   8.922   1.766   9.081  0.1881 -0.2658  0.1761
  639PYPI   GL110153   8.627   1.532   8.720 -0.0648  0.1782  0.1195
  639PYPI   GL210154   8.329   1.442   8.780  0.0103  0.2327  0.0137
  639PYPI   C1A10155   8.866   1.282   8.539  0.1400 -0.4449 -0.1706
  639PYPI   C2A10156   9.120   1.093   8.203  0.0706 -0.2888  0.0337
  639PYPI   D3A10157   9.339   1.060   7.833  0.0634  0.2764  0.1078
  639PYPI   C4A10158   9.328   0.658   7.578 -0.1551 -0.1632  0.1320
  639PYPI   C1B10159   8.193   1.341   8.360 -0.1683  0.1692  0.2744
  639PYPI   C2B10160   8.012   1.260   7.893 -0.2477  0.2793  0.1592
  639PYPI   C3B10161   7.740   1.492   7.615  0.3043  0.1177  0.0502
  639PYPI   C4B10162   7.603   1.557   7.245 -0.0812 -0.0190 -0.0568
  640PYPI    C110163  14.753   7.383   9.858  0.1593 -0.0011  0.0935
  640PYPI    C210164  14.901   7.062  10.044 -0.0297 -0.1721 -0.0472
  640PYPI    C310165  15.063   7.422  10.108  0.3429 -0.3304 -0.0766
  640PYPI   PO410166  14.473   7.384   9.927 -0.4229  0.0678  0.0868
  640PYPI   GL110167  14.153   7.445   9.668 -0.0442  0.3133  0.4732
  640PYPI   GL210168  14.427   7.660   9.473 -0.1021  0.0197 -0.0828
  640PYPI   C1A10169  14.184   7.259   9.315  0.0594 -0.2147  0.0146
  640PYPI   C2A10170  13.929   7.157   9.100 -0.2029 -0.1646 -0.0948
  640PYPI   D3A10171  14.078   7.375   8.781 -0.1313  0.1089 -0.2396
  640PYPI   C4A10172  13.916   7.372   8.450  0.1153  0.0703 -0.1178
  640PYPI   C1B10173  14.158   7.800   9.039 -0.0491 -0.2142  0.1439
  640PYPI   C2B10174  13.948   7.878   8.683  0.1277 -0.0241  0.0080
  640PYPI   C3B10175  13.910   7.773   8.232  0.2528  0.2536  0.2462
  640PYPI   C4B10176  13.758   7.443   7.974  0.0380 -0.0742 -0.0974
  641ERGO   ROH10177  10.232   2.446   8.283 -0.3110 -0.0182 -0.0810
  641ERGO    R110178  10.127   2.599   8.069 -0.0776  0.0347 -0.1609
  641ERGO    R210179  10.286   2.711   7.873  0.1067 -0.2117 -0.1537
  641ERGO    R310180  10.120   2.576   7.706 -0.0031 -0.0754 -0.1567
  641ERGO    R410181  10.236   2.787   7.539  0.2439 -0.2194 -0.1768
  641ERGO    R510182  10.024   2.746   7.567  0.1931  0.0003 -0.2050
  641ERGO    C110183  10.051   2.704   7.188  0.2207 -0.0959 -0.1931
  641ERGO    C210184  10.150   2.762   6.888 -0.0391 -0.0555 -0.0029
  642ERGO   ROH10185  15.729   2.768   9.084  0.2195 -0.0603  0.0070
  642ERGO    R110186  15.609   2.689   8.840  0.2563 -0.1768  0.0251
  642ERGO    R210187  15.369   2.793   8.752  0.0966 -0.4628  0.0975
  642ERGO    R310188  15.512   2.851   8.528 -0.0238 -0.2482  0.0742
  642ERGO    R410189  15.233   2.843   8.438 -0.0446 -0.3344  0.1781
  642ERGO    R510190  15.401   2.731   8.353 -0.0245 -0.1920  0.0422
  642ERGO    C110191  15.289   2.926   8.046 -0.2397 -0.0582  0.2031
  642ERGO    C210192  15.119   2.965   7.824  0.0186  0.3832 -0.0415
  643ERGO   ROH10193  16.593  14.481   9.639  0.1980 -0.0417  0.0631
  643ERGO    R110194  16.807  14.483   9.454  0.1253 -0.0190 -0.0218
  643ERGO    R210195  16.834  14.291   9.257  0.1499 -0.1031  0.0606
  643ERGO    R310196  16.843  14.507   9.092 -0.0310 -0.1776 -0.0492
  643ERGO    R410197  16.884  14.276   8.915  0.1624 -0.2328  0.0679
  643ERGO    R510198  17.012  14.452   8.932  0.0150 -0.1164 -0.0203
  643ERGO    C110199  16.921  14.470   8.562 -0.0003 -0.3783 -0.0310
  643ERGO    C210200  16.774  14.424   8.242 -0.0227  0.3057 -0.0236
  644ERGO   ROH10201   8.579  15.367   9.278 -0.1758 -0.1124  0.0295
  644ERGO    R110202   8.583  15.427   9.002 -0.1271 -0.0920  0.0346
  644ERGO    R210203   8.531  15.238   8.807 -0.2216 -0.0485  0.0160
  644ERGO    R310204   8.346  15.419   8.726 -0.1173  0.0615  0.0212
  644ERGO    R410205   8.345  15.215   8.517 -0.2055  0.0914 -0.0062
  644ERGO    R510206   8.371  15.429   8.488 -0.0888  0.0812  0.0255
  644ERGO    C110207   8.062  15.372   8.272 -0.0983  0.2761 -0.0142
  644ERGO    C210208   7.728  15.310   8.190  0.1708  0.0933  0.0924
  645ERGO   ROH10209   0.356   0.607   8.853 -0.3515  0.1700  0.2336
  645ERGO    R110210   0.175   0.590   8.637 -0.2356  0.1753  0.1353
  645ERGO    R210211   0.100   0.810   8.487 -0.0786  0.1635  0.0351
  645ERGO    R310212   0.184   0.656   8.279 -0.0105  0.0813  0.1219
  645ERGO    R410213   0.077   0.899   8.154 -0.1300 -0.0450 -0.0190
  645ERGO    R510214   0.020   0.694   8.108 -0.0320 -0.0989  0.1026
  645ERGO    C110215   0.141   0.808   7.765 -0.0960 -0.2436  0.0309
  645ERGO    C210216   0.346   0.793   7.458  0.0025 -0.0915  0.2168
  646ERGO   ROH10217   6.957   9.335   8.775 -0.0462 -0.2012  0.1861
  646ERGO    R110218   7.059   9.309   8.512  0.0239 -0.0610  0.1999
  646ERGO    R210219   6.895   9.306   8.288  0.0717 -0.1268  0.1767
  646ERGO    R310220   7.058   9.508   8.207 -0.0605  0.0128  0.2445
  646ERGO    R410221   6.917   9.426   7.965  0.0750 -0.0996  0.1853
  646ERGO    R510222   7.132   9.441   7.990  0.0652  0.0734  0.2602
  646ERGO    C110223   7.083   9.685   7.700 -0.0472  0.0474  0.2539
  646ERGO    C210224   7.096   9.819   7.406 -0.0548  0.0306 -0.1571
  647ERGO   ROH10225   0.030  17.878   9.777 -0.0382 -0.1752  0.1131
  647ERGO    R110226   0.041  17.870   9.495 -0.1070 -0.1078  0.1093
  647ERGO    R210227  -0.110  18.038   9.335  0.0353  0.0939  0.1922
  647ERGO    R310228   0.132  18.100   9.227  0.0771 -0.1281  0.1517
  647ERGO    R410229  -0.058  18.137   9.008  0.0237  0.3154  0.2543
  647ERGO    R510230   0.122  18.014   9.004 -0.1315  0.0764  0.0751
  647ERGO    C110231   0.200  18.252   8.716  0.0557  0.2362  0.2525
  647ERGO    C210232   0.324  18.283   8.421  0.3636  0.0323  0.1596
  648ERGO   ROH10233  18.069  11.039   9.265  0.2762 -0.0104 -0.1436
  648ERGO    R110234  18.190  11.147   9.033  0.1252 -0.0890 -0.2603
  648ERGO    R210235  18.154  11.037   8.782 -0.2777 -0.0023 -0.2462
  648ERGO    R310236  18.077  11.290   8.718 -0.0893  0.0947 -0.1037
  648ERGO    R410237  18.266  11.215   8.507 -0.1516  0.0649 -0.1529
  648ERGO    R510238  18.275  11.393   8.632 -0.0113 -0.0082 -0.0526
  648ERGO    C110239  18.259  11.555   8.287  0.0987  0.1951  0.0354
  648ERGO    C210240  18.199  11.773   8.123 -0.2589  0.0857 -0.3184
  649ERGO   ROH10241  13.712  16.469   9.628 -0.2404 -0.0118  0.0039
  649ERGO    R110242  13.792  16.448   9.357 -0.3013  0.0331 -0.0174
  649ERGO    R210243  13.634  16.536   9.149 -0.1725  0.4537  0.0546
  649ERGO    R310244  13.856  16.677   9.082  0.0736  0.1157  0.1322
  649ERGO    R410245  13.727  16.617   8.826 -0.0580  0.5031  0.0990
  649ERGO    R510246  13.933  16.574   8.880 -0.1201  0.1076  0.0589
  649ERGO    C110247  13.990  16.797   8.575  0.2396  0.2147  0.1978
  649ERGO    C210248  13.962  17.001   8.230 -0.1383 -0.5859 -0.0267
  650ERGO   ROH10249   0.294   7.038   9.249  0.1339  0.1567 -0.0580
  650ERGO    R110250   0.334   7.085   8.973  0.0619  0.1290 -0.0727
  650ERGO    R210251   0.434   6.893   8.802  0.0217  0.1154 -0.0766
  650ERGO    R310252   0.209   6.947   8.660 -0.0146  0.0948 -0.0281
  650ERGO    R410253   0.394   6.828   8.465 -0.0525  0.0793 -0.0614
  650ERGO    R510254   0.290   7.020   8.446 -0.0641  0.0769 -0.0556
  650ERGO    C110255   0.159   6.842   8.135 -0.1299  0.0390 -0.0072
  650ERGO    C210256   0.144   6.786   7.738 -0.2158 -0.0925  0.0215
  651ERGO   ROH10257  11.489  15.849   9.498  0.2509  0.1675  0.1779
  651ERGO    R110258  11.453  15.868   9.218  0.1930  0.0184  0.1747
  651ERGO    R210259  11.652  15.957   9.048  0.1495 -0.0527  0.0881
  651ERGO    R310260  11.604  15.721   8.921  0.1449 -0.1222  0.2192
  651ERGO    R410261  11.744  15.887   8.722 -0.1921 -0.0951 -0.0031
  651ERGO    R510262  11.552  15.785   8.696 -0.1630 -0.2244  0.2565
  651ERGO    C110263  11.752  15.625   8.413 -0.3952 -0.1850  0.0669
  651ERGO    C210264  11.731  15.602   8.033 -0.3706 -0.2778  0.0484
  652ERGO   ROH10265   8.393   5.317   8.485 -0.0749  0.3423  0.0695
  652ERGO    R110266   8.512   5.436   8.257 -0.0735  0.2177  0.0049
  652ERGO    R210267   8.624   5.287   8.053 -0.0841  0.1059  0.0822
  652ERGO    R310268   8.455   5.432   7.898 -0.0788  0.0326  0.0062
  652ERGO    R410269   8.679   5.366   7.721  0.0535  0.1661  0.1178
  652ERGO    R510270   8.599   5.565   7.760 -0.0723  0.1223  0.0959
  652ERGO    C110271   8.551   5.547   7.382  0.1386  0.1323  0.0670
  652ERGO    C210272   8.675   5.432   7.099 -0.3762 -0.0699 -0.1770
  653ERGO   ROH10273  12.966  15.623   9.476 -0.1323  0.0215  0.0048
  653ERGO    R110274  12.955  15.662   9.196  0.0498  0.0394 -0.0017
  653ERGO    R210275  13.181  15.698   9.041  0.1780 -0.2889  0.0980
  653ERGO    R310276  13.078  15.490   8.900 -0.0646 -0.1435  0.0560
  653ERGO    R410277  13.226  15.647   8.702  0.0131 -0.2111  0.0637
  653ERGO    R510278  13.018  15.584   8.689 -0.0495 -0.0124  0.1110
  653ERGO    C110279  13.155  15.421   8.373 -0.3105 -0.0294  0.0043
  653ERGO    C210280  13.175  15.377   8.082  0.0077  0.1819 -0.0816
  654ERGO   ROH10281   2.353   7.450   9.155  0.0307 -0.0862 -0.0015
  654ERGO    R110282   2.358   7.651   8.956  0.1059  0.0340  0.1197
  654ERGO    R210283   2.579   7.698   8.797  0.0576 -0.0879  0.0121
  654ERGO    R310284   2.401   7.665   8.595 -0.1044  0.2120  0.1001
  654ERGO    R410285   2.627   7.805   8.472  0.0570 -0.1358 -0.0037
  654ERGO    R510286   2.418   7.867   8.467  0.1481  0.1979  0.1102
  654ERGO    C110287   2.488   7.837   8.093 -0.0954  0.1179  0.0697
  654ERGO    C210288   2.484   7.791   7.816  0.0884 -0.3174  0.0416
  655ERGO   ROH10289  10.662  15.779   9.527 -0.1594 -0.1972  0.0291
  655ERGO    R110290  10.802  15.873   9.300 -0.2347 -0.1823 -0.0122
  655ERGO    R210291  11.036  15.756   9.210 -0.0961  0.0097  0.0839
  655ERGO    R310292  10.900  15.741   8.975 -0.0598 -0.2766  0.0783
  655ERGO    R410293  11.179  15.691   8.902  0.0426  0.2367  0.0982
  655ERGO    R510294  11.046  15.840   8.815 -0.2359 -0.0194  0.0731
  655ERGO    C110295  11.134  15.639   8.502  0.1574  0.1002  0.1010
  655ERGO    C210296  11.304  15.522   8.225 -0.2438 -0.2226 -0.0284
  656ERGO   ROH10297  13.355   2.141   8.770  0.2226 -0.0476  0.2184
  656ERGO    R110298  13.207   1.963   8.607  0.0879  0.1242  0.1510
  656ERGO    R210299  13.122   2.030   8.353  0.2466  0.2409  0.1286
  656ERGO    R310300  13.252   1.802   8.284  0.0275  0.1060  0.1512
  656ERGO    R410301  13.038   1.828   8.086  0.1190  0.3550  0.0803
  656ERGO    R510302  13.079   1.654   8.211 -0.1083  0.2967  0.0783
  656ERGO    C110303  13.112   1.495   7.865 -0.1610  0.2948  0.0735
  656ERGO    C210304  12.966   1.438   7.617  0.1143  0.0993 -0.1484
  657ERGO   ROH10305   9.733   2.824   8.448  0.0463  0.0747  0.1444
  657ERGO    R110306   9.754   3.018   8.243  0.0800  0.1628  0.2285
  657ERGO    R210307   9.994   3.082   8.123  0.0677  0.0354  0.1190
  657ERGO    R310308   9.858   3.025   7.894 -0.1152  0.2499  0.1721
  657ERGO    R410309  10.104   3.157   7.804 -0.0256  0.0092  0.0818
  657ERGO    R510310   9.900   3.213   7.752  0.0094  0.2441  0.2066
  657ERGO    C110311  10.041   3.147   7.404 -0.2516  0.1953  0.1099
  657ERGO    C210312  10.142   3.289   7.128  0.0199  0.0482  0.4309
  658ERGO   ROH10313  18.016   1.049   9.283 -0.0668 -0.0510  0.0964
  658ERGO    R110314  18.133   0.872   9.096 -0.0126 -0.0185  0.0999
  658ERGO    R210315  18.144   0.599   9.137 -0.0092 -0.0214  0.0644
  658ERGO    R310316  18.022   0.590   8.894  0.0516  0.0040  0.0318
  658ERGO    R410317  18.217   0.370   8.889 -0.1084 -0.1465  0.1490
  658ERGO    R510318  18.197   0.530   8.742  0.0536 -0.1699  0.0976
  658ERGO    C110319  18.144   0.227   8.516 -0.1092 -0.1955  0.1678
  658ERGO    C210320  18.156  -0.001   8.331  0.1966 -0.0063  0.1968
  659ERGO   ROH10321   1.189   4.770   9.279  0.0270  0.2597 -0.1814
  659ERGO    R110322   1.223   4.774   8.998 -0.0505  0.0894 -0.1936
  659ERGO    R210323   1.212   4.545   8.844 -0.0920 -0.0031 -0.0512
  659ERGO    R310324   1.024   4.686   8.707 -0.1294 -0.0888 -0.0879
  659ERGO    R410325   1.124   4.488   8.514  0.0739  0.0223 -0.1010
  659ERGO    R510326   1.113   4.704   8.485 -0.0531  0.0245 -0.0494
  659ERGO    C110327   0.897   4.587   8.194  0.1354 -0.0433 -0.1644
  659ERGO    C210328   0.900   4.569   7.770  0.2417  0.1699 -0.0305
  660ERGO   ROH10329   2.567  17.580   9.169  0.0110  0.0665 -0.0969
  660ERGO    R110330   2.514  17.731   8.935 -0.0649 -0.0199 -0.1369
  660ERGO    R210331   2.677  17.722   8.712 -0.0763 -0.0184 -0.1473
  660ERGO    R310332   2.445  17.660   8.585 -0.0613 -0.1471 -0.1124
  660ERGO    R410333   2.646  17.671   8.372 -0.1442  0.2359 -0.1810
  660ERGO    R510334   2.458  17.779   8.377 -0.2555  0.0422 -0.0195
  660ERGO    C110335   2.411  17.583   8.054 -0.1696  0.2633 -0.1679
  660ERGO    C210336   2.321  17.428   7.810  0.0812  0.0408  0.2214
  661ERGO   ROH10337   6.840  19.340   8.609  0.4297 -0.4569  0.1201
  661ERGO    R110338   6.747  19.415   8.353  0.2236 -0.1961  0.2656
  661ERGO    R210339   6.916  19.514   8.157  0.0685 -0.0017  0.2270
  661ERGO    R310340   6.809  19.313   8.009 -0.0516  0.1474  0.1075
  661ERGO    R410341   6.939  19.489   7.813  0.4940 -0.0723  0.2557
  661ERGO    R510342   6.732  19.421   7.809  0.3843  0.2520 -0.0146
  661ERGO    C110343   6.853  19.285   7.474  0.6290  0.0267  0.1603
  661ERGO    C210344   6.982  19.290   7.244  0.0984  0.2006 -0.2363
  662ERGO   ROH10345   3.280  18.441   9.369  0.1745 -0.2537 -0.1872
  662ERGO    R110346   3.209  18.404   9.097 -0.0348 -0.1063 -0.1548
  662ERGO    R210347   2.973  18.499   8.991 -0.0138  0.1524  0.0241
  662ERGO    R310348   3.139  18.617   8.811 -0.0145  0.0472 -0.0470
  662ERGO    R410349   2.880  18.600   8.674  0.0033 -0.1110 -0.0680
  662ERGO    R510350   3.071  18.527   8.600  0.0290 -0.1312  0.0124
  662ERGO    C110351   2.981  18.771   8.321  0.0126 -0.3627 -0.1883
  662ERGO    C210352   2.990  18.918   8.046 -0.1198 -0.1851 -0.3898
  663ERGO   ROH10353   4.229   3.826   9.254  0.1205  0.1322  0.0257
  663ERGO    R110354   4.131   3.851   8.989  0.0798  0.1058  0.0385
  663ERGO    R210355   4.035   4.089   8.888  0.0663  0.0950  0.0299
  663ERGO    R310356   4.218   4.043   8.692  0.0347  0.0744  0.0045
  663ERGO    R410357   4.002   4.188   8.558 -0.0280 -0.0150  0.0055
  663ERGO    R510358   4.087   3.997   8.498  0.0014 -0.0162  0.0468
  663ERGO    C110359   4.154   4.202   8.183 -0.1126 -0.0984 -0.0327
  663ERGO    C210360   4.246   4.292   7.867 -0.0049 -0.0662  0.0150
  664ERGO   ROH10361   7.683   2.379   8.482 -0.2543  0.0621 -0.0164
  664ERGO    R110362   7.728   2.176   8.290  0.1237  0.1273 -0.0014
  664ERGO    R210363   7.541   2.106   8.100  0.2162 -0.2882  0.0554
  664ERGO    R310364   7.745   2.154   7.928  0.0814  0.1176 -0.0034
  664ERGO    R410365   7.543   2.018   7.766  0.1693  0.0094 -0.0269
  664ERGO    R510366   7.752   1.961   7.787  0.2551  0.2449 -0.1779
  664ERGO    C110367   7.736   2.012   7.409  0.0154  0.5637 -0.1300
  664ERGO    C210368   7.588   2.044   7.137 -0.1248 -0.1400 -0.1911
  665ERGO   ROH10369   3.077  14.501   9.387  0.0459 -0.0984 -0.0280
  665ERGO    R110370   3.218  14.440   9.149  0.1222 -0.0032 -0.0086
  665ERGO    R210371   3.094  14.335   8.925  0.2306 -0.1315 -0.0150
  665ERGO    R310372   3.209  14.548   8.802  0.0631 -0.0424 -0.0179
  665ERGO    R410373   3.160  14.356   8.586  0.2348 -0.0828 -0.0107
  665ERGO    R510374   3.349  14.451   8.634  0.1507  0.0724 -0.0061
  665ERGO    C110375   3.306  14.568   8.274  0.0800  0.0294 -0.0109
  665ERGO    C210376   3.314  14.477   8.039  0.0695 -0.1502 -0.3410
  666ERGO   ROH10377  13.823   2.860   9.328  0.1545  0.2402 -0.0950
  666ERGO    R110378  13.967   2.971   9.110  0.0989  0.1709 -0.1680
  666ERGO    R210379  14.097   2.815   8.923  0.1531  0.1133 -0.0823
  666ERGO    R310380  13.948   2.959   8.747  0.0865 -0.0515 -0.1614
  666ERGO    R410381  14.161   2.838   8.584  0.1469 -0.0418 -0.0943
  666ERGO    R510382  14.108   3.050   8.594  0.0468 -0.0589 -0.2090
  666ERGO    C110383  14.058   2.986   8.222  0.0806 -0.2868 -0.1755
  666ERGO    C210384  14.319   2.926   7.989  0.0823  0.0536 -0.2320
  667ERGO   ROH10385   7.811   0.054   8.932 -0.1359 -0.1776 -0.2345
  667ERGO    R110386   7.819   0.042   8.650 -0.0153 -0.0606 -0.2393
  667ERGO    R210387   7.651   0.193   8.490 -0.0659 -0.1101 -0.2528
  667ERGO    R310388   7.885   0.275   8.377 -0.0726  0.1000 -0.1140
  667ERGO    R410389   7.688   0.297   8.162  0.0962 -0.3350 -0.3060
  667ERGO    R510390   7.877   0.189   8.154  0.2410 -0.0936 -0.0497
  667ERGO    C110391   7.929   0.433   7.866  0.1843 -0.2687 -0.2066
  667ERGO    C210392   7.875   0.543   7.458  0.1873  0.2930  0.5856
  668ERGO   ROH10393   3.614   9.060   9.152 -0.0180  0.1101 -0.1197
  668ERGO    R110394   3.521   8.898   8.940  0.0149  0.1252 -0.1458
  668ERGO    R210395   3.514   8.985   8.677  0.1313  0.1162 -0.1530
  668ERGO    R310396   3.660   8.760   8.632  0.0888  0.0761 -0.0907
  668ERGO    R410397   3.581   8.852   8.366 -0.0084 -0.0599 -0.1092
  668ERGO    R510398   3.550   8.653   8.449  0.0033 -0.0118  0.0110
  668ERGO    C110399   3.758   8.563   8.142 -0.1297 -0.2003 -0.0252
  668ERGO    C210400   3.695   8.528   7.718  0.2405  0.2875  0.1631
  669ERGO   ROH10401   8.097  18.339   9.049  0.2012 -0.0823  0.1028
  669ERGO    R110402   7.943  18.357   8.812  0.0968 -0.1201  0.1672
  669ERGO    R210403   8.026  18.499   8.591 -0.0669 -0.0318  0.1582
  669ERGO    R310404   7.983  18.263   8.463  0.0101 -0.0329  0.1341
  669ERGO    R410405   7.983  18.464   8.249  0.1621 -0.0442  0.1291
  669ERGO    R510406   7.827  18.317   8.289  0.1306 -0.0351  0.0267
  669ERGO    C110407   7.917  18.222   7.931  0.3679 -0.0527  0.0894
  669ERGO    C210408   8.010  18.261   7.518  0.4354  0.2275  0.0968
  670ERGO   ROH10409  18.076   7.351   9.341 -0.1215  0.0468  0.0878
  670ERGO    R110410  18.145   7.418   9.075  0.1034 -0.0812  0.1122
  670ERGO    R210411  18.292   7.249   8.912 -0.1299 -0.3491  0.1797
  670ERGO    R310412  18.081   7.282   8.744 -0.0094  0.0207  0.0901
  670ERGO    R410413  18.316   7.292   8.570  0.0969 -0.3865  0.1885
  670ERGO    R510414  18.158   7.440   8.582  0.3423 -0.1034  0.1215
  670ERGO    C110415  18.132   7.348   8.213  0.3423 -0.0613  0.1096
  670ERGO    C210416  18.077   7.372   7.872 -0.1130  0.1538 -0.1624
  671ERGO   ROH10417   7.676   7.764   8.442 -0.1316  0.3842 -0.0052
  671ERGO    R110418   7.654   7.982   8.263 -0.0036  0.4146  0.0159
  671ERGO    R210419   7.874   8.123   8.171  0.1048  0.1205 -0.1790
  671ERGO    R310420   7.771   8.061   7.928 -0.1980  0.2578 -0.0932
  671ERGO    R410421   7.951   8.286   7.877  0.2029 -0.0751 -0.2642
  671ERGO    R510422   7.741   8.273   7.820  0.1197  0.3056 -0.1070
  671ERGO    C110423   7.899   8.324   7.476 -0.0241 -0.0599 -0.2334
  671ERGO    C210424   8.066   8.416   7.173  0.2027  0.0625 -0.0342
  672ERGO   ROH10425  18.608  12.207   9.961 -0.4331 -0.1214 -0.1369
  672ERGO    R110426  18.502  12.232   9.699 -0.2493  0.0200 -0.1999
  672ERGO    R210427  18.579  12.434   9.527  0.0075  0.0111 -0.1049
  672ERGO    R310428  18.633  12.227   9.360 -0.0341  0.0111 -0.1178
  672ERGO    R410429  18.652  12.466   9.191  0.1600  0.0217 -0.0715
  672ERGO    R510430  18.529  12.289   9.153  0.0844  0.0950 -0.1493
  672ERGO    C110431  18.744  12.290   8.838  0.2100  0.0279 -0.0643
  672ERGO    C210432  18.733  12.210   8.499  0.1621  0.0115  0.1890
  673ERGO   ROH10433  15.294   8.447   9.245 -0.0504  0.2823  0.2516
  673ERGO    R110434  15.122   8.461   9.021 -0.1500  0.0735  0.3121
  673ERGO    R210435  15.214   8.448   8.761 -0.1899  0.4353  0.2746
  673ERGO    R310436  15.033   8.246   8.741  0.2148  0.0639  0.1980
  673ERGO    R410437  15.045   8.362   8.472 -0.1742  0.3473  0.2912
  673ERGO    R510438  14.866   8.331   8.592 -0.0527 -0.1412  0.3700
  673ERGO    C110439  14.777   8.123   8.285  0.2149 -0.0523  0.2291
  673ERGO    C210440  14.690   7.809   8.090  0.1647  0.0118 -0.0611
  674PSPI    C110441   5.529  17.885   4.936  0.0419 -0.1512 -0.0313
  674PSPI    C210442   5.464  18.042   4.574  0.0099  0.0798  0.0732
  674PSPI    C310443   5.829  17.909   4.672  0.0303  0.0619 -0.0264
  674PSPI   PO410444   5.483  18.096   5.142  0.3443  0.0573  0.1887
  674PSPI   GL110445   5.667  18.284   5.503  0.3340 -0.0851 -0.4557
  674PSPI   GL210446   5.491  18.000   5.694  0.2763 -0.1572 -0.0075
  674PSPI   C1A10447   5.968  18.094   5.800 -0.3065  0.0904  0.0253
  674PSPI   C2A10448   6.206  18.018   6.128 -0.0104 -0.2690  0.2776
  674PSPI   C3A10449   6.179  17.658   6.437  0.2526 -0.1379 -0.0600
  674PSPI   C4A10450   6.221  17.348   6.799  0.2383 -0.1713  0.0023
  674PSPI   C1B10451   5.583  18.058   6.118 -0.0759 -0.1396 -0.2530
  674PSPI   C2B10452   5.769  17.977   6.444 -0.2345 -0.0615 -0.0684
  674PSPI   C3B10453   6.096  18.200   6.577  0.0857  0.3444 -0.0034
  674PSPI   C4B10454   6.314  18.413   6.831  0.2495  0.3666 -0.0597
  675PSPI    C110455   7.466   2.527   4.052  0.0012  0.0715  0.1197
  675PSPI    C210456   7.218   2.839   4.089  0.0082  0.0688  0.1900
  675PSPI    C310457   7.614   2.893   4.112  0.0259  0.1096 -0.1604
  675PSPI   PO410458   7.447   2.410   4.301 -0.0293 -0.0493  0.1281
  675PSPI   GL110459   7.560   2.740   4.576 -0.2114  0.3784 -0.1197
  675PSPI   GL210460   7.748   2.525   4.679  0.1624 -0.0719 -0.1045
  675PSPI   C1A10461   7.711   2.979   4.925  0.0502  0.0616 -0.0477
  675PSPI   C2A10462   8.079   2.952   5.111 -0.0728 -0.0300  0.1225
  675PSPI   C3A10463   8.494   2.980   5.166 -0.2024 -0.3518  0.1920
  675PSPI   C4A10464   8.769   2.651   5.053  0.2032  0.0736 -0.0256
  675PSPI   C1B10465   7.585   2.588   5.134  0.2867  0.1945 -0.0667
  675PSPI   C2B10466   7.617   2.749   5.598 -0.0595  0.4905 -0.1378
  675PSPI   C3B10467   7.656   2.777   6.078  0.3037  0.1325 -0.0863
  675PSPI   C4B10468   7.662   2.952   6.468  0.1173 -0.0751  0.2678
  676PSPI    C110469   7.396  12.899   5.048  0.1203 -0.0534  0.1108
  676PSPI    C210470   7.488  12.525   4.939  0.0878 -0.0186 -0.0375
  676PSPI    C310471   7.361  12.788   4.666  0.0167  0.0732  0.0830
  676PSPI   PO410472   7.197  12.869   5.260 -0.1541  0.1199 -0.4254
  676PSPI   GL110473   7.111  12.822   5.743 -0.1276 -0.0721  0.0028
  676PSPI   GL210474   7.088  13.040   5.997 -0.4325  0.0932  0.2466
  676PSPI   C1A10475   7.496  12.690   5.911  0.0138  0.0211  0.1891
  676PSPI   C2A10476   7.585  12.830   6.404 -0.0631  0.3184  0.1754
  676PSPI   C3A10477   7.798  13.101   6.645 -0.1677 -0.2296  0.2525
  676PSPI   C4A10478   7.829  13.055   7.043 -0.1208 -0.1234 -0.0132
  676PSPI   C1B10479   7.141  13.074   6.527  0.1097 -0.3488 -0.0172
  676PSPI   C2B10480   7.406  13.306   6.951  0.1778 -0.1147  0.2181
  676PSPI   C3B10481   7.663  13.498   7.214 -0.3657 -0.0452  0.2443
  676PSPI   C4B10482   7.744  13.526   7.692 -0.1909  0.1539 -0.1478
  677PSPI    C110483   6.353   5.212   4.410 -0.2953  0.3234  0.2166
  677PSPI    C210484   6.212   5.096   4.054 -0.0451 -0.0352  0.2286
  677PSPI    C310485   5.960   5.223   4.338 -0.2711  0.0005  0.0160
  677PSPI   PO410486   6.641   5.251   4.443  0.1545 -0.1350 -0.0472
  677PSPI   GL110487   6.948   5.166   4.701 -0.2100  0.1641 -0.0872
  677PSPI   GL210488   7.234   5.126   4.871 -0.1958  0.0678  0.0022
  677PSPI   C1A10489   6.815   5.041   5.131  0.2342 -0.4158 -0.0003
  677PSPI   C2A10490   6.759   4.985   5.672  0.2571  0.2176  0.2567
  677PSPI   C3A10491   6.529   4.839   6.037  0.1163 -0.0814  0.3785
  677PSPI   C4A10492   6.562   4.904   6.401  0.2381 -0.0572 -0.2215
  677PSPI   C1B10493   7.256   5.145   5.265 -0.0909  0.0684  0.1131
  677PSPI   C2B10494   7.256   5.021   5.607  0.3072  0.3382  0.1130
  677PSPI   C3B10495   7.329   5.180   6.023  0.0832  0.0020 -0.1478
  677PSPI   C4B10496   7.026   5.133   6.399 -0.1120 -0.3043 -0.0203
  678PSPI    C110497   7.898   9.496   4.795 -0.0474 -0.1528  0.1341
  678PSPI    C210498   7.533   9.434   4.642 -0.0216  0.1312 -0.0498
  678PSPI    C310499   7.856   9.399   4.409  0.0673 -0.0745  0.1015
  678PSPI   PO410500   7.944   9.318   5.024 -0.2938 -0.4846  0.1945
  678PSPI   GL110501   8.036   9.278   5.398  0.0011 -0.0350 -0.0134
  678PSPI   GL210502   8.244   9.125   5.422 -0.0979  0.0384  0.0152
  678PSPI   C1A10503   7.873   9.475   5.755  0.3502  0.1106 -0.1196
  678PSPI   C2A10504   7.556   9.417   6.134 -0.0162 -0.0245  0.1168
  678PSPI   C3A10505   7.494   9.429   6.615 -0.4421 -0.1766  0.2381
  678PSPI   C4A10506   7.151   9.537   6.888  0.0514 -0.5160 -0.1604
  678PSPI   C1B10507   8.416   9.331   5.814  0.1998  0.2414  0.0692
  678PSPI   C2B10508   8.155   9.447   6.154 -0.0155 -0.0549  0.1173
  678PSPI   C3B10509   7.960   9.276   6.408  0.2614  0.1658 -0.0036
  678PSPI   C4B10510   7.811   8.997   6.388 -0.2729 -0.0475  0.0298
  679PSPI    C110511   3.021  10.531   5.330  0.1323 -0.0872 -0.2015
  679PSPI    C210512   2.762  10.230   5.379  0.0044  0.0803  0.1874
  679PSPI    C310513   2.719  10.483   5.072  0.0753 -0.2561 -0.1052
  679PSPI   PO410514   3.065  10.582   5.581 -0.2104  0.0821  0.1756
  679PSPI   GL110515   3.343  10.809   5.921 -0.2070 -0.3989  0.1024
  679PSPI   GL210516   3.186  11.161   5.800 -0.3686  0.2618  0.0526
  679PSPI   C1A10517   3.633  10.842   6.287  0.3597 -0.0245 -0.5736
  679PSPI   C2A10518   3.703  10.892   6.774  0.2528  0.1117 -0.2468
  679PSPI   C3A10519   3.871  11.095   7.152 -0.0277  0.2090 -0.2017
  679PSPI   C4A10520   4.226  11.271   7.197  0.3017 -0.1315 -0.1795
  679PSPI   C1B10521   3.196  11.190   6.220  0.1505 -0.0120  0.3598
  679PSPI   C2B10522   3.263  11.105   6.698 -0.0386 -0.2188 -0.1813
  679PSPI   C3B10523   3.271  10.854   7.073 -0.0586 -0.0170  0.0257
  679PSPI   C4B10524   3.620  10.740   7.348  0.0620 -0.2564  0.0840
  680PSPI    C110525  14.415   9.563   5.347  0.0245 -0.2281 -0.0377
  680PSPI    C210526  14.485   9.195   5.207 -0.4390 -0.3026 -0.0904
  680PSPI    C310527  14.170   9.403   5.074 -0.2303  0.0826  0.0024
  680PSPI   PO410528  14.403   9.529   5.627 -0.3568  0.0071 -0.0814
  680PSPI   GL110529  14.580   9.706   5.989  0.0765  0.2629  0.1475
  680PSPI   GL210530  14.485   9.269   6.093  0.0990  0.1389  0.0733
  680PSPI   C1A10531  14.475   9.760   6.427  0.1704  0.1101  0.1309
  680PSPI   C2A10532  14.650   9.734   6.884  0.0206 -0.0734 -0.0412
  680PSPI   C3A10533  14.595   9.430   7.198 -0.0740 -0.3664 -0.1166
  680PSPI   C4A10534  14.263   9.081   7.229  0.2388 -0.0702  0.0469
  680PSPI   C1B10535  14.070   9.342   6.213  0.0529 -0.1635  0.3607
  680PSPI   C2B10536  13.973   9.542   6.544  0.2612 -0.0418 -0.5277
  680PSPI   C3B10537  14.152   9.912   6.791 -0.0051  0.3492  0.0545
  680PSPI   C4B10538  14.110  10.212   7.131  0.1900  0.0706 -0.1431
  681PSPI    C110539   4.253  12.133   4.959  0.1923  0.1225  0.1469
  681PSPI    C210540   4.369  11.771   5.084  0.0871 -0.0298 -0.1866
  681PSPI    C310541   4.074  11.806   4.815 -0.1303  0.3202  0.0879
  681PSPI   PO410542   4.325  12.282   5.210  0.1256  0.1267 -0.0819
  681PSPI   GL110543   4.057  12.336   5.581  0.0652  0.1187 -0.2784
  681PSPI   GL210544   3.963  12.069   5.767  0.0894  0.1685  0.3105
  681PSPI   C1A10545   4.278  12.636   5.957  0.0104 -0.3530  0.0885
  681PSPI   C2A10546   4.694  12.495   6.129 -0.0464 -0.4044 -0.2748
  681PSPI   C3A10547   4.935  12.197   6.409  0.1457 -0.1359 -0.0524
  681PSPI   C4A10548   5.095  12.195   6.846 -0.2779  0.4961 -0.1811
  681PSPI   C1B10549   3.809  12.410   6.025 -0.2262  0.3737  0.4072
  681PSPI   C2B10550   3.651  12.311   6.449  0.0534 -0.0752  0.0064
  681PSPI   C3B10551   3.494  12.582   6.811 -0.1216 -0.2350  0.2068
  681PSPI   C4B10552   3.584  12.713   7.337  0.1082 -0.0717  0.0523
  682PSPI    C110553  16.346   4.877   5.438 -0.2483 -0.0284 -0.0673
  682PSPI    C210554  16.221   4.512   5.333 -0.1013 -0.0836 -0.0533
  682PSPI    C310555  16.319   4.778   5.051 -0.0334 -0.1168 -0.0612
  682PSPI   PO410556  16.264   4.906   5.645  0.2953 -0.1000 -0.0039
  682PSPI   GL110557  15.984   4.808   5.869  0.5077 -0.2572 -0.0063
  682PSPI   GL210558  15.719   4.619   5.905 -0.3017  0.2869  0.2268
  682PSPI   C1A10559  16.187   5.011   6.265 -0.1085  0.1158 -0.0756
  682PSPI   C2A10560  16.046   5.098   6.632 -0.0418 -0.2798  0.1824
  682PSPI   C3A10561  15.658   4.975   6.938 -0.1293  0.0707  0.0431
  682PSPI   C4A10562  15.460   4.929   7.293  0.2378  0.0444 -0.1473
  682PSPI   C1B10563  15.755   4.756   6.397 -0.1367  0.0492 -0.0192
  682PSPI   C2B10564  15.532   4.480   6.744  0.1455  0.1294 -0.2984
  682PSPI   C3B10565  15.475   4.348   7.167 -0.0367 -0.0337 -0.1115
  682PSPI   C4B10566  15.791   4.515   7.375 -0.0369 -0.2242 -0.2082
  683PSPI    C110567  14.940  13.964   5.599  0.1052 -0.0418  0.2948
  683PSPI    C210568  15.304  14.123   5.651  0.1969 -0.1095 -0.1123
  683PSPI    C310569  15.027  14.321   5.440  0.1505 -0.2650 -0.1987
  683PSPI   PO410570  15.048  13.662   5.607 -0.1868 -0.2493  0.4139
  683PSPI   GL110571  15.247  13.439   5.865  0.1091  0.0692 -0.0016
  683PSPI   GL210572  15.418  13.217   5.771 -0.0414 -0.2562 -0.0170
  683PSPI   C1A10573  15.045  13.376   6.292  0.1371 -0.0514  0.3285
  683PSPI   C2A10574  15.014  13.336   6.812  0.1390  0.2892 -0.0696
  683PSPI   C3A10575  14.878  13.396   7.330 -0.2216  0.1077  0.3081
  683PSPI   C4A10576  14.683  13.447   7.783 -0.0578  0.2485 -0.0340
  683PSPI   C1B10577  15.542  13.232   6.191  0.2164  0.2645  0.0605
  683PSPI   C2B10578  15.438  13.176   6.523  0.2764  0.2780  0.2914
  683PSPI   C3B10579  15.624  13.013   6.893  0.1953 -0.1999  0.1824
  683PSPI   C4B10580  15.559  12.633   6.927 -0.1280 -0.1178  0.2474
  684PSPI    C110581   5.831   6.729   4.506  0.0513 -0.1152 -0.0852
  684PSPI    C210582   6.063   6.630   4.196  0.1708  0.2008 -0.1009
  684PSPI    C310583   5.841   6.962   4.181 -0.2084 -0.0430 -0.0438
  684PSPI   PO410584   6.027   6.674   4.742  0.3302  0.1880 -0.1239
  684PSPI   GL110585   5.780   6.590   5.161 -0.1041  0.1407  0.1110
  684PSPI   GL210586   5.600   6.373   5.164  0.0438 -0.0977  0.1347
  684PSPI   C1A10587   5.785   6.600   5.557 -0.1741 -0.1063 -0.0475
  684PSPI   C2A10588   5.947   6.765   5.891 -0.2591  0.3395 -0.0905
  684PSPI   C3A10589   6.083   6.708   6.304  0.0521  0.1412 -0.0229
  684PSPI   C4A10590   6.177   6.961   6.634  0.0330  0.0162  0.3102
  684PSPI   C1B10591   5.182   6.341   5.450  0.1806  0.1432 -0.1677
  684PSPI   C2B10592   4.987   5.995   5.441 -0.3172 -0.1456 -0.0660
  684PSPI   C3B10593   5.122   5.565   5.637  0.0595  0.2305  0.2732
  684PSPI   C4B10594   5.347   5.327   5.824 -0.1666 -0.0936  0.1003
  685PSPI    C110595   5.334  14.187   5.724 -0.1407 -0.2934 -0.1900
  685PSPI    C210596   5.505  14.510   5.561 -0.0877 -0.2079  0.0326
  685PSPI    C310597   5.733  14.211   5.698 -0.1255 -0.2090  0.0934
  685PSPI   PO410598   5.230  14.261   5.904 -0.1577  0.2506  0.0398
  685PSPI   GL110599   4.914  14.527   6.090 -0.0867 -0.0883 -0.0224
  685PSPI   GL210600   4.857  14.921   6.105 -0.0518  0.1255 -0.4324
  685PSPI   C1A10601   4.537  14.585   6.403  0.0466 -0.1018 -0.0635
  685PSPI   C2A10602   4.475  14.403   6.880  0.1747  0.0378  0.0485
  685PSPI   C3A10603   4.821  14.302   7.153  0.0344 -0.2092  0.2889
  685PSPI   C4A10604   5.287  14.281   7.110  0.2945  0.1809  0.1510
  685PSPI   C1B10605   4.754  14.979   6.651 -0.3569  0.0360  0.1586
  685PSPI   C2B10606   4.704  14.908   7.055 -0.1301  0.1145  0.1761
  685PSPI   C3B10607   4.885  14.711   7.509  0.0230 -0.1136 -0.1637
  685PSPI   C4B10608   5.132  14.346   7.618 -0.1944 -0.2319 -0.0099
  686PSPI    C110609  12.611   6.906   5.243 -0.0353 -0.1020  0.0018
  686PSPI    C210610  12.409   6.788   4.919 -0.0627  0.3205 -0.1419
  686PSPI    C310611  12.225   6.807   5.274 -0.0958  0.0818 -0.1445
  686PSPI   PO410612  12.880   6.701   5.199 -0.1364  0.0187 -0.4684
  686PSPI   GL110613  12.954   6.313   5.482 -0.1407 -0.2004 -0.2620
  686PSPI   GL210614  12.963   5.979   5.582 -0.0176 -0.2888 -0.1865
  686PSPI   C1A10615  12.786   6.307   5.971  0.0528 -0.1754 -0.3203
  686PSPI   C2A10616  13.010   6.439   6.331 -0.2859 -0.2151 -0.0753
  686PSPI   C3A10617  13.177   6.672   6.637 -0.0301 -0.2351 -0.0882
  686PSPI   C4A10618  13.173   6.879   6.979  0.2777  0.1259  0.4753
  686PSPI   C1B10619  13.132   5.963   6.020 -0.0131 -0.0230  0.0002
  686PSPI   C2B10620  13.091   5.866   6.433 -0.1320 -0.2161  0.1313
  686PSPI   C3B10621  12.830   5.833   6.873  0.2172  0.0574  0.3833
  686PSPI   C4B10622  12.836   6.072   7.188 -0.0284 -0.0865  0.2344
  687PSPI    C110623  18.181   8.323   5.450 -0.0481 -0.0336  0.0847
  687PSPI    C210624  17.843   8.525   5.380  0.0804  0.2517  0.2714
  687PSPI    C310625  18.148   8.549   5.122  0.0083  0.1002  0.1705
  687PSPI   PO410626  18.244   8.412   5.651 -0.0530  0.2226  0.0522
  687PSPI   GL110627  18.104   8.330   6.090  0.2303  0.0396  0.0617
  687PSPI   GL210628  17.940   8.152   6.342  0.0758 -0.2797  0.0469
  687PSPI   C1A10629  18.124   8.622   6.451  0.0687 -0.0479  0.3099
  687PSPI   C2A10630  18.134   8.824   6.831  0.5240 -0.2677 -0.2005
  687PSPI   C3A10631  17.999   8.948   7.194 -0.1047  0.3384 -0.1786
  687PSPI   C4A10632  18.114   9.210   7.568  0.1003  0.1530  0.1990
  687PSPI   C1B10633  17.878   8.148   6.751  0.3582 -0.3803 -0.0045
  687PSPI   C2B10634  18.220   8.302   6.888 -0.2520  0.0624  0.1225
  687PSPI   C3B10635  18.399   8.604   7.351 -0.1023 -0.2299  0.0814
  687PSPI   C4B10636  18.620   8.651   7.557 -0.2761 -0.0621  0.1100
  688PSPI    C110637  12.437  11.799   4.995 -0.0927 -0.1287 -0.0884
  688PSPI    C210638  12.668  11.864   5.315 -0.2926  0.0448  0.0227
  688PSPI    C310639  12.715  12.087   4.987 -0.0407 -0.1786 -0.0973
  688PSPI   PO410640  12.152  11.699   5.103  0.5300 -0.2211  0.1127
  688PSPI   GL110641  11.815  11.579   5.486  0.1981  0.0367  0.2492
  688PSPI   GL210642  11.525  11.852   5.543  0.1508  0.2376  0.1215
  688PSPI   C1A10643  11.894  11.296   5.890 -0.2175  0.1459 -0.1340
  688PSPI   C2A10644  11.862  11.229   6.348  0.1940 -0.3710 -0.0057
  688PSPI   C3A10645  11.668  11.023   6.713 -0.2592  0.1601  0.1392
  688PSPI   C4A10646  11.708  10.638   7.089 -0.1235  0.2130 -0.1809
  688PSPI   C1B10647  11.551  11.767   5.907  0.1027 -0.0917 -0.1262
  688PSPI   C2B10648  11.471  11.508   6.253  0.0848  0.0556  0.0688
  688PSPI   C3B10649  11.489  11.499   6.682 -0.1572  0.0241 -0.2001
  688PSPI   C4B10650  11.547  11.796   7.012 -0.0427 -0.0548 -0.1846
  689PSPI    C110651   0.159  16.897   5.410 -0.1277  0.0675 -0.1591
  689PSPI    C210652   0.262  16.917   5.024  0.0368 -0.1749 -0.1295
  689PSPI    C310653  -0.039  16.679   5.139  0.0169 -0.1368 -0.1023
  689PSPI   PO410654   0.361  16.879   5.518 -0.0689  0.3448 -0.1245
  689PSPI   GL110655   0.301  16.900   5.897 -0.0452 -0.2788  0.0215
  689PSPI   GL210656   0.448  17.275   5.954  0.0335  0.1554 -0.0558
  689PSPI   C1A10657   0.300  17.073   6.390 -0.1800  0.0620  0.1516
  689PSPI   C2A10658   0.259  16.973   6.793 -0.1879  0.1042 -0.1768
  689PSPI   C3A10659   0.375  16.790   7.093 -0.0378  0.0132  0.1414
  689PSPI   C4A10660   0.413  17.097   7.448 -0.0934 -0.3832 -0.3056
  689PSPI   C1B10661   0.770  17.121   6.242  0.0217  0.0590 -0.3274
  689PSPI   C2B10662   1.032  17.165   6.612  0.2666  0.4602  0.1023
  689PSPI   C3B10663   0.797  17.118   7.022  0.2679  0.3385 -0.2619
  689PSPI   C4B10664   0.920  17.370   7.456 -0.1110 -0.1289 -0.1796
  690PSPI    C110665  14.997  13.274   5.295 -0.1047  0.0058 -0.1996
  690PSPI    C210666  14.659  13.332   5.500 -0.0206  0.1520 -0.1002
  690PSPI    C310667  14.680  13.439   5.115 -0.2010 -0.1864 -0.2087
  690PSPI   PO410668  15.099  13.006   5.436 -0.0438  0.2403  0.0549
  690PSPI   GL110669  15.196  12.685   5.709  0.0504 -0.1391  0.1645
  690PSPI   GL210670  15.059  12.290   5.752  0.0629  0.2296  0.0439
  690PSPI   C1A10671  15.289  12.814   6.157 -0.0373  0.1662 -0.2406
  690PSPI   C2A10672  15.276  12.484   6.458 -0.1611 -0.1731  0.0181
  690PSPI   C3A10673  15.369  12.189   6.686  0.0686  0.1295 -0.1278
  690PSPI   C4A10674  15.661  11.814   6.840  0.0361  0.2176 -0.3935
  690PSPI   C1B10675  15.485  12.271   6.083 -0.3820 -0.3858  0.1272
  690PSPI   C2B10676  15.864  12.119   6.362 -0.1539  0.2501  0.0127
  690PSPI   C3B10677  16.079  11.843   6.513 -0.3207  0.0535  0.3476
  690PSPI   C4B10678  16.341  11.356   6.623 -0.0902  0.2219  0.3231
  691PSPI    C110679   8.520  17.133   5.117  0.0996 -0.0463  0.1303
  691PSPI    C210680   8.744  17.175   4.788 -0.1454  0.0922 -0.0223
  691PSPI    C310681   8.672  16.810   4.935  0.4068  0.0593  0.1935
  691PSPI   PO410682   8.687  17.405   5.309 -0.1616  0.0263 -0.0770
  691PSPI   GL110683   8.742  17.693   5.713 -0.0876  0.0877 -0.0666
  691PSPI   GL210684   8.895  18.004   5.569  0.1788  0.0383 -0.1302
  691PSPI   C1A10685   8.496  17.677   6.031 -0.2595 -0.2951 -0.0997
  691PSPI   C2A10686   8.587  17.862   6.498  0.2292  0.0258  0.1154
  691PSPI   C3A10687   8.494  17.929   6.956 -0.1293  0.6044 -0.0524
  691PSPI   C4A10688   8.444  18.044   7.372  0.1069 -0.1480 -0.1568
  691PSPI   C1B10689   8.959  17.967   6.041 -0.0176 -0.0792  0.2573
  691PSPI   C2B10690   9.072  17.829   6.481 -0.0933 -0.0291  0.1779
  691PSPI   C3B10691   9.069  18.039   6.841 -0.1878  0.1020  0.1698
  691PSPI   C4B10692   8.905  18.282   7.167  0.1268 -0.2066  0.0453
  692PSPI    C110693  10.112   2.649   4.533  0.0500  0.2788  0.0767
  692PSPI    C210694  10.204   3.009   4.387  0.2623  0.0812 -0.2904
  692PSPI    C310695  10.478   2.717   4.387  0.0602 -0.1121 -0.0934
  692PSPI   PO410696  10.124   2.678   4.818 -0.1051 -0.2355  0.1808
  692PSPI   GL110697  10.053   2.486   5.150  0.0022  0.2151  0.2088
  692PSPI   GL210698  10.284   2.316   5.408  0.2936  0.3722 -0.2728
  692PSPI   C1A10699   9.932   2.985   5.321  0.2316 -0.0476  0.1970
  692PSPI   C2A10700  10.254   3.305   5.465  0.2157  0.2104  0.0202
  692PSPI   C3A10701  10.601   3.366   5.773 -0.0279 -0.0470  0.0562
  692PSPI   C4A10702  10.556   3.356   6.223 -0.2076 -0.2555 -0.0127
  692PSPI   C1B10703  10.151   2.693   5.617 -0.0981 -0.1082 -0.1286
  692PSPI   C2B10704   9.858   2.639   6.047 -0.0124 -0.1572 -0.1962
  692PSPI   C3B10705   9.439   2.555   6.282 -0.1396  0.0103  0.2165
  692PSPI   C4B10706   9.064   2.555   6.600 -0.0632  0.4049 -0.1350
  693PSPI    C110707  11.899  16.230   5.336  0.1049 -0.2001  0.0333
  693PSPI    C210708  11.817  16.606   5.225  0.2171 -0.1612  0.0806
  693PSPI    C310709  11.822  16.313   4.952 -0.0879 -0.1677  0.0779
  693PSPI   PO410710  11.795  16.130   5.605  0.0086 -0.2791 -0.1335
  693PSPI   GL110711  11.655  16.150   5.991 -0.0046 -0.0011 -0.2246
  693PSPI   GL210712  12.009  16.114   6.130 -0.1847 -0.2736  0.0754
  693PSPI   C1A10713  11.542  16.107   6.352  0.2408  0.1762 -0.3098
  693PSPI   C2A10714  11.884  16.022   6.688 -0.1702  0.0038 -0.2402
  693PSPI   C3A10715  12.102  15.819   6.954  0.1913 -0.1607 -0.0385
  693PSPI   C4A10716  12.239  15.843   7.303 -0.5836 -0.0637  0.0980
  693PSPI   C1B10717  12.217  15.837   6.326  0.0123 -0.0695 -0.0374
  693PSPI   C2B10718  12.487  15.865   6.670 -0.0362 -0.1948  0.2648
  693PSPI   C3B10719  12.706  15.861   7.103 -0.1874 -0.1930 -0.1313
  693PSPI   C4B10720  12.918  15.852   7.427 -0.0496 -0.3223  0.3227
  694POPI    C110721  15.784  16.294   5.593  0.0993  0.1781  0.0461
  694POPI    C210722  16.045  16.110   5.352 -0.0133  0.0564  0.0161
  694POPI    C310723  15.826  16.416   5.215  0.0133  0.0684  0.0006
  694POPI   PO410724  15.683  16.130   5.747  0.0716  0.3205  0.3176
  694POPI   GL110725  15.716  16.323   6.082  0.0644  0.0477 -0.0235
  694POPI   GL210726  15.642  16.635   5.990 -0.1252  0.2965  0.1762
  694POPI   C1A10727  15.974  16.202   6.479  0.3105  0.2222  0.1730
  694POPI   D2A10728  16.042  16.183   6.946 -0.1800  0.0527  0.3052
  694POPI   C3A10729  15.917  16.077   7.379  0.1292  0.2522  0.1164
  694POPI   C4A10730  15.768  15.900   7.576 -0.0056  0.1054 -0.3896
  694POPI   C1B10731  15.737  16.655   6.407 -0.2832  0.1325 -0.0400
  694POPI   C2B10732  15.853  16.666   6.783 -0.1896 -0.1100 -0.2590
  694POPI   C3B10733  15.929  16.606   7.207 -0.4515 -0.0861  0.0216
  694POPI   C4B10734  16.243  16.881   7.387 -0.0558  0.1172 -0.1250
  695POPI    C110735  10.494   1.446   4.684  0.1363 -0.0677 -0.0347
  695POPI    C210736  10.699   1.616   4.385 -0.1487 -0.0118 -0.2020
  695POPI    C310737  10.548   1.248   4.341  0.2018 -0.1914  0.0463
  695POPI   PO410738  10.721   1.401   4.905  0.1719 -0.3855 -0.2935
  695POPI   GL110739  10.677   1.119   5.232  0.1076  0.1943  0.0244
  695POPI   GL210740  10.497   0.775   5.240  0.1965 -0.1027 -0.0202
  695POPI   C1A10741  11.093   1.089   5.478 -0.1178 -0.1622  0.1578
  695POPI   D2A10742  11.278   1.278   5.865 -0.0013  0.0775  0.1543
  695POPI   C3A10743  10.959   1.210   6.161  0.2220 -0.0947 -0.1726
  695POPI   C4A10744  10.504   1.123   6.238  0.1912  0.0711 -0.1672
  695POPI   C1B10745  10.256   0.917   5.535  0.3138  0.1176 -0.2776
  695POPI   C2B10746  10.180   1.202   5.905 -0.0771  0.0045  0.1923
  695POPI   C3B10747  10.047   1.337   6.297 -0.1702  0.1333  0.0698
  695POPI   C4B10748  10.080   1.315   6.693 -0.4256  0.2337  0.2062
  696POPI    C110749  16.833   6.722   5.159 -0.0312 -0.0302  0.2064
  696POPI    C210750  16.733   7.107   5.204 -0.0472 -0.0083 -0.0052
  696POPI    C310751  16.761   6.949   4.838  0.2089 -0.1435  0.0697
  696POPI   PO410752  16.590   6.585   5.455  0.1040 -0.0069  0.1395
  696POPI   GL110753  16.592   6.231   5.763  0.2268 -0.0633  0.4142
  696POPI   GL210754  16.923   6.023   5.778 -0.1788  0.1527  0.0980
  696POPI   C1A10755  16.617   6.375   6.211  0.0300  0.0935  0.1656
  696POPI   D2A10756  16.784   6.426   6.583 -0.0420  0.0669 -0.1640
  696POPI   C3A10757  16.502   6.468   6.852 -0.4366  0.3003  0.1701
  696POPI   C4A10758  16.390   6.891   6.873 -0.0448 -0.0009 -0.1666
  696POPI   C1B10759  16.996   6.124   6.195  0.0713  0.1692  0.0763
  696POPI   C2B10760  17.139   6.024   6.510 -0.1188 -0.0548 -0.0763
  696POPI   C3B10761  17.351   5.673   6.815  0.2007  0.0275 -0.2047
  696POPI   C4B10762  17.764   5.676   7.061 -0.2270  0.1484  0.2581
  697POPI    C110763  12.248   3.379   5.226  0.0431  0.1965  0.0419
  697POPI    C210764  11.977   3.578   5.009  0.1225  0.0385 -0.2069
  697POPI    C310765  12.041   3.189   4.942 -0.0514 -0.0851  0.2937
  697POPI   PO410766  12.159   3.427   5.547 -0.0945 -0.3991 -0.3767
  697POPI   GL110767  12.405   3.282   6.070 -0.0476 -0.0646  0.0646
  697POPI   GL210768  12.414   2.925   6.089 -0.1756 -0.2685  0.0802
  697POPI   C1A10769  12.230   3.229   6.461  0.2062  0.3090  0.1295
  697POPI   D2A10770  11.886   3.149   6.537  0.0673 -0.0164  0.2279
  697POPI   C3A10771  11.680   3.157   6.923 -0.4370  0.2604  0.1263
  697POPI   C4A10772  11.401   2.956   7.239  0.1466  0.1034  0.2089
  697POPI   C1B10773  12.691   2.961   6.427  0.1674 -0.3055  0.2081
  697POPI   C2B10774  12.736   2.768   6.923  0.1637  0.3467 -0.2275
  697POPI   C3B10775  12.923   2.362   7.091  0.1204 -0.0472 -0.0437
  697POPI   C4B10776  13.070   2.079   7.518 -0.0037 -0.4592  0.0629
  698POPI    C110777   3.415   4.253   5.259  0.0302 -0.1896 -0.2126
  698POPI    C210778   3.165   4.256   4.947 -0.1297 -0.4101 -0.0899
  698POPI    C310779   3.021   4.216   5.318  0.0261  0.2115  0.0489
  698POPI   PO410780   3.654   3.990   5.247  0.0095  0.1360 -0.0830
  698POPI   GL110781   3.795   3.893   5.572  0.0803 -0.2678  0.1534
  698POPI   GL210782   4.153   3.987   5.426 -0.1422  0.1859 -0.0392
  698POPI   C1A10783   3.533   3.851   5.900 -0.1599 -0.5521 -0.0188
  698POPI   D2A10784   3.126   3.783   5.983  0.0976  0.0618 -0.1393
  698POPI   C3A10785   2.968   4.082   6.208 -0.0274 -0.2291  0.2143
  698POPI   C4A10786   3.030   4.522   6.320 -0.1664 -0.2261  0.0178
  698POPI   C1B10787   4.209   4.150   5.845  0.1186  0.0569  0.2280
  698POPI   C2B10788   4.518   4.391   6.119 -0.1473  0.2463 -0.0895
  698POPI   C3B10789   4.718   4.403   6.437 -0.2090 -0.1474 -0.0955
  698POPI   C4B10790   4.812   4.328   6.783  0.0167  0.0547 -0.0945
  699POPI    C110791   2.915   7.162   4.884 -0.0449 -0.2649 -0.0530
  699POPI    C210792   3.248   6.956   4.806  0.3892  0.3951 -0.0221
  699POPI    C310793   3.058   7.148   4.511  0.2490  0.3312  0.0257
  699POPI   PO410794   2.922   7.289   5.132 -0.1011  0.1305  0.1938
  699POPI   GL110795   3.009   7.121   5.563  0.0055  0.0102 -0.1269
  699POPI   GL210796   3.301   7.381   5.537  0.0980  0.0237 -0.0651
  699POPI   C1A10797   3.079   6.893   5.889  0.2906  0.0603  0.0315
  699POPI   D2A10798   2.935   6.753   6.298  0.2030  0.1468  0.2866
  699POPI   C3A10799   2.898   6.939   6.675 -0.1389  0.3265  0.0871
  699POPI   C4A10800   3.084   7.221   6.817  0.0990  0.1259 -0.1264
  699POPI   C1B10801   3.633   7.441   5.727 -0.0856  0.0255 -0.0254
  699POPI   C2B10802   3.929   7.245   6.012 -0.1170 -0.1126  0.3992
  699POPI   C3B10803   4.255   7.394   6.275 -0.1300  0.1570  0.0709
  699POPI   C4B10804   4.389   7.815   6.511  0.0537  0.1816  0.0105
  700POPI    C110805  13.629  18.810   5.429  0.0345 -0.1441 -0.1466
  700POPI    C210806  13.377  19.091   5.297 -0.0697 -0.0572  0.2249
  700POPI    C310807  13.268  18.706   5.293 -0.0322 -0.0667 -0.0309
  700POPI   PO410808  13.699  18.956   5.634 -0.0329 -0.0203  0.1184
  700POPI   GL110809  13.647  19.066   6.097  0.1160  0.1431  0.0840
  700POPI   GL210810  13.375  18.946   6.246 -0.0786 -0.0141 -0.0826
  700POPI   C1A10811  13.753  19.275   6.526  0.1779 -0.4226 -0.0138
  700POPI   D2A10812  13.931  19.639   6.845 -0.1157  0.0593 -0.2101
  700POPI   C3A10813  13.808  19.989   6.589 -0.0703  0.2303 -0.0057
  700POPI   C4A10814  14.016  20.218   6.233  0.1204 -0.4029 -0.0330
  700POPI   C1B10815  13.195  19.172   6.582  0.3450 -0.0165  0.1236
  700POPI   C2B10816  12.954  19.344   6.655 -0.1416 -0.0729 -0.1097
  700POPI   C3B10817  12.892  19.549   6.956 -0.2748 -0.2062 -0.0030
  700POPI   C4B10818  13.084  19.903   7.113  0.3703 -0.3082 -0.0136
  701POPI    C110819  17.336   6.646   5.167 -0.6202  0.0199  0.2383
  701POPI    C210820  17.273   7.039   5.126 -0.0638  0.0955  0.0270
  701POPI    C310821  17.266   6.801   4.805 -0.1505 -0.0293  0.1205
  701POPI   PO410822  17.249   6.535   5.467  0.1032 -0.2713  0.0469
  701POPI   GL110823  17.434   6.814   5.801 -0.0605  0.1536 -0.1050
  701POPI   GL210824  17.692   6.921   5.913 -0.2096  0.0044  0.0590
  701POPI   C1A10825  17.471   6.704   6.250 -0.0648 -0.0265  0.0641
  701POPI   D2A10826  17.326   6.496   6.607  0.0302 -0.2992  0.2216
  701POPI   C3A10827  17.150   6.255   6.967  0.1819 -0.0921  0.1836
  701POPI   C4A10828  16.839   6.250   7.182 -0.0456  0.0071  0.0995
  701POPI   C1B10829  17.940   6.934   6.363 -0.2514  0.1428  0.0574
  701POPI   C2B10830  18.106   7.183   6.783  0.1797 -0.0425  0.2417
  701POPI   C3B10831  18.186   7.242   7.110  0.0625  0.1706 -0.0794
  701POPI   C4B10832  18.121   7.510   7.352 -0.1226 -0.0386 -0.1150
  702POPI    C110833   6.305  15.976   5.358 -0.2515  0.1028 -0.0217
  702POPI    C210834   6.204  16.124   5.001 -0.0512  0.0588 -0.0977
  702POPI    C310835   6.303  15.738   5.037 -0.0721  0.0630  0.0055
  702POPI   PO410836   6.150  16.078   5.545  0.2367  0.3263  0.0718
  702POPI   GL110837   6.325  16.302   5.782  0.2579  0.0712  0.3457
  702POPI   GL210838   6.260  16.650   5.722 -0.5575 -0.0328  0.1696
  702POPI   C1A10839   6.068  16.486   6.168  0.0265  0.1364  0.3235
  702POPI   D2A10840   5.912  16.445   6.609 -0.2279  0.1085 -0.0473
  702POPI   C3A10841   5.866  16.095   6.647  0.2004 -0.0593  0.3301
  702POPI   C4A10842   5.954  15.660   6.399  0.0374  0.1058  0.0087
  702POPI   C1B10843   6.440  16.794   6.067 -0.0475  0.0100  0.0027
  702POPI   C2B10844   6.347  16.870   6.554  0.0873 -0.0039 -0.1131
  702POPI   C3B10845   5.931  16.905   6.820  0.1826  0.1192 -0.2590
  702POPI   C4B10846   5.552  16.823   6.553 -0.0995  0.0624  0.0939
  703POPI    C110847   5.465   7.491   4.955  0.0137  0.1922  0.1524
  703POPI    C210848   5.264   7.791   5.127 -0.3097  0.1172 -0.0848
  703POPI    C310849   5.154   7.658   4.766  0.0133 -0.0949 -0.1089
  703POPI   PO410850   5.555   7.396   5.168  0.2621  0.0229 -0.0801
  703POPI   GL110851   5.318   7.449   5.563 -0.0240  0.1239 -0.2480
  703POPI   GL210852   5.586   7.761   5.611  0.3541  0.0513  0.0921
  703POPI   C1A10853   5.057   7.355   5.945  0.0052 -0.0272  0.1268
  703POPI   D2A10854   4.750   7.485   6.284 -0.0029 -0.4301  0.0184
  703POPI   C3A10855   4.811   7.649   6.699 -0.1318 -0.3190 -0.0632
  703POPI   C4A10856   4.508   7.755   7.000  0.0990  0.4355 -0.4332
  703POPI   C1B10857   5.449   7.588   6.038 -0.0198  0.1059 -0.1328
  703POPI   C2B10858   5.500   7.440   6.422  0.2077 -0.1528  0.3842
  703POPI   C3B10859   5.830   7.306   6.893  0.0089  0.0978  0.3224
  703POPI   C4B10860   6.012   7.064   7.092 -0.1105  0.2092 -0.1937
  704POPI    C110861   1.715  12.839   5.507  0.1195  0.1085  0.0506
  704POPI    C210862   1.569  13.185   5.645 -0.0134  0.1088 -0.0886
  704POPI    C310863   1.782  13.179   5.307  0.1686  0.0840  0.0253
  704POPI   PO410864   1.836  12.692   5.688 -0.4112 -0.2863  0.0299
  704POPI   GL110865   1.802  12.574   6.106  0.3939 -0.2802 -0.0486
  704POPI   GL210866   1.775  12.955   6.109  0.3507  0.0214 -0.0622
  704POPI   C1A10867   1.755  12.226   6.299  0.0334 -0.1709  0.1355
  704POPI   D2A10868   1.554  11.833   6.623  0.1497 -0.4263  0.1584
  704POPI   C3A10869   1.377  11.938   7.155 -0.2669 -0.0368  0.2946
  704POPI   C4A10870   1.222  12.056   7.577  0.0781  0.2047 -0.3056
  704POPI   C1B10871   1.954  12.888   6.507  0.0377 -0.0547 -0.2841
  704POPI   C2B10872   1.984  12.922   6.955  0.0138  0.0246  0.0647
  704POPI   C3B10873   1.940  12.525   7.271  0.0885  0.0768 -0.0540
  704POPI   C4B10874   1.689  12.197   7.405 -0.1742  0.0907 -0.0760
  705POPI    C110875  11.455  12.766   5.305 -0.0670  0.1685 -0.1283
  705POPI    C210876  11.298  12.784   4.938  0.1817 -0.0081 -0.2468
  705POPI    C310877  11.690  12.719   4.984  0.1463 -0.0223  0.0517
  705POPI   PO410878  11.293  12.965   5.414 -0.3733 -0.3287  0.2305
  705POPI   GL110879  11.004  12.980   5.711 -0.2510  0.3862 -0.1881
  705POPI   GL210880  10.636  13.221   5.737 -0.4525  0.1454 -0.0343
  705POPI   C1A10881  11.124  12.777   6.078 -0.1026 -0.0669 -0.2467
  705POPI   D2A10882  11.133  12.932   6.510  0.1315  0.2495 -0.2081
  705POPI   C3A10883  11.316  12.642   6.885 -0.0994  0.1893 -0.0209
  705POPI   C4A10884  11.211  12.192   7.028  0.3637  0.1911 -0.0906
  705POPI   C1B10885  10.514  13.320   6.159 -0.0936  0.0030  0.0718
  705POPI   C2B10886  10.086  13.042   6.266 -0.0309 -0.0858 -0.0092
  705POPI   C3B10887   9.968  12.870   6.416 -0.2027 -0.0418  0.0492
  705POPI   C4B10888  10.008  12.731   6.760  0.1356  0.0628 -0.0690
  706POPI    C110889   0.589   2.244   4.976  0.0737  0.1146  0.0221
  706POPI    C210890   0.219   2.137   4.869  0.0275  0.1576  0.1371
  706POPI    C310891   0.439   2.367   4.626  0.0336  0.0119  0.0029
  706POPI   PO410892   0.711   2.013   5.253 -0.1563 -0.3527  0.4362
  706POPI   GL110893   0.684   1.835   5.547  0.1835 -0.0236  0.3150
  706POPI   GL210894   0.477   1.854   5.742 -0.1635 -0.1754 -0.0133
  706POPI   C1A10895   1.057   1.911   5.757 -0.1842 -0.0335  0.0930
  706POPI   D2A10896   1.299   2.122   6.019  0.1350  0.0743  0.0984
  706POPI   C3A10897   1.655   1.841   6.178  0.1776  0.1360  0.2166
  706POPI   C4A10898   1.798   1.617   6.551  0.0030  0.2361 -0.0201
  706POPI   C1B10899   0.635   1.532   6.049 -0.0718 -0.0796  0.1046
  706POPI   C2B10900   0.959   1.664   6.192 -0.2237 -0.0056 -0.0932
  706POPI   C3B10901   1.016   1.958   6.439 -0.0024  0.0949  0.3239
  706POPI   C4B10902   1.254   2.089   6.797  0.0075 -0.0748 -0.3037
  707POPI    C110903   0.142  15.526   5.454 -0.0442 -0.0644  0.1725
  707POPI    C210904   0.065  15.855   5.669 -0.1246 -0.0683  0.1499
  707POPI    C310905   0.018  15.860   5.271 -0.0898 -0.0960  0.1454
  707POPI   PO410906  -0.062  15.251   5.619 -0.0818 -0.3094  0.0839
  707POPI   GL110907  -0.200  15.297   6.044  0.0038  0.3321  0.2643
  707POPI   GL210908   0.030  15.462   6.081 -0.4464  0.3767  0.0530
  707POPI   C1A10909   0.029  14.977   6.316 -0.0298 -0.1865 -0.2362
  707POPI   D2A10910   0.026  14.553   6.381 -0.1301  0.1160 -0.3420
  707POPI   C3A10911  -0.043  14.548   6.759 -0.0060 -0.3744  0.1387
  707POPI   C4A10912  -0.177  14.719   7.011  0.1710  0.0458 -0.2167
  707POPI   C1B10913   0.039  15.501   6.455 -0.0793  0.1048 -0.1583
  707POPI   C2B10914   0.399  15.541   6.614  0.0092  0.1437  0.1483
  707POPI   C3B10915   0.572  15.947   6.842  0.0532  0.1513 -0.1383
  707POPI   C4B10916   0.812  16.358   6.913  0.0122  0.3347 -0.2393
  708POPI    C110917  13.236  12.277   5.259 -0.0054  0.1468  0.0251
  708POPI    C210918  13.105  12.652   5.304  0.1271  0.2075 -0.0869
  708POPI    C310919  13.099  12.479   4.943 -0.2730 -0.0285  0.0258
  708POPI   PO410920  13.495  12.313   5.381 -0.0870  0.0803  0.2791
  708POPI   GL110921  13.725  12.550   5.704  0.0455  0.0604 -0.0681
  708POPI   GL210922  14.011  12.289   5.793  0.0676  0.2711  0.0010
  708POPI   C1A10923  13.659  12.471   6.078  0.0356 -0.0293 -0.1576
  708POPI   D2A10924  13.238  12.470   6.346  0.4653  0.0424  0.0011
  708POPI   C3A10925  13.106  12.840   6.483 -0.0132  0.1127  0.0798
  708POPI   C4A10926  12.968  13.137   6.210  0.0857 -0.1038  0.1970
  708POPI   C1B10927  14.132  12.365   6.171  0.0084 -0.0837 -0.1455
  708POPI   C2B10928  13.948  12.409   6.566  0.0281  0.4381 -0.3431
  708POPI   C3B10929  13.885  12.472   6.986 -0.0100 -0.3227 -0.0412
  708POPI   C4B10930  13.585  12.561   7.352 -0.0854  0.1236  0.0491
  709POPI    C110931   6.859   4.542   4.171  0.0221  0.1329  0.1904
  709POPI    C210932   6.595   4.607   3.877  0.2279 -0.4296 -0.1336
  709POPI    C310933   6.807   4.912   4.026 -0.2032 -0.0629 -0.2479
  709POPI   PO410934   6.673   4.333   4.301  0.2151  0.0163 -0.3439
  709POPI   GL110935   6.592   4.317   4.723  0.2311  0.2487 -0.0437
  709POPI   GL210936   6.310   4.543   4.940  0.2389  0.3650 -0.0276
  709POPI   C1A10937   6.598   4.233   5.176  0.1104 -0.1097  0.3245
  709POPI   D2A10938   6.107   4.293   5.319 -0.2859  0.3057 -0.0666
  709POPI   C3A10939   5.888   4.695   5.197  0.0469 -0.0758  0.4753
  709POPI   C4A10940   5.572   4.897   5.096 -0.0345 -0.2595  0.2969
  709POPI   C1B10941   6.391   4.877   5.147 -0.1093  0.0964 -0.1520
  709POPI   C2B10942   6.152   5.013   5.640  0.0080  0.0844  0.1271
  709POPI   C3B10943   5.979   4.937   5.969 -0.2829  0.0300  0.1634
  709POPI   C4B10944   6.164   4.593   6.247 -0.3615  0.2619  0.0466
  710POPI    C110945  18.544   5.519   5.071 -0.1345  0.1301 -0.2681
  710POPI    C210946  18.697   5.888   5.073 -0.2284  0.1698  0.0043
  710POPI    C310947  18.938   5.572   5.032 -0.1167  0.2489  0.0475
  710POPI   PO410948  18.331   5.554   5.290 -0.0219  0.5662  0.2393
  710POPI   GL110949  18.143   5.359   5.665 -0.1540  0.4873  0.2744
  710POPI   GL210950  18.438   5.584   5.799  0.2082  0.0297  0.2060
  710POPI   C1A10951  18.170   5.119   5.996  0.3984 -0.1091  0.2116
  710POPI   D2A10952  18.007   5.120   6.455  0.3145 -0.2561 -0.1881
  710POPI   C3A10953  18.004   5.548   6.642 -0.0333  0.1348 -0.0921
  710POPI   C4A10954  18.126   5.992   6.646  0.1268 -0.1267 -0.4544
  710POPI   C1B10955  18.177   5.646   6.097 -0.0145 -0.1186 -0.0980
  710POPI   C2B10956  17.775   5.634   6.201  0.0491  0.5212  0.1858
  710POPI   C3B10957  17.665   5.840   6.448 -0.0986  0.1449 -0.2590
  710POPI   C4B10958  17.608   6.068   6.786 -0.0280 -0.2808  0.0346
  711POPI    C110959   0.185   6.277   5.184  0.0055  0.2338  0.1306
  711POPI    C210960   0.525   6.068   5.218 -0.1740 -0.0777  0.0501
  711POPI    C310961   0.498   6.364   4.950  0.0616  0.0088  0.1197
  711POPI   PO410962   0.098   6.379   5.489  0.0002 -0.2160  0.0575
  711POPI   GL110963  -0.101   6.158   5.857  0.4345 -0.1120 -0.4502
  711POPI   GL210964   0.195   6.074   6.022 -0.3513  0.4760 -0.0177
  711POPI   C1A10965  -0.201   6.054   6.337  0.2234  0.2078 -0.1185
  711POPI   D2A10966  -0.434   6.112   6.718 -0.1667 -0.0124 -0.1376
  711POPI   C3A10967  -0.377   5.885   7.073  0.2475  0.2451 -0.1665
  711POPI   C4A10968  -0.280   6.028   7.449 -0.1267  0.1154 -0.0158
  711POPI   C1B10969   0.267   6.020   6.400 -0.1442  0.0201 -0.2739
  711POPI   C2B10970   0.031   6.016   6.773 -0.2245  0.1591  0.2048
  711POPI   C3B10971   0.105   5.630   6.978  0.2177 -0.1652 -0.2189
  711POPI   C4B10972   0.378   5.470   7.213 -0.1870 -0.0883  0.2799
  712POPI    C110973   2.587   9.744   5.292  0.2912  0.0112  0.3842
  712POPI    C210974   2.743   9.941   4.981 -0.2278 -0.1948 -0.0221
  712POPI    C310975   2.869   9.572   5.067 -0.1637 -0.1819 -0.0597
  712POPI   PO410976   2.596   9.797   5.485 -0.0421 -0.3055 -0.1955
  712POPI   GL110977   2.772   9.700   5.885  0.1592  0.2879  0.0100
  712POPI   GL210978   3.055   9.467   5.873 -0.0879 -0.3051 -0.2710
  712POPI   C1A10979   2.976   9.856   6.222  0.1844  0.1869 -0.0877
  712POPI   D2A10980   3.017  10.117   6.516  0.3123  0.1551 -0.0523
  712POPI   C3A10981   2.711   9.942   6.854 -0.1521 -0.0641 -0.3321
  712POPI   C4A10982   2.682   9.878   7.244  0.0410 -0.2560  0.1874
  712POPI   C1B10983   3.275   9.462   6.277  0.1700 -0.1307 -0.3892
  712POPI   C2B10984   3.507   9.740   6.554  0.1068  0.1610  0.2181
  712POPI   C3B10985   3.758   9.777   6.842 -0.0624  0.1990 -0.0246
  712POPI   C4B10986   4.213   9.908   7.104  0.0347  0.3462  0.2877
  713POPI    C110987   0.192   7.639   5.559  0.1653  0.0990  0.1989
  713POPI    C210988   0.197   7.520   5.940  0.0750 -0.2410  0.0972
  713POPI    C310989  -0.125   7.706   5.793  0.1566 -0.0017  0.2162
  713POPI   PO410990   0.501   7.623   5.517 -0.0295 -0.1029  0.0244
  713POPI   GL110991   0.748   7.691   5.965 -0.0792 -0.1522 -0.1883
  713POPI   GL210992   1.055   7.676   6.100  0.3426  0.0823 -0.1172
  713POPI   C1A10993   0.554   7.579   6.337  0.0914 -0.0196  0.0852
  713POPI   D2A10994   0.548   7.405   6.804 -0.0027  0.2500  0.1766
  713POPI   C3A10995   0.294   7.450   7.187  0.0275 -0.1864 -0.1178
  713POPI   C4A10996   0.109   7.239   7.632  0.1621  0.1314 -0.0325
  713POPI   C1B10997   1.313   7.479   6.336 -0.3016  0.1515 -0.0310
  713POPI   C2B10998   1.350   7.503   6.694 -0.1099  0.0702 -0.2290
  713POPI   C3B10999   1.479   7.810   7.101 -0.0940 -0.1426 -0.1201
  713POPI   C4B11000   1.690   8.114   7.149  0.0931 -0.1049  0.0848
  714POPI    C111001   6.546  12.244   5.573 -0.0965 -0.2158 -0.2552
  714POPI    C211002   6.787  12.537   5.447 -0.1317 -0.0588  0.0327
  714POPI    C311003   6.562  12.336   5.184 -0.3138  0.3579 -0.1388
  714POPI   PO411004   6.721  12.096   5.720 -0.0597 -0.3836 -0.0847
  714POPI   GL111005   6.947  12.024   6.166  0.1395 -0.1381  0.0875
  714POPI   GL211006   7.024  12.422   6.027  0.0703 -0.1348 -0.2659
  714POPI   C1A11007   6.978  12.144   6.603 -0.2193  0.0820 -0.1374
  714POPI   D2A11008   7.058  12.030   6.934  0.2030  0.0786 -0.1686
  714POPI   C3A11009   7.401  12.078   7.245  0.1718 -0.3506 -0.0201
  714POPI   C4A11010   7.809  11.830   7.391 -0.1326  0.1585 -0.0649
  714POPI   C1B11011   7.109  12.613   6.458  0.0015  0.1015 -0.1202
  714POPI   C2B11012   7.092  12.624   6.939 -0.0818 -0.0966  0.0982
  714POPI   C3B11013   7.055  12.426   7.370 -0.2216  0.0896 -0.1725
  714POPI   C4B11014   7.281  12.184   7.735 -0.0765 -0.1329  0.0471
  715POPI    C111015  13.882  16.871   5.581  0.1354 -0.1042  0.1547
  715POPI    C211016  13.623  16.734   5.853 -0.1364 -0.0359 -0.0653
  715POPI    C311017  13.759  16.491   5.567  0.2685 -0.1499  0.2157
  715POPI   PO411018  14.060  16.968   5.705  0.0598  0.3114  0.0719
  715POPI   GL111019  14.090  17.078   6.151 -0.0684 -0.1069  0.0903
  715POPI   GL211020  13.758  17.127   6.075  0.1364  0.3004  0.1576
  715POPI   C1A11021  14.229  17.229   6.430 -0.0090  0.0998 -0.1125
  715POPI   D2A11022  14.184  17.384   6.877 -0.1455  0.3284 -0.4952
  715POPI   C3A11023  14.227  17.771   6.887 -0.0539 -0.1591 -0.1720
  715POPI   C4A11024  14.596  18.082   6.751  0.2192 -0.0879  0.0945
  715POPI   C1B11025  13.563  17.254   6.455 -0.1133  0.1265 -0.1495
  715POPI   C2B11026  13.595  17.243   6.845 -0.1115  0.4108 -0.1185
  715POPI   C3B11027  13.611  17.231   7.311 -0.0731  0.1723  0.0217
  715POPI   C4B11028  13.733  17.294   7.756 -0.0018  0.0140  0.3303
  716POPI    C111029   8.160   7.072   4.844  0.1346  0.0216  0.1310
  716POPI    C211030   8.161   7.218   4.472  0.1887 -0.3521 -0.0198
  716POPI    C311031   8.466   6.993   4.599  0.1537 -0.2557  0.2406
  716POPI   PO411032   7.922   7.223   4.900 -0.1352  0.1684 -0.1287
  716POPI   GL111033   7.749   7.392   5.235 -0.1444  0.3582 -0.2533
  716POPI   GL211034   7.548   7.532   4.977 -0.4735 -0.0291 -0.1251
  716POPI   C1A11035   7.569   7.482   5.681  0.2045 -0.2083  0.4483
  716POPI   D2A11036   7.466   7.681   6.058 -0.1076  0.1086 -0.1734
  716POPI   C3A11037   7.762   7.539   6.446  0.1082  0.0650  0.0556
  716POPI   C4A11038   7.775   7.551   6.898 -0.0913 -0.1317  0.2348
  716POPI   C1B11039   7.245   7.623   5.283  0.0652 -0.1960 -0.1170
  716POPI   C2B11040   7.085   7.360   5.710 -0.1891 -0.2123  0.0646
  716POPI   C3B11041   6.674   7.457   5.939 -0.2769 -0.0298  0.1848
  716POPI   C4B11042   6.571   7.584   6.313  0.0973  0.1684  0.2036
  717POPI    C111043  15.698  18.274   5.110 -0.0533 -0.0067 -0.0829
  717POPI    C211044  15.729  17.922   4.922  0.0497 -0.1177  0.1373
  717POPI    C311045  15.760  18.263   4.716 -0.0842 -0.2367 -0.0831
  717POPI   PO411046  15.912  18.335   5.308  0.2730  0.0489 -0.0252
  717POPI   GL111047  15.887  18.344   5.839  0.0877  0.2096 -0.0714
  717POPI   GL211048  15.893  18.023   5.818  0.1792  0.3592 -0.1698
  717POPI   C1A11049  16.146  18.479   6.078  0.0800  0.0901  0.0328
  717POPI   D2A11050  16.588  18.580   6.176 -0.2728 -0.1000 -0.0874
  717POPI   C3A11051  16.507  18.443   6.553 -0.1354 -0.1216 -0.0721
  717POPI   C4A11052  16.197  18.257   6.613  0.1493 -0.3485 -0.0364
  717POPI   C1B11053  15.777  18.136   6.271 -0.1334 -0.0013  0.4701
  717POPI   C2B11054  15.678  18.088   6.659 -0.3240  0.0679 -0.0869
  717POPI   C3B11055  15.848  18.055   7.127 -0.0675  0.1251  0.1049
  717POPI   C4B11056  16.031  17.832   7.446  0.0515 -0.1450  0.1570
  718POPI    C111057  12.615  17.813   5.007  0.1376  0.2414 -0.0033
  718POPI    C211058  12.239  17.704   4.923  0.2350  0.1047 -0.2751
  718POPI    C311059  12.380  18.054   4.792  0.1135  0.2914  0.0785
  718POPI   PO411060  12.645  17.753   5.260  0.0016 -0.1037  0.5026
  718POPI   GL111061  12.691  17.506   5.670  0.0878  0.1241 -0.0648
  718POPI   GL211062  12.449  17.673   5.819 -0.3155 -0.2634 -0.0781
  718POPI   C1A11063  12.860  17.437   5.991  0.1311 -0.1553  0.3303
  718POPI   D2A11064  12.984  17.296   6.387 -0.0232 -0.3305  0.1648
  718POPI   C3A11065  13.139  17.380   6.699  0.3357  0.0415  0.2231
  718POPI   C4A11066  13.137  17.541   7.052  0.0450  0.3602 -0.0564
  718POPI   C1B11067  12.438  17.430   6.251  0.1911 -0.2328 -0.2359
  718POPI   C2B11068  12.608  17.313   6.678 -0.3462 -0.2831 -0.1121
  718POPI   C3B11069  12.623  17.302   7.034  0.2683 -0.2250  0.1378
  718POPI   C4B11070  12.435  16.982   7.276  0.0102 -0.0481  0.0401
  719POPI    C111071   8.556   4.502   4.214 -0.0234 -0.0641  0.1516
  719POPI    C211072   8.224   4.638   4.038  0.0768  0.0067  0.0158
  719POPI    C311073   8.538   4.531   3.816  0.1516 -0.0433  0.1445
  719POPI   PO411074   8.517   4.317   4.411 -0.2146 -0.2993  0.1766
  719POPI   GL111075   8.275   4.419   4.750  0.1201 -0.2965 -0.3133
  719POPI   GL211076   8.022   4.380   4.979 -0.0248  0.0454 -0.0920
  719POPI   C1A11077   8.366   4.013   5.042 -0.1718 -0.3520 -0.0929
  719POPI   D2A11078   8.275   3.579   5.051 -0.2088 -0.2149 -0.1073
  719POPI   C3A11079   7.893   3.419   5.203  0.2727 -0.1786  0.1795
  719POPI   C4A11080   7.503   3.618   5.546 -0.0819 -0.0875 -0.1112
  719POPI   C1B11081   8.139   4.788   5.096  0.1656  0.0904 -0.2900
  719POPI   C2B11082   8.284   4.884   5.498 -0.0802 -0.1742 -0.0299
  719POPI   C3B11083   8.205   4.873   5.881  0.0992 -0.5069  0.1626
  719POPI   C4B11084   8.029   4.594   6.240 -0.1374 -0.1449  0.0750
  720POPI    C111085  11.718  10.876   4.978 -0.1116 -0.2683  0.0469
  720POPI    C211086  11.442  11.099   4.793  0.1852 -0.0901 -0.1900
  720POPI    C311087  11.601  10.782   4.607 -0.0082 -0.3183  0.0266
  720POPI   PO411088  11.679  10.964   5.240 -0.2676 -0.3544 -0.4182
  720POPI   GL111089  11.542  10.778   5.582 -0.1009  0.1406 -0.5378
  720POPI   GL211090  11.793  10.804   5.736  0.0890  0.1763  0.1316
  720POPI   C1A11091  11.464  11.048   6.070  0.0550 -0.0413 -0.0307
  720POPI   D2A11092  11.176  11.033   6.377 -0.2281 -0.0381  0.0168
  720POPI   C3A11093  10.839  10.816   6.342 -0.1140  0.1375  0.0300
  720POPI   C4A11094  10.455  10.692   6.457 -0.0887  0.1506  0.2117
  720POPI   C1B11095  11.851  10.769   6.198  0.0989 -0.1308  0.1756
  720POPI   C2B11096  11.924  10.588   6.654  0.2556 -0.2884  0.2227
  720POPI   C3B11097  12.146  10.814   7.012  0.1691 -0.2762  0.2790
  720POPI   C4B11098  12.570  10.863   7.309  0.2244 -0.1591 -0.1390
  721POPI    C111099  15.559   2.820   5.447 -0.0684  0.0868 -0.1039
  721POPI    C211100  15.233   2.748   5.667 -0.0171 -0.0216 -0.0624
  721POPI    C311101  15.237   2.654   5.278 -0.0329 -0.0255 -0.0617
  721POPI   PO411102  15.800   2.644   5.621  0.3145 -0.0321  0.1315
  721POPI   GL111103  15.906   2.671   5.974  0.3444 -0.1551  0.4210
  721POPI   GL211104  15.564   2.602   6.060  0.1724  0.0219 -0.1253
  721POPI   C1A11105  15.898   2.667   6.446  0.0202  0.0071 -0.0460
  721POPI   D2A11106  15.917   2.739   6.902 -0.0176 -0.0286  0.0091
  721POPI   C3A11107  15.699   2.722   7.295  0.1986 -0.2854  0.0018
  721POPI   C4A11108  15.320   2.916   7.376 -0.0423 -0.3240  0.0411
  721POPI   C1B11109  15.317   2.537   6.451  0.0065 -0.2983  0.1821
  721POPI   C2B11110  15.008   2.481   6.702 -0.1685 -0.3429  0.1637
  721POPI   C3B11111  15.080   2.470   7.072  0.1264  0.0621  0.0421
  721POPI   C4B11112  15.379   2.292   7.358 -0.1899 -0.0564  0.0194
  722POPI    C111113  18.537   4.600   5.342 -0.1796  0.1449 -0.1244
  722POPI    C211114  18.288   4.323   5.488 -0.0056  0.1242  0.1397
  722POPI    C311115  18.180   4.542   5.171 -0.1978 -0.1540  0.0091
  722POPI   PO411116  18.753   4.622   5.426  0.0001  0.1596 -0.2055
  722POPI   GL111117  18.957   4.505   5.820 -0.0977  0.2562  0.0102
  722POPI   GL211118  19.211   4.691   5.840  0.0595 -0.0570 -0.2828
  722POPI   C1A11119  19.189   4.329   6.222 -0.4017  0.2108  0.0711
  722POPI   D2A11120  19.176   4.289   6.600 -0.1180 -0.0671 -0.0546
  722POPI   C3A11121  19.419   4.174   6.926  0.0335 -0.0637  0.0367
  722POPI   C4A11122  19.797   4.228   7.168  0.0847 -0.1030 -0.0199
  722POPI   C1B11123  19.214   4.799   6.174 -0.1695 -0.2669  0.2914
  722POPI   C2B11124  19.020   5.018   6.542 -0.2321 -0.4557 -0.4546
  722POPI   C3B11125  18.964   4.809   6.877  0.0007  0.2742  0.0286
  722POPI   C4B11126  18.492   4.676   7.061  0.0026 -0.2816 -0.0719
  723POPI    C111127  17.792  18.344   5.335 -0.0833 -0.1281 -0.0626
  723POPI    C211128  17.451  18.510   5.463  0.1146  0.1207  0.1554
  723POPI    C311129  17.534  18.498   5.071 -0.0873  0.1682  0.1101
  723POPI   PO411130  17.930  18.406   5.560  0.2247 -0.1197 -0.2249
  723POPI   GL111131  17.610  18.767   5.836  0.1935  0.1280  0.2896
  723POPI   GL211132  17.318  18.818   5.916 -0.1062 -0.1877  0.2707
  723POPI   C1A11133  17.572  18.967   6.284 -0.3618  0.0382  0.4054
  723POPI   D2A11134  17.619  18.782   6.816  0.3178 -0.0642  0.0305
  723POPI   C3A11135  17.773  18.403   6.890  0.0811 -0.3555  0.1358
  723POPI   C4A11136  17.957  18.038   6.803  0.1216  0.1566 -0.0494
  723POPI   C1B11137  17.106  18.683   6.205  0.0055  0.0204  0.0826
  723POPI   C2B11138  16.994  18.613   6.659  0.1841  0.0650 -0.0792
  723POPI   C3B11139  17.040  18.609   7.052 -0.3169  0.2894 -0.3895
  723POPI   C4B11140  16.689  18.474   7.114  0.1649 -0.2262  0.0541
  724POPI    C111141  18.109  16.985   5.207 -0.0243  0.0671 -0.0772
  724POPI    C211142  18.260  17.328   5.065 -0.0339  0.1084  0.0122
  724POPI    C311143  18.324  16.985   4.869  0.0853  0.1420 -0.0086
  724POPI   PO411144  18.134  16.907   5.500  0.1913  0.2038 -0.1543
  724POPI   GL111145  17.997  16.743   5.878 -0.0352 -0.1118  0.1333
  724POPI   GL211146  18.219  17.082   5.968 -0.1764 -0.3323  0.2629
  724POPI   C1A11147  18.215  16.710   6.314 -0.0458  0.1592  0.1882
  724POPI   D2A11148  18.125  16.813   6.741  0.1080  0.0043 -0.0719
  724POPI   C3A11149  18.455  17.023   6.996  0.3318 -0.2620  0.2798
  724POPI   C4A11150  18.704  17.136   7.356  0.0033 -0.0568 -0.0420
  724POPI   C1B11151  18.146  17.497   6.156 -0.2946  0.2711  0.0013
  724POPI   C2B11152  18.148  17.923   6.308 -0.0926  0.3211  0.3697
  724POPI   C3B11153  18.123  18.370   6.447  0.1881 -0.1041  0.0455
  724POPI   C4B11154  18.111  18.719   6.246  0.0427 -0.1838 -0.3714
  725POPI    C111155  10.989  17.559   5.164 -0.0645  0.2389  0.0213
  725POPI    C211156  10.908  17.663   4.787 -0.0315  0.0495 -0.0394
  725POPI    C311157  10.924  17.276   4.889  0.0814  0.0975  0.1296
  725POPI   PO411158  11.138  17.826   5.224  0.0797 -0.0444 -0.0363
  725POPI   GL111159  11.338  17.949   5.643  0.1380 -0.0130  0.0127
  725POPI   GL211160  11.729  18.049   5.535  0.1406  0.1404 -0.0440
  725POPI   C1A11161  11.018  18.010   5.993 -0.0846 -0.2182  0.1875
  725POPI   D2A11162  11.120  17.906   6.452  0.3315 -0.0139  0.1127
  725POPI   C3A11163  11.310  17.434   6.684  0.0864 -0.1342  0.0111
  725POPI   C4A11164  11.177  17.279   7.136 -0.1201  0.3227  0.1008
  725POPI   C1B11165  11.958  18.397   5.746 -0.1442  0.1961  0.2250
  725POPI   C2B11166  12.175  18.595   5.973  0.1012 -0.1516 -0.2409
  725POPI   C3B11167  12.062  18.667   6.320  0.3441 -0.1097 -0.1727
  725POPI   C4B11168  12.047  18.721   6.746 -0.0033 -0.1375 -0.1742
  726POPI    C111169   0.252  12.163   5.613 -0.1256  0.0355 -0.1800
  726POPI    C211170   0.476  12.486   5.535  0.1318 -0.0738  0.0884
  726POPI    C311171   0.471  12.180   5.278  0.0109  0.0757 -0.0899
  726POPI   PO411172   0.275  12.072   5.875 -0.1761  0.0515  0.0401
  726POPI   GL111173   0.445  11.754   6.016 -0.0618  0.2632 -0.0031
  726POPI   GL211174   0.699  11.865   6.062 -0.0000 -0.0065  0.1359
  726POPI   C1A11175   0.395  11.764   6.416  0.2343  0.1861  0.1241
  726POPI   D2A11176   0.180  12.144   6.675 -0.0895  0.0569 -0.2442
  726POPI   C3A11177  -0.152  12.041   6.981  0.1356  0.0829  0.2554
  726POPI   C4A11178  -0.271  11.812   7.374  0.1691 -0.3334  0.0002
  726POPI   C1B11179   0.715  12.124   6.386  0.3193  0.0360 -0.2527
  726POPI   C2B11180   0.732  12.313   6.805 -0.0767  0.1025 -0.4154
  726POPI   C3B11181   0.639  12.181   7.096  0.0321  0.1798  0.0351
  726POPI   C4B11182   0.665  12.050   7.460  0.2603  0.4257  0.0674
  727POPI    C111183   5.786  15.646   5.621 -0.1136  0.0306 -0.2161
  727POPI    C211184   5.803  15.798   5.252 -0.2202  0.0862 -0.1984
  727POPI    C311185   5.550  15.952   5.520 -0.1424  0.0465 -0.1016
  727POPI   PO411186   5.870  15.379   5.579 -0.0209  0.3985 -0.1229
  727POPI   GL111187   5.690  14.953   5.781 -0.0418  0.2158 -0.0545
  727POPI   GL211188   5.887  14.672   5.919  0.1311 -0.0882 -0.0527
  727POPI   C1A11189   5.759  15.041   6.216 -0.2275  0.3970 -0.3305
  727POPI   D2A11190   5.616  15.304   6.434  0.1676 -0.1913 -0.2399
  727POPI   C3A11191   5.602  15.215   6.775 -0.1370  0.1071 -0.0978
  727POPI   C4A11192   5.439  15.283   7.153  0.1971 -0.1087  0.1677
  727POPI   C1B11193   5.730  14.435   6.252  0.2003 -0.0658  0.1865
  727POPI   C2B11194   5.423  14.331   6.555  0.0082  0.2891  0.3379
  727POPI   C3B11195   4.921  14.261   6.665  0.1835  0.1961 -0.0794
  727POPI   C4B11196   4.666  13.917   6.816 -0.0024 -0.0009 -0.0127
  728POPI    C111197  13.352  15.440   5.615  0.1553 -0.2036  0.0928
  728POPI    C211198  12.963  15.385   5.540  0.0794  0.4676 -0.0662
  728POPI    C311199  13.236  15.273   5.270 -0.0019  0.0804  0.0054
  728POPI   PO411200  13.392  15.697   5.673 -0.0445  0.0433 -0.0197
  728POPI   GL111201  13.637  15.695   6.072 -0.2207  0.2060  0.2241
  728POPI   GL211202  13.924  15.481   6.033 -0.0710  0.1702 -0.3035
  728POPI   C1A11203  13.615  15.459   6.447  0.0532 -0.1937 -0.1742
  728POPI   D2A11204  13.720  15.431   6.833  0.1982 -0.2212 -0.1331
  728POPI   C3A11205  13.928  15.759   7.046  0.0892  0.1868 -0.4430
  728POPI   C4A11206  14.089  15.980   7.260  0.0996  0.0231 -0.2443
  728POPI   C1B11207  13.994  15.059   6.120 -0.1201  0.1211 -0.0235
  728POPI   C2B11208  14.136  14.844   6.487  0.1699  0.3332 -0.1379
  728POPI   C3B11209  14.207  14.773   6.881 -0.0359  0.0085  0.0312
  728POPI   C4B11210  14.063  14.997   7.232 -0.0134 -0.1774  0.0691
  729POPI    C111211  19.164   3.973   5.290  0.0163  0.1202  0.1742
  729POPI    C211212  19.174   4.370   5.344  0.0801  0.1160  0.1947
  729POPI    C311213  19.271   4.214   4.989  0.0806  0.1171  0.1944
  729POPI   PO411214  19.191   3.962   5.650  0.0708 -0.0585 -0.0290
  729POPI   GL111215  18.865   3.906   5.982 -0.0591 -0.1090 -0.0231
  729POPI   GL211216  19.173   3.548   6.087  0.2113  0.0611 -0.1145
  729POPI   C1A11217  18.607   4.000   6.316  0.0837  0.0664  0.0233
  729POPI   D2A11218  18.729   3.904   6.694  0.2216  0.0809 -0.0171
  729POPI   C3A11219  18.576   3.988   7.050 -0.2214  0.0834 -0.0071
  729POPI   C4A11220  18.339   4.133   7.245  0.2087 -0.1579  0.0808
  729POPI   C1B11221  19.209   3.345   6.417  0.1293  0.1881  0.2003
  729POPI   C2B11222  19.356   3.166   6.776  0.0001 -0.4939 -0.0841
  729POPI   C3B11223  19.328   3.324   7.260 -0.0265  0.1436  0.0182
  729POPI   C4B11224  19.375   3.437   7.700 -0.2649  0.1045  0.3159
  730POPI    C111225  11.050  10.008   4.861 -0.2259 -0.3429  0.1039
  730POPI    C211226  10.677  10.033   4.717 -0.1355 -0.2546 -0.1192
  730POPI    C311227  10.901   9.711   4.639 -0.1057 -0.2316 -0.1292
  730POPI   PO411228  11.023  10.027   5.138 -0.0934  0.0798 -0.1499
  730POPI   GL111229  10.980   9.799   5.412  0.0980 -0.2137  0.0383
  730POPI   GL211230  10.878   9.646   5.745 -0.2469  0.0255 -0.2294
  730POPI   C1A11231  11.320   9.853   5.884 -0.0861  0.0901 -0.0700
  730POPI   D2A11232  11.322  10.013   6.251  0.0091 -0.3045 -0.0701
  730POPI   C3A11233  11.076   9.629   6.396  0.2565 -0.3756 -0.3637
  730POPI   C4A11234  11.313   9.259   6.511 -0.0969 -0.0876  0.1490
  730POPI   C1B11235  10.615   9.635   6.165 -0.0004 -0.0018  0.1258
  730POPI   C2B11236  10.299   9.485   6.399  0.0542  0.1373  0.0650
  730POPI   C3B11237   9.800   9.510   6.424 -0.0033 -0.0626  0.0293
  730POPI   C4B11238   9.695   9.414   6.888  0.3807  0.2390 -0.0420
  731POPI    C111239  13.202   2.809   5.360 -0.0199  0.1452 -0.0813
  731POPI    C211240  13.160   2.507   5.101 -0.1553  0.1718 -0.0913
  731POPI    C311241  12.848   2.743   5.186 -0.1124  0.1625  0.0973
  731POPI   PO411242  13.390   2.655   5.564 -0.1948  0.1223  0.1681
  731POPI   GL111243  13.361   2.192   5.893  0.0598 -0.2155 -0.4396
  731POPI   GL211244  13.455   2.080   6.086  0.1434  0.3494 -0.0382
  731POPI   C1A11245  13.014   1.930   6.201  0.1379  0.0550  0.1242
  731POPI   D2A11246  12.599   1.867   6.240 -0.1440  0.0432 -0.1854
  731POPI   C3A11247  12.351   1.967   6.655  0.0029 -0.0249 -0.2663
  731POPI   C4A11248  12.440   2.352   7.028  0.2731  0.1108  0.0300
  731POPI   C1B11249  13.343   2.082   6.604 -0.2582  0.2919  0.0188
  731POPI   C2B11250  13.275   2.015   7.015  0.0940 -0.1231  0.0977
  731POPI   C3B11251  13.371   1.730   7.370 -0.1685  0.0172 -0.2028
  731POPI   C4B11252  13.510   1.734   7.815 -0.3682  0.0343 -0.0116
  732POPI    C111253   6.352   3.444   4.737  0.3439 -0.0918 -0.1273
  732POPI    C211254   6.266   3.053   4.731  0.1255 -0.0478  0.0179
  732POPI    C311255   6.101   3.298   4.462  0.0833 -0.0202  0.0688
  732POPI   PO411256   6.607   3.413   4.835 -0.1769  0.3256  0.0732
  732POPI   GL111257   6.916   3.333   5.167  0.4658 -0.2255  0.2563
  732POPI   GL211258   7.166   3.519   5.141  0.1066 -0.4156  0.0792
  732POPI   C1A11259   6.912   3.278   5.542  0.1050 -0.2734  0.2670
  732POPI   D2A11260   6.801   3.457   5.974  0.1755 -0.3126 -0.1490
  732POPI   C3A11261   6.919   3.396   6.389 -0.0464 -0.0755  0.2524
  732POPI   C4A11262   7.232   3.623   6.704 -0.1994  0.2619 -0.1686
  732POPI   C1B11263   6.994   3.825   5.487  0.0494 -0.0869  0.1453
  732POPI   C2B11264   6.804   4.146   5.690  0.1326 -0.1648 -0.0519
  732POPI   C3B11265   6.510   4.403   5.806 -0.4703  0.0013  0.0378
  732POPI   C4B11266   6.385   4.622   5.539  0.0486 -0.0498 -0.0570
  733POPI    C111267  16.946   7.929   5.583 -0.1027 -0.1436  0.0533
  733POPI    C211268  16.697   7.885   5.272  0.1114  0.1972 -0.1739
  733POPI    C311269  16.951   7.591   5.369 -0.2029 -0.0535 -0.0938
  733POPI   PO411270  16.730   8.130   5.686  0.1824 -0.1346 -0.0969
  733POPI   GL111271  16.524   8.472   5.963 -0.1853  0.1021  0.1435
  733POPI   GL211272  16.208   8.333   5.940  0.2326 -0.2656  0.0467
  733POPI   C1A11273  16.742   8.612   6.308 -0.2561  0.2133  0.0046
  733POPI   D2A11274  17.202   8.750   6.459  0.1574 -0.0134 -0.0388
  733POPI   C3A11275  17.405   9.084   6.518 -0.0958  0.0482  0.1715
  733POPI   C4A11276  17.613   9.055   6.915  0.0948 -0.0534  0.1948
  733POPI   C1B11277  16.217   8.480   6.375 -0.1026  0.0040  0.2457
  733POPI   C2B11278  16.235   8.366   6.831 -0.0010 -0.2327 -0.1458
  733POPI   C3B11279  15.891   8.364   7.075 -0.0409 -0.1524  0.0209
  733POPI   C4B11280  15.723   8.760   7.343 -0.0322  0.0167  0.1687
  734POPI    C111281  12.714   5.808   5.154  0.1883 -0.0819  0.0430
  734POPI    C211282  12.707   5.523   4.874  0.0658 -0.1531  0.1177
  734POPI    C311283  12.908   5.463   5.214  0.2342 -0.0574  0.0361
  734POPI   PO411284  12.501   5.903   5.199 -0.4060  0.1108  0.0305
  734POPI   GL111285  12.188   5.808   5.520 -0.0550  0.1544  0.2435
  734POPI   GL211286  12.433   6.097   5.681 -0.4708 -0.0447 -0.0610
  734POPI   C1A11287  12.206   5.776   5.996  0.0341  0.2596  0.0901
  734POPI   D2A11288  12.178   5.518   6.310 -0.1115 -0.0309 -0.0915
  734POPI   C3A11289  12.565   5.522   6.537  0.0659  0.4238  0.1368
  734POPI   C4A11290  12.858   5.157   6.411  0.0105 -0.2119  0.2608
  734POPI   C1B11291  12.256   6.288   6.117  0.0023 -0.2927  0.2409
  734POPI   C2B11292  12.087   6.001   6.461 -0.0239 -0.0520  0.3421
  734POPI   C3B11293  12.091   5.721   6.795  0.0425 -0.2083  0.2062
  734POPI   C4B11294  12.012   5.859   7.248 -0.2014  0.2285  0.1543
  735POPI    C111295   9.731   2.149   4.198 -0.0116  0.0804 -0.1597
  735POPI    C211296   9.541   1.994   3.881  0.0467 -0.1560 -0.0816
  735POPI    C311297   9.822   2.274   3.829 -0.0496 -0.0847 -0.2260
  735POPI   PO411298   9.562   2.019   4.395 -0.1424 -0.0921 -0.3008
  735POPI   GL111299   9.521   1.941   4.783  0.1532  0.0295  0.0038
  735POPI   GL211300   9.328   1.835   4.988  0.2809 -0.0692 -0.0097
  735POPI   C1A11301   9.692   1.982   5.220 -0.0280  0.0352 -0.0704
  735POPI   D2A11302   9.713   2.334   5.519 -0.1022 -0.2176 -0.2571
  735POPI   C3A11303   9.348   2.463   5.799  0.0532 -0.1459 -0.1386
  735POPI   C4A11304   9.025   2.427   6.088 -0.3173  0.0328 -0.2409
  735POPI   C1B11305   9.392   1.629   5.442  0.0841 -0.0976  0.1120
  735POPI   C2B11306   9.236   1.454   5.911 -0.1222  0.2316 -0.0865
  735POPI   C3B11307   9.262   1.354   6.394 -0.0287 -0.2047  0.0872
  735POPI   C4B11308   9.017   1.208   6.645  0.1848  0.2150 -0.0975
  736POPI    C111309   0.176  17.459   5.581 -0.1006  0.0046  0.0839
  736POPI    C211310   0.126  17.354   5.198  0.1224  0.0975  0.0276
  736POPI    C311311   0.272  17.715   5.289  0.3118 -0.0179  0.1926
  736POPI   PO411312  -0.035  17.266   5.704  0.0164  0.3916 -0.1656
  736POPI   GL111313  -0.415  17.394   5.911  0.1360  0.0134  0.1609
  736POPI   GL211314  -0.543  17.172   5.818 -0.1438  0.1295  0.0424
  736POPI   C1A11315  -0.275  17.324   6.329 -0.0896 -0.2279 -0.0897
  736POPI   D2A11316  -0.191  17.456   6.778 -0.0175 -0.1501 -0.1522
  736POPI   C3A11317  -0.134  17.724   7.257 -0.0484  0.0567  0.0541
  736POPI   C4A11318   0.182  17.602   7.615  0.0155  0.2315  0.1135
  736POPI   C1B11319  -0.767  17.036   6.206  0.0653 -0.2913  0.0433
  736POPI   C2B11320  -0.699  16.641   6.525 -0.1942 -0.4022  0.1047
  736POPI   C3B11321  -0.683  16.497   6.961 -0.1184  0.1299 -0.2009
  736POPI   C4B11322  -0.543  16.622   7.308  0.0187 -0.3968  0.0712
  737POPI    C111323   2.483   0.569   4.854  0.0944  0.2737  0.0965
  737POPI    C211324   2.515   0.894   4.623  0.2345  0.1776 -0.0215
  737POPI    C311325   2.477   0.532   4.456  0.0406  0.1358  0.1095
  737POPI   PO411326   2.694   0.548   5.006  0.0635 -0.2122 -0.2516
  737POPI   GL111327   3.002   0.475   5.413  0.1602 -0.0531  0.0830
  737POPI   GL211328   2.855   0.781   5.426 -0.1189  0.0992 -0.1299
  737POPI   C1A11329   2.944   0.353   5.755  0.0475  0.4555  0.0737
  737POPI   D2A11330   2.894   0.365   6.126  0.1290 -0.4407  0.3950
  737POPI   C3A11331   3.159   0.325   6.535 -0.1797 -0.2082  0.0347
  737POPI   C4A11332   3.623   0.257   6.609  0.0078 -0.2834  0.3574
  737POPI   C1B11333   2.587   0.752   5.866  0.0264  0.1396 -0.1092
  737POPI   C2B11334   2.526   0.757   6.355  0.0053  0.0226 -0.0372
  737POPI   C3B11335   2.595   0.594   6.703 -0.0890 -0.1079  0.2138
  737POPI   C4B11336   2.380   0.616   7.079 -0.0017 -0.2614  0.2747
  738POPI    C111337   5.083   0.998   4.637 -0.3143  0.3054 -0.3403
  738POPI    C211338   4.968   0.715   4.378 -0.1916 -0.2718  0.2091
  738POPI    C311339   5.347   0.727   4.507 -0.1890  0.1677  0.1780
  738POPI   PO411340   4.913   1.084   4.793 -0.0612  0.3016 -0.2515
  738POPI   GL111341   4.711   0.842   5.029 -0.3558 -0.0998  0.0310
  738POPI   GL211342   4.454   0.729   5.084  0.2278 -0.1965  0.1055
  738POPI   C1A11343   4.697   0.867   5.503 -0.1300 -0.0807  0.2179
  738POPI   D2A11344   4.441   0.751   5.827  0.1327  0.0645 -0.1456
  738POPI   C3A11345   4.339   1.156   6.026 -0.3420 -0.5007 -0.2249
  738POPI   C4A11346   4.334   1.423   6.265 -0.1165  0.1702  0.2757
  738POPI   C1B11347   4.403   0.493   5.419  0.0079  0.0282  0.3117
  738POPI   C2B11348   4.284   0.288   5.885 -0.0881  0.1267 -0.3368
  738POPI   C3B11349   4.623   0.115   6.226  0.1694 -0.0658  0.1239
  738POPI   C4B11350   4.833   0.169   6.555  0.1257 -0.0686 -0.0788
  739POPI    C111351  16.893  16.655   5.394 -0.0859  0.2679  0.0114
  739POPI    C211352  16.897  16.260   5.328  0.0171  0.3010 -0.1876
  739POPI    C311353  16.552  16.445   5.406 -0.0429  0.1845 -0.1742
  739POPI   PO411354  17.011  16.722   5.627 -0.0845 -0.0551  0.1663
  739POPI   GL111355  17.062  16.796   6.020 -0.1601  0.1905  0.4394
  739POPI   GL211356  17.340  16.597   5.972 -0.3305 -0.0030 -0.2438
  739POPI   C1A11357  17.156  16.383   6.347 -0.1452  0.0231 -0.2514
  739POPI   D2A11358  17.263  16.009   6.676 -0.0377 -0.4066  0.2705
  739POPI   C3A11359  17.531  16.061   6.986 -0.0645  0.3258 -0.0136
  739POPI   C4A11360  17.739  16.199   7.352 -0.1077 -0.1757 -0.1286
  739POPI   C1B11361  17.564  16.944   6.175 -0.0483 -0.3526 -0.1779
  739POPI   C2B11362  17.903  17.087   6.317  0.0309  0.0210 -0.0740
  739POPI   C3B11363  18.218  17.311   6.652  0.1160  0.2991  0.0908
  739POPI   C4B11364  18.386  17.662   6.633 -0.2731  0.0653  0.3974
  740POPI    C111365  18.203  14.074   5.132 -0.1461 -0.0963 -0.1406
  740POPI    C211366  18.562  13.917   5.210 -0.1405  0.0684  0.1850
  740POPI    C311367  18.535  14.275   5.034 -0.1499 -0.0518 -0.0630
  740POPI   PO411368  18.118  14.074   5.401 -0.3449 -0.1663  0.0599
  740POPI   GL111369  17.855  14.088   5.729 -0.1925  0.0411 -0.0667
  740POPI   GL211370  18.041  14.366   5.811  0.1548 -0.1290  0.1246
  740POPI   C1A11371  17.751  13.870   6.265  0.1211  0.0568  0.1768
  740POPI   D2A11372  17.958  13.516   6.442 -0.0917 -0.1465  0.2588
  740POPI   C3A11373  18.222  13.514   6.897  0.0777 -0.0328 -0.2308
  740POPI   C4A11374  18.489  13.559   7.184  0.0821 -0.0381  0.2862
  740POPI   C1B11375  18.137  14.097   6.172  0.0213 -0.0001  0.4753
  740POPI   C2B11376  18.185  13.968   6.711 -0.3805 -0.1207  0.1334
  740POPI   C3B11377  18.560  13.963   6.906  0.1712 -0.0860 -0.0527
  740POPI   C4B11378  18.694  13.991   7.294  0.0588 -0.0788  0.1550
  741POPS   CNO11379  18.980   1.454   4.955  0.2835  0.0391 -0.1746
  741POPS   PO411380  19.220   1.547   5.332 -0.1520 -0.1055 -0.0423
  741POPS   GL111381  19.437   1.457   5.713 -0.1064 -0.3716 -0.2220
  741POPS   GL211382  19.721   1.211   5.678  0.1809  0.3618 -0.2231
  741POPS   C1A11383  19.234   1.130   5.981  0.1680 -0.4026  0.0151
  741POPS   D2A11384  19.334   0.912   6.399  0.1599  0.0672  0.0760
  741POPS   C3A11385  19.332   0.470   6.576  0.1297 -0.3086  0.0008
  741POPS   C4A11386  19.261   0.027   6.795  0.1375 -0.1068 -0.1661
  741POPS   C1B11387  19.710   1.122   6.062 -0.2784  0.0769 -0.0062
  741POPS   C2B11388  19.689   1.212   6.420 -0.4718 -0.0281  0.2481
  741POPS   C3B11389  19.854   1.127   6.823  0.1782  0.1382 -0.0561
  741POPS   C4B11390  20.144   0.957   7.232  0.3942 -0.0028 -0.0344
  742POPS   CNO11391  12.086  10.670   5.268  0.0396  0.0077  0.3422
  742POPS   PO411392  12.489  10.813   5.166  0.0802 -0.0574 -0.1463
  742POPS   GL111393  12.457  10.697   5.597 -0.3570  0.2130 -0.1423
  742POPS   GL211394  12.311  10.945   5.767 -0.0390 -0.1752  0.3923
  742POPS   C1A11395  12.777  10.656   5.964 -0.0229  0.1869  0.2603
  742POPS   D2A11396  13.103  10.652   6.285  0.1131 -0.0284 -0.0271
  742POPS   C3A11397  12.891  10.801   6.575  0.0527 -0.0136 -0.2907
  742POPS   C4A11398  12.666  10.617   6.867 -0.0919  0.0269 -0.3704
  742POPS   C1B11399  12.290  10.886   6.127 -0.2773 -0.2195 -0.0151
  742POPS   C2B11400  12.323  10.951   6.572 -0.0103 -0.1118  0.3100
  742POPS   C3B11401  12.534  11.160   6.829  0.2176 -0.0819  0.1495
  742POPS   C4B11402  12.887  11.313   6.907  0.1388  0.2621 -0.1394
  743POPS   CNO11403   5.695   2.401   4.675  0.2501  0.4421 -0.1331
  743POPS   PO411404   5.945   2.690   4.866 -0.1728 -0.2362  0.2203
  743POPS   GL111405   5.950   2.907   5.240 -0.0742  0.0963  0.0266
  743POPS   GL211406   6.203   3.183   5.201 -0.0790  0.3029  0.0449
  743POPS   C1A11407   5.974   3.066   5.698  0.1947  0.1764  0.0091
  743POPS   D2A11408   5.965   3.076   6.111 -0.2996  0.2476  0.3714
  743POPS   C3A11409   5.834   3.405   6.372 -0.1667  0.1387 -0.0033
  743POPS   C4A11410   5.451   3.482   6.598 -0.1394 -0.1526 -0.2986
  743POPS   C1B11411   6.384   3.288   5.640  0.2545  0.1139  0.0537
  743POPS   C2B11412   6.362   3.301   6.047  0.1495  0.1087  0.2192
  743POPS   C3B11413   6.485   3.246   6.511  0.1819 -0.0637 -0.0858
  743POPS   C4B11414   6.528   3.150   6.964 -0.0187  0.1786 -0.2983
  744POPS   CNO11415  10.854  13.058   5.169  0.0760 -0.0748 -0.1968
  744POPS   PO411416  10.628  12.713   5.009 -0.0489 -0.2747  0.6178
  744POPS   GL111417  10.492  12.676   5.445  0.0551 -0.1213  0.0536
  744POPS   GL211418  10.483  12.330   5.427  0.0087 -0.2198  0.1969
  744POPS   C1A11419  10.260  12.579   5.818  0.1253  0.0824  0.2453
  744POPS   D2A11420   9.829  12.582   5.974 -0.0096 -0.0636 -0.0925
  744POPS   C3A11421   9.773  12.407   6.472  0.0496 -0.0896 -0.2013
  744POPS   C4A11422   9.902  11.945   6.633  0.1249  0.3520 -0.0702
  744POPS   C1B11423  10.056  12.113   5.588  0.0659 -0.2249  0.3309
  744POPS   C2B11424   9.938  12.019   5.996  0.0967 -0.4288  0.0088
  744POPS   C3B11425   9.593  11.875   6.267  0.1733  0.3429 -0.0837
  744POPS   C4B11426   9.260  11.639   6.334  0.0898 -0.0689 -0.0762
  745POPS   CNO11427  11.427   5.806   4.779 -0.1380  0.0926 -0.1847
  745POPS   PO411428  11.132   5.666   5.085 -0.1828  0.2718 -0.0438
  745POPS   GL111429  11.232   5.554   5.475 -0.0829 -0.0789  0.0978
  745POPS   GL211430  10.920   5.322   5.592 -0.3891  0.0706 -0.1039
  745POPS   C1A11431  11.200   5.390   5.981  0.4462 -0.0179 -0.0382
  745POPS   D2A11432  11.168   5.229   6.332  0.1800  0.3719  0.1369
  745POPS   C3A11433  11.005   5.450   6.711 -0.1092 -0.0498  0.2211
  745POPS   C4A11434  10.889   5.533   7.203 -0.0587  0.2404 -0.0399
  745POPS   C1B11435  10.624   5.111   5.927  0.1164  0.0915 -0.0513
  745POPS   C2B11436  10.341   5.112   6.372 -0.0519  0.0468 -0.3415
  745POPS   C3B11437  10.299   5.276   6.826  0.0655 -0.2184 -0.0822
  745POPS   C4B11438  10.418   5.606   7.019 -0.1832 -0.0617  0.0466
  746POPS   CNO11439  16.656   3.204   5.569  0.1546  0.0542  0.2206
  746POPS   PO411440  16.653   3.627   5.552 -0.2374  0.0350 -0.1979
  746POPS   GL111441  16.526   3.621   5.914  0.2708  0.2453 -0.1915
  746POPS   GL211442  16.643   3.376   6.101 -0.0123 -0.1762  0.1575
  746POPS   C1A11443  16.118   3.751   6.328  0.0249  0.1695 -0.0900
  746POPS   D2A11444  16.093   3.750   6.704 -0.2319 -0.1748 -0.1957
  746POPS   C3A11445  15.972   3.486   6.972  0.1555  0.2750  0.1882
  746POPS   C4A11446  15.869   3.208   7.256  0.0492 -0.0861 -0.1567
  746POPS   C1B11447  16.629   3.594   6.399 -0.0525  0.0894  0.3342
  746POPS   C2B11448  16.601   3.590   6.789 -0.2658 -0.2020  0.1759
  746POPS   C3B11449  16.821   3.530   7.078 -0.1825  0.1717  0.3332
  746POPS   C4B11450  17.205   3.576   7.239 -0.1231 -0.1612 -0.0602
  747POPS   CNO11451  18.551  14.056   5.780  0.3258 -0.1729 -0.0513
  747POPS   PO411452  18.915  13.809   5.604  0.0213 -0.1075 -0.2765
  747POPS   GL111453  19.041  14.161   6.022 -0.2028 -0.6230  0.0960
  747POPS   GL211454  19.060  14.474   6.083 -0.1324 -0.0385  0.1717
  747POPS   C1A11455  19.089  14.126   6.525  0.1869 -0.0855  0.2347
  747POPS   D2A11456  19.067  14.066   6.900  0.1870 -0.0718  0.0565
  747POPS   C3A11457  18.865  14.365   7.035  0.4277  0.1525 -0.0118
  747POPS   C4A11458  18.764  14.457   7.539 -0.1139  0.3189  0.2554
  747POPS   C1B11459  18.885  14.588   6.486  0.1826 -0.0034  0.0470
  747POPS   C2B11460  18.715  14.810   6.806 -0.0317  0.2359  0.0533
  747POPS   C3B11461  18.850  14.881   7.296 -0.0007 -0.1143 -0.3288
  747POPS   C4B11462  19.067  14.868   7.723 -0.1058  0.3421  0.3692
  748POPS   CNO11463   8.179  14.964   5.596  0.1055 -0.1497  0.0270
  748POPS   PO411464   8.469  14.666   5.508 -0.0744  0.0240 -0.1006
  748POPS   GL111465   8.312  14.458   5.889  0.1990  0.2549 -0.2267
  748POPS   GL211466   8.071  14.727   6.106  0.0165 -0.2178  0.0706
  748POPS   C1A11467   8.272  14.142   6.349  0.0016 -0.1270 -0.3330
  748POPS   D2A11468   8.575  14.035   6.759  0.0235  0.1667 -0.1627
  748POPS   C3A11469   8.951  13.972   6.612  0.0826 -0.1469 -0.0300
  748POPS   C4A11470   9.263  13.787   6.363  0.1094 -0.2721  0.0776
  748POPS   C1B11471   8.471  14.850   6.289 -0.1153  0.0457  0.1630
  748POPS   C2B11472   8.642  14.878   6.649  0.0134 -0.1515  0.2030
  748POPS   C3B11473   8.924  14.976   6.984  0.1104  0.2515  0.1982
  748POPS   C4B11474   9.072  14.858   7.374  0.0621 -0.1961  0.3883
  749POPS   CNO11475   8.573   3.368   4.692 -0.1932 -0.2736 -0.0039
  749POPS   PO411476   8.913   3.652   4.317  0.2578 -0.0085  0.1376
  749POPS   GL111477   9.041   3.531   4.703  0.2161  0.2595 -0.2208
  749POPS   GL211478   9.141   3.261   4.741  0.0171  0.1688 -0.1419
  749POPS   C1A11479   8.820   3.550   5.078  0.1938 -0.2689  0.0190
  749POPS   D2A11480   8.571   3.765   5.434 -0.0019 -0.0991  0.0043
  749POPS   C3A11481   8.675   4.116   5.592  0.0985 -0.0809 -0.0360
  749POPS   C4A11482   8.625   4.517   5.846  0.0532 -0.1766  0.0432
  749POPS   C1B11483   8.967   3.103   5.086 -0.2630  0.1780 -0.1973
  749POPS   C2B11484   8.728   3.185   5.535  0.1654 -0.1193  0.1190
  749POPS   C3B11485   8.492   3.448   5.861 -0.1635  0.0591 -0.0103
  749POPS   C4B11486   8.419   3.234   6.249 -0.3355 -0.2767 -0.1187
  750POPS   CNO11487   0.602  13.417   5.349 -0.0496 -0.2617  0.0212
  750POPS   PO411488   0.741  13.516   5.747 -0.0466  0.2980 -0.2015
  750POPS   GL111489   0.639  13.242   6.144 -0.2028  0.0521 -0.3066
  750POPS   GL211490   0.514  13.507   6.273  0.2468  0.1951 -0.1665
  750POPS   C1A11491   0.841  13.189   6.501 -0.0702  0.0321 -0.0907
  750POPS   D2A11492   0.913  13.238   6.837 -0.1958  0.3162  0.0518
  750POPS   C3A11493   1.095  13.594   6.987 -0.0188  0.0792  0.1112
  750POPS   C4A11494   1.073  13.742   7.399  0.0528 -0.0453  0.0108
  750POPS   C1B11495   0.640  13.618   6.706  0.3493  0.1731 -0.0500
  750POPS   C2B11496   0.637  13.620   7.194 -0.1365  0.0276  0.0798
  750POPS   C3B11497   0.619  13.577   7.722  0.0696 -0.4564  0.1561
  750POPS   C4B11498   0.210  13.599   8.080 -0.0531 -0.1720  0.0062
  751POPS   CNO11499  10.383   4.208   4.462 -0.0367 -0.3490  0.0010
  751POPS   PO411500  10.150   3.824   4.583 -0.3073  0.1292  0.3038
  751POPS   GL111501  10.016   3.715   4.904 -0.1755 -0.1771  0.2044
  751POPS   GL211502   9.755   3.455   4.771  0.3321  0.0268 -0.3300
  751POPS   C1A11503   9.847   3.560   5.283  0.0399 -0.0324 -0.0720
  751POPS   D2A11504   9.771   3.317   5.665 -0.0257  0.1164  0.0850
  751POPS   C3A11505  10.096   3.129   5.973 -0.0147  0.3199 -0.0965
  751POPS   C4A11506  10.264   2.960   6.277  0.1954  0.2236  0.0557
  751POPS   C1B11507   9.600   3.196   5.057  0.0039  0.0105 -0.0110
  751POPS   C2B11508   9.365   3.181   5.443 -0.0905 -0.2288 -0.0525
  751POPS   C3B11509   9.117   2.946   5.673 -0.4449  0.1842  0.0483
  751POPS   C4B11510   8.893   2.892   6.010 -0.0655  0.0888  0.0189
  752POPS   CNO11511   4.613  11.186   4.925 -0.1700 -0.0014  0.1659
  752POPS   PO411512   4.340  11.103   5.320 -0.0257 -0.0297  0.0584
  752POPS   GL111513   4.416  10.991   5.668  0.1175 -0.2537 -0.1396
  752POPS   GL211514   4.643  11.090   5.834 -0.0309 -0.0814  0.0339
  752POPS   C1A11515   4.398  10.661   5.965 -0.3145  0.1174  0.0771
  752POPS   D2A11516   4.526  10.713   6.336 -0.0087 -0.0058  0.1327
  752POPS   C3A11517   4.707  10.465   6.664 -0.4777  0.0318 -0.2851
  752POPS   C4A11518   5.005  10.102   6.726 -0.1049 -0.0133 -0.2341
  752POPS   C1B11519   4.640  11.150   6.180 -0.0448 -0.1139 -0.0255
  752POPS   C2B11520   4.838  11.189   6.511  0.4069 -0.0641  0.2039
  752POPS   C3B11521   4.988  10.880   6.774 -0.0562  0.2227 -0.0202
  752POPS   C4B11522   4.987  10.509   7.085  0.2172  0.2871 -0.0299
  753POPS   CNO11523   0.616  10.500   5.539 -0.1733  0.2654  0.0799
  753POPS   PO411524   0.444  10.146   5.505  0.1539 -0.1650 -0.1917
  753POPS   GL111525   0.448  10.199   5.938  0.0589  0.3535 -0.2184
  753POPS   GL211526   0.750  10.448   6.008 -0.1685  0.0770  0.1454
  753POPS   C1A11527   0.361  10.003   6.347  0.0013  0.0851  0.2800
  753POPS   D2A11528   0.181  10.058   6.710 -0.1422 -0.2177 -0.1320
  753POPS   C3A11529   0.422   9.864   7.042 -0.1343  0.0674 -0.1026
  753POPS   C4A11530   0.471   9.512   7.182  0.1289  0.2710  0.2164
  753POPS   C1B11531   0.943  10.074   6.208 -0.0164 -0.0204  0.0030
  753POPS   C2B11532   0.747   9.879   6.669 -0.1244  0.1980 -0.2398
  753POPS   C3B11533   0.871   9.896   7.229  0.3120  0.2691 -0.0392
  753POPS   C4B11534   0.819   9.884   7.654 -0.1838 -0.0770  0.0574
  754POPS   CNO11535  12.402   3.007   5.620 -0.2019 -0.1380  0.2116
  754POPS   PO411536  12.781   2.879   5.675 -0.2730  0.0384 -0.0043
  754POPS   GL111537  13.000   2.744   5.979 -0.0521 -0.1991  0.0789
  754POPS   GL211538  13.176   2.939   6.191 -0.0930 -0.1147  0.1580
  754POPS   C1A11539  12.991   2.448   6.279  0.0230  0.1190 -0.1305
  754POPS   D2A11540  12.767   2.269   6.568 -0.1316 -0.0300 -0.1487
  754POPS   C3A11541  12.917   1.853   6.739  0.0153 -0.0940 -0.3041
  754POPS   C4A11542  12.936   1.673   7.224 -0.1012 -0.1515  0.1422
  754POPS   C1B11543  13.149   2.749   6.685 -0.1360 -0.1133 -0.2178
  754POPS   C2B11544  13.417   2.493   6.858  0.0296 -0.1840  0.1961
  754POPS   C3B11545  13.768   2.335   6.932  0.0289  0.2318  0.1394
  754POPS   C4B11546  14.169   2.144   6.954  0.2097  0.2337  0.1066
  755POPS   CNO11547   7.364   6.975   4.924 -0.3207  0.1175  0.1245
  755POPS   PO411548   7.727   6.560   4.862 -0.1236 -0.2827 -0.1657
  755POPS   GL111549   7.907   6.754   5.215 -0.2083  0.0372  0.1711
  755POPS   GL211550   8.230   6.814   5.256 -0.1973  0.3050 -0.2147
  755POPS   C1A11551   7.807   6.693   5.613 -0.0793 -0.1017  0.1311
  755POPS   D2A11552   7.761   6.753   5.984 -0.1980  0.0385 -0.1544
  755POPS   C3A11553   7.889   6.985   6.335  0.0952  0.0550 -0.2233
  755POPS   C4A11554   7.775   7.067   6.733 -0.1355 -0.3549  0.0541
  755POPS   C1B11555   8.281   6.774   5.601 -0.0799 -0.1158 -0.0525
  755POPS   C2B11556   8.227   6.904   6.001 -0.0436 -0.2549 -0.1799
  755POPS   C3B11557   8.424   6.837   6.413  0.2514  0.0051 -0.1071
  755POPS   C4B11558   8.329   6.966   6.902 -0.4826 -0.1082  0.0542
  756POPS   CNO11559  14.131  11.386   5.530 -0.0353  0.3525 -0.2258
  756POPS   PO411560  13.608  11.501   5.549 -0.2012 -0.2369 -0.1508
  756POPS   GL111561  13.791  11.461   5.945 -0.1099 -0.0451 -0.0372
  756POPS   GL211562  13.821  11.156   5.997 -0.0219 -0.1453  0.0712
  756POPS   C1A11563  13.728  11.459   6.391  0.0453 -0.1160  0.3159
  756POPS   D2A11564  13.818  11.662   6.868 -0.0532 -0.0686 -0.3567
  756POPS   C3A11565  13.616  12.058   7.100  0.0095  0.3059 -0.2175
  756POPS   C4A11566  13.356  12.367   6.908  0.0403 -0.1952  0.1655
  756POPS   C1B11567  13.915  10.973   6.370 -0.0588  0.5184  0.0507
  756POPS   C2B11568  13.846  11.053   6.801  0.1699  0.1808 -0.0138
  756POPS   C3B11569  13.967  11.088   7.196 -0.1026 -0.2636 -0.1391
  756POPS   C4B11570  14.033  10.874   7.594  0.0986  0.0887 -0.0876
  757POPS   CNO11571  14.229  17.449   5.763  0.0737 -0.2079  0.4074
  757POPS   PO411572  14.483  17.852   5.684  0.0363  0.2793  0.3143
  757POPS   GL111573  14.550  17.757   6.164 -0.1064  0.0313  0.3163
  757POPS   GL211574  14.371  18.012   6.283 -0.1367 -0.1338 -0.0305
  757POPS   C1A11575  14.631  17.576   6.576  0.0015 -0.2951  0.0608
  757POPS   D2A11576  14.659  17.548   6.958  0.1518  0.0639 -0.0273
  757POPS   C3A11577  14.888  17.813   7.148 -0.0918 -0.1920  0.1891
  757POPS   C4A11578  14.925  18.197   7.232  0.0425 -0.1517  0.2348
  757POPS   C1B11579  14.056  18.193   6.488  0.0364  0.0609  0.0001
  757POPS   C2B11580  14.050  18.250   6.930 -0.1462  0.1906 -0.0395
  757POPS   C3B11581  14.445  18.024   7.301 -0.0264 -0.1289  0.1934
  757POPS   C4B11582  14.571  17.704   7.463 -0.2206 -0.1991  0.1153
  758POPS   CNO11583  10.861  15.200   4.989 -0.1507 -0.0121 -0.0035
  758POPS   PO411584  11.101  14.896   5.260 -0.1810 -0.0240 -0.2466
  758POPS   GL111585  10.953  14.668   5.610 -0.2242 -0.0004  0.0751
  758POPS   GL211586  11.048  14.748   5.846 -0.0526 -0.2318 -0.1040
  758POPS   C1A11587  10.892  14.280   5.994 -0.1402  0.0203  0.3004
  758POPS   D2A11588  10.961  14.008   6.352 -0.2204 -0.2295 -0.1864
  758POPS   C3A11589  10.726  13.650   6.462 -0.0066  0.1252  0.1866
  758POPS   C4A11590  10.648  13.277   6.718 -0.0783 -0.0835 -0.2742
  758POPS   C1B11591  11.136  14.778   6.268 -0.3443  0.2095  0.1416
  758POPS   C2B11592  11.175  14.702   6.620  0.1240  0.1040  0.0192
  758POPS   C3B11593  11.115  14.550   6.994 -0.1202 -0.2406  0.1010
  758POPS   C4B11594  11.351  14.510   7.347 -0.2680 -0.1098 -0.1080
  759POPS   CNO11595  19.259   0.589   5.261  0.2775  0.0105 -0.4176
  759POPS   PO411596  18.840   0.682   5.406 -0.0731 -0.0465 -0.3177
  759POPS   GL111597  19.090   0.378   5.798  0.0220  0.2459  0.0786
  759POPS   GL211598  19.331   0.217   5.763 -0.2683  0.0540  0.2899
  759POPS   C1A11599  19.053   0.509   6.142  0.2953 -0.0397 -0.0712
  759POPS   D2A11600  18.702   0.796   6.266  0.1755  0.0308 -0.1075
  759POPS   C3A11601  18.879   1.010   6.585 -0.1214  0.1985  0.2923
  759POPS   C4A11602  19.096   1.353   6.788  0.2552 -0.1036 -0.0378
  759POPS   C1B11603  19.342   0.127   6.231 -0.1127  0.0434  0.1965
  759POPS   C2B11604  19.520  -0.226   6.485  0.0753 -0.3005 -0.2265
  759POPS   C3B11605  19.272  -0.496   6.801 -0.0922 -0.1482 -0.0397
  759POPS   C4B11606  18.840  -0.796   6.905  0.0693 -0.1647 -0.1604
  760POPS   CNO11607  12.951   1.011   5.350 -0.1226  0.3467 -0.4519
  760POPS   PO411608  12.584   1.066   5.267 -0.0231  0.1340  0.2826
  760POPS   GL111609  12.357   1.051   5.602  0.1538  0.1262 -0.0289
  760POPS   GL211610  12.006   0.843   5.616  0.1747 -0.0341 -0.1292
  760POPS   C1A11611  12.055   1.206   5.921  0.1765  0.2890 -0.1629
  760POPS   D2A11612  11.696   1.328   6.228  0.1995 -0.0228 -0.1264
  760POPS   C3A11613  11.397   0.934   6.178 -0.2741 -0.0998  0.0650
  760POPS   C4A11614  10.935   0.773   6.418 -0.0769 -0.0122 -0.0172
  760POPS   C1B11615  11.829   0.730   6.006  0.2662  0.0379  0.1471
  760POPS   C2B11616  11.486   0.465   6.197  0.0243  0.5920  0.2579
  760POPS   C3B11617  11.339   0.484   6.590  0.3341  0.0963  0.4117
  760POPS   C4B11618  11.167   0.596   7.076 -0.0381  0.3679  0.0939
  761POPS   CNO11619  18.731   2.207   5.244  0.0264 -0.3180 -0.0804
  761POPS   PO411620  18.382   2.105   5.568 -0.0382  0.3063  0.0404
  761POPS   GL111621  18.628   2.395   5.839  0.1937 -0.1732 -0.1039
  761POPS   GL211622  18.650   2.166   5.992 -0.0479 -0.1168  0.2678
  761POPS   C1A11623  18.496   2.577   6.137 -0.0469 -0.1047 -0.3793
  761POPS   D2A11624  18.400   2.778   6.577  0.0377 -0.2346 -0.0323
  761POPS   C3A11625  18.511   2.695   7.005  0.3411  0.2750  0.0283
  761POPS   C4A11626  18.467   2.940   7.450 -0.2564 -0.1548  0.0521
  761POPS   C1B11627  18.849   1.921   6.151 -0.1453 -0.2578  0.1963
  761POPS   C2B11628  19.045   1.909   6.491  0.0847  0.0337  0.2013
  761POPS   C3B11629  19.154   1.858   6.869  0.3521 -0.0974 -0.0477
  761POPS   C4B11630  19.183   1.616   7.279  0.0000  0.0951 -0.0868
  762POPS   CNO11631  12.360  19.051   4.919  0.0039 -0.2235 -0.0493
  762POPS   PO411632  12.053  18.968   5.158  0.0825  0.4637  0.1089
  762POPS   GL111633  11.962  18.996   5.623  0.0175  0.0584 -0.0925
  762POPS   GL211634  12.139  19.236   5.736  0.0167  0.0103 -0.1425
  762POPS   C1A11635  11.745  18.995   6.007  0.1123  0.4325  0.2277
  762POPS   D2A11636  11.701  19.010   6.499 -0.0938  0.1539  0.3088
  762POPS   C3A11637  11.311  19.187   6.507 -0.0873  0.0184 -0.1485
  762POPS   C4A11638  11.224  19.402   6.923  0.2889 -0.1117 -0.2205
  762POPS   C1B11639  12.133  19.248   6.180  0.0619  0.2263  0.1727
  762POPS   C2B11640  12.147  19.224   6.714 -0.1622 -0.0046 -0.0278
  762POPS   C3B11641  12.046  19.124   7.159  0.2819 -0.1026  0.6131
  762POPS   C4B11642  12.007  19.012   7.656  0.0826  0.4193  0.1268
  763POPS   CNO11643  10.535   9.363   4.712  0.0647 -0.1163 -0.3388
  763POPS   PO411644  10.613   9.153   5.086  0.0617  0.0698 -0.1565
  763POPS   GL111645  10.795   9.033   5.530  0.3066 -0.1760 -0.2682
  763POPS   GL211646  10.993   8.791   5.599 -0.2120  0.2056  0.2391
  763POPS   C1A11647  10.689   9.187   5.845 -0.1305 -0.1608  0.0925
  763POPS   D2A11648  10.211   9.183   5.913  0.0792 -0.0925  0.0349
  763POPS   C3A11649  10.095   9.019   6.347 -0.0659 -0.0224  0.1633
  763POPS   C4A11650  10.071   9.109   6.722 -0.1635  0.0212  0.0830
  763POPS   C1B11651  10.986   8.738   6.037 -0.0614  0.0581  0.2425
  763POPS   C2B11652  11.048   8.786   6.477  0.0886  0.2833 -0.0229
  763POPS   C3B11653  11.274   8.967   6.868 -0.3287  0.0217 -0.1623
  763POPS   C4B11654  11.119   9.084   7.320 -0.5502  0.1805  0.2735
  764POPS   CNO11655  14.625  18.328   5.629 -0.2071 -0.1581  0.0122
  764POPS   PO411656  14.185  18.393   5.832 -0.1872 -0.0906 -0.0039
  764POPS   GL111657  14.457  18.550   6.033 -0.0333 -0.1639 -0.3174
  764POPS   GL211658  14.577  18.885   6.089 -0.1749 -0.3672  0.0611
  764POPS   C1A11659  14.414  18.611   6.493 -0.2771  0.0898 -0.1970
  764POPS   D2A11660  14.423  18.514   6.888  0.3381  0.0284  0.1914
  764POPS   C3A11661  14.679  18.751   7.172  0.2599  0.1452  0.0391
  764POPS   C4A11662  14.922  18.852   7.451 -0.1772  0.4674 -0.0659
  764POPS   C1B11663  14.699  19.014   6.554 -0.2456 -0.0394 -0.1185
  764POPS   C2B11664  15.020  19.075   6.958  0.0788  0.0586  0.1576
  764POPS   C3B11665  15.293  19.257   7.168  0.0011 -0.0921  0.1573
  764POPS   C4B11666  15.465  19.632   7.176  0.0107  0.1747 -0.1648
  765POPS   CNO11667  16.157   8.655   5.043  0.2047  0.1288 -0.2573
  765POPS   PO411668  16.010   8.643   5.525  0.1513 -0.0626  0.2918
  765POPS   GL111669  15.977   8.764   5.944  0.0508 -0.2072 -0.0011
  765POPS   GL211670  16.247   8.881   6.048  0.0657  0.1480 -0.0905
  765POPS   C1A11671  15.728   8.792   6.263  0.2185  0.0731 -0.0063
  765POPS   D2A11672  15.890   8.783   6.711 -0.2119  0.2980 -0.3065
  765POPS   C3A11673  15.624   9.039   6.944 -0.1333 -0.2500 -0.2957
  765POPS   C4A11674  15.438   9.434   6.833  0.1474  0.1263  0.1492
  765POPS   C1B11675  16.338   8.922   6.434 -0.0586 -0.4649 -0.4140
  765POPS   C2B11676  16.474   8.915   6.886  0.1689  0.1048  0.0353
  765POPS   C3B11677  16.410   8.947   7.242  0.1058 -0.0665 -0.0339
  765POPS   C4B11678  16.072   9.051   7.538 -0.0821  0.1773  0.3127
  766POPS   CNO11679   0.346   5.064   5.554  0.1834  0.2906  0.3788
  766POPS   PO411680   0.640   4.983   5.154  0.0053  0.4017 -0.2002
  766POPS   GL111681   0.977   5.165   5.444 -0.0892 -0.0670 -0.3684
  766POPS   GL211682   0.902   5.477   5.522 -0.2251  0.1067  0.0005
  766POPS   C1A11683   0.808   5.164   5.864  0.1372  0.0899 -0.2837
  766POPS   D2A11684   0.587   5.142   6.275 -0.0676 -0.3695 -0.6349
  766POPS   C3A11685   0.232   5.097   6.460 -0.1821  0.2605 -0.2581
  766POPS   C4A11686   0.106   5.159   6.902  0.3940  0.2227 -0.0499
  766POPS   C1B11687   1.271   5.522   5.762  0.2162  0.1726 -0.0015
  766POPS   C2B11688   1.606   5.328   5.818  0.1180  0.1466 -0.0967
  766POPS   C3B11689   1.967   5.256   6.112  0.0590 -0.0258  0.0416
  766POPS   C4B11690   2.229   5.014   6.207  0.0251  0.3167 -0.0851
  767POPS   CNO11691   4.295   5.384   4.846  0.0930 -0.2437 -0.1614
  767POPS   PO411692   4.027   5.609   4.858 -0.3350  0.2355  0.0720
  767POPS   GL111693   4.192   5.558   5.315  0.0397  0.1175 -0.2144
  767POPS   GL211694   3.892   5.543   5.388 -0.0033 -0.1357 -0.0976
  767POPS   C1A11695   4.194   5.379   5.748  0.2587 -0.3143 -0.2124
  767POPS   D2A11696   4.079   5.630   6.166 -0.1040 -0.2147 -0.0459
  767POPS   C3A11697   4.333   5.542   6.464  0.0598 -0.2333  0.0273
  767POPS   C4A11698   4.611   5.750   6.795 -0.0056 -0.0939  0.1304
  767POPS   C1B11699   4.030   5.859   5.735  0.5078 -0.0494 -0.1125
  767POPS   C2B11700   4.182   6.128   6.133 -0.2179  0.0002 -0.3269
  767POPS   C3B11701   4.224   6.026   6.614  0.1262  0.1610  0.3011
  767POPS   C4B11702   4.253   6.207   7.051 -0.4940 -0.1030  0.2004
  768POPS   CNO11703  18.526  10.675   5.162  0.0857 -0.1356 -0.1823
  768POPS   PO411704  18.481  10.928   5.544  0.2773  0.2871 -0.0939
  768POPS   GL111705  18.261  10.740   5.830  0.4139  0.1769 -0.0333
  768POPS   GL211706  18.426  10.735   6.134  0.0037  0.0100 -0.0496
  768POPS   C1A11707  17.957  10.884   6.223  0.0277 -0.0408  0.0012
  768POPS   D2A11708  17.892  10.989   6.588  0.1924  0.0530 -0.1007
  768POPS   C3A11709  17.812  11.026   6.987  0.0803  0.0119  0.2618
  768POPS   C4A11710  17.927  11.142   7.377 -0.0981 -0.0058  0.1918
  768POPS   C1B11711  18.257  10.504   6.490 -0.0783  0.0252 -0.3281
  768POPS   C2B11712  18.211  10.709   6.904 -0.2409 -0.0142 -0.3646
  768POPS   C3B11713  18.389  10.857   7.292  0.0106 -0.0088 -0.0436
  768POPS   C4B11714  18.547  10.703   7.684  0.2449 -0.0625  0.2159
  769POPS   CNO11715   3.619   9.363   4.949  0.1588 -0.1033 -0.0432
  769POPS   PO411716   3.520   8.946   5.127  0.0919  0.2484 -0.0079
  769POPS   GL111717   3.304   9.000   5.646  0.1358  0.0783 -0.1135
  769POPS   GL211718   3.487   9.233   5.832  0.0447 -0.1564  0.0558
  769POPS   C1A11719   3.278   8.806   6.088  0.1602 -0.2926  0.0008
  769POPS   D2A11720   3.485   8.808   6.452  0.1186  0.1977 -0.0688
  769POPS   C3A11721   3.287   8.456   6.718 -0.2440 -0.0214  0.1085
  769POPS   C4A11722   3.170   8.404   7.109  0.3436  0.3358 -0.1225
  769POPS   C1B11723   3.823   9.061   6.205 -0.0914 -0.1925  0.1158
  769POPS   C2B11724   4.066   8.952   6.615 -0.1116  0.0730  0.0888
  769POPS   C3B11725   4.064   9.077   7.045 -0.1262 -0.0474 -0.1861
  769POPS   C4B11726   4.205   9.352   7.449 -0.0352  0.2604 -0.3431
  770POPS   CNO11727   0.027   2.427   5.279  0.1457  0.1999  0.2484
  770POPS   PO411728   0.447   2.377   5.418  0.1662 -0.2065  0.0074
  770POPS   GL111729   0.246   2.336   5.751 -0.2591 -0.1557 -0.0159
  770POPS   GL211730   0.241   2.632   6.018 -0.0429  0.2359  0.0693
  770POPS   C1A11731   0.034   1.936   5.978 -0.2348  0.1393 -0.0994
  770POPS   D2A11732  -0.107   1.546   6.258  0.0838 -0.1229 -0.0063
  770POPS   C3A11733  -0.557   1.406   6.377 -0.2372 -0.3386  0.1021
  770POPS   C4A11734  -0.978   1.191   6.617  0.0600 -0.1817  0.1481
  770POPS   C1B11735   0.060   2.308   6.295 -0.0049 -0.0926 -0.2195
  770POPS   C2B11736  -0.174   2.317   6.678  0.0156 -0.1729 -0.2688
  770POPS   C3B11737  -0.437   2.710   6.708 -0.1318 -0.0716 -0.1270
  770POPS   C4B11738  -0.584   2.976   6.371  0.0915  0.0209  0.1834
  771POPS   CNO11739   3.788   3.630   4.835 -0.0578  0.1877 -0.1248
  771POPS   PO411740   3.757   3.115   4.971  0.1673  0.1680  0.2036
  771POPS   GL111741   4.121   3.230   5.275  0.0726 -0.4146  0.2769
  771POPS   GL211742   4.077   3.527   5.306 -0.0196  0.4067  0.3162
  771POPS   C1A11743   4.395   3.202   5.659 -0.2735  0.0924  0.1048
  771POPS   D2A11744   4.466   3.290   6.101  0.1113 -0.1350  0.0253
  771POPS   C3A11745   4.493   2.946   6.483  0.2096  0.0921  0.1868
  771POPS   C4A11746   4.227   2.984   6.867  0.4543 -0.3025 -0.0855
  771POPS   C1B11747   4.069   3.550   5.784 -0.0927 -0.0212 -0.0235
  771POPS   C2B11748   3.956   3.786   6.162  0.2513  0.0016 -0.0969
  771POPS   C3B11749   3.850   4.122   6.511  0.2536 -0.0645 -0.0789
  771POPS   C4B11750   3.792   4.250   6.976 -0.0887  0.1047 -0.4750
  772POPS   CNO11751  17.649   0.825   5.940 -0.0076  0.0093  0.2376
  772POPS   PO411752  17.438   0.800   5.572  0.3356 -0.0830  0.1084
  772POPS   GL111753  17.166   0.574   5.794 -0.0061 -0.0399 -0.0545
  772POPS   GL211754  17.222   0.336   5.994 -0.0762 -0.1086  0.0890
  772POPS   C1A11755  16.761   0.358   5.863 -0.1036 -0.2100  0.3339
  772POPS   D2A11756  16.273   0.447   5.870 -0.0656  0.0946 -0.5215
  772POPS   C3A11757  15.948   0.093   6.062  0.1061  0.4357 -0.0277
  772POPS   C4A11758  15.802  -0.224   5.798  0.0443  0.3844 -0.0289
  772POPS   C1B11759  16.921   0.341   6.380  0.0242 -0.0808  0.1990
  772POPS   C2B11760  16.799   0.092   6.669 -0.1705  0.2893 -0.0575
  772POPS   C3B11761  16.789   0.007   7.072  0.1074 -0.1184 -0.0069
  772POPS   C4B11762  16.831  -0.403   7.287 -0.0235 -0.3672 -0.2155
  773POPS   CNO11763   7.232  17.590   5.224  0.0581 -0.3056  0.0329
  773POPS   PO411764   7.697  17.680   5.164  0.0807  0.2437 -0.1058
  773POPS   GL111765   7.588  17.881   5.469 -0.0678  0.1111  0.3796
  773POPS   GL211766   7.594  18.196   5.435  0.0745  0.1684  0.1422
  773POPS   C1A11767   7.471  17.816   5.953  0.0210 -0.1786 -0.0612
  773POPS   D2A11768   7.298  17.778   6.284  0.1776 -0.1179  0.1840
  773POPS   C3A11769   7.369  18.138   6.518  0.1846 -0.3265 -0.0369
  773POPS   C4A11770   7.176  18.307   6.942 -0.2730 -0.2396 -0.1470
  773POPS   C1B11771   7.757  18.244   5.904  0.2277  0.0850  0.1315
  773POPS   C2B11772   7.673  18.453   6.341 -0.2030 -0.0432 -0.2093
  773POPS   C3B11773   7.585  18.768   6.596 -0.5165 -0.0315  0.2318
  773POPS   C4B11774   7.585  18.819   7.035 -0.1247 -0.0905 -0.1703
  774POPS   CNO11775   4.352   1.799   4.505 -0.1013  0.2612  0.0318
  774POPS   PO411776   4.252   1.765   4.925 -0.3355  0.0298  0.0846
  774POPS   GL111777   4.155   1.790   5.251 -0.4476 -0.2336 -0.3759
  774POPS   GL211778   4.034   1.608   5.310  0.0032 -0.0820 -0.2017
  774POPS   C1A11779   4.379   1.941   5.605  0.1868  0.1714 -0.4389
  774POPS   D2A11780   4.296   2.050   6.052  0.2386 -0.1397  0.1176
  774POPS   C3A11781   4.141   1.898   6.438 -0.2770  0.0459  0.4082
  774POPS   C4A11782   4.122   1.598   6.720 -0.0115 -0.2731  0.1759
  774POPS   C1B11783   4.047   1.134   5.622 -0.1452 -0.3339 -0.3514
  774POPS   C2B11784   3.825   1.045   6.027  0.2006 -0.1233 -0.0485
  774POPS   C3B11785   3.977   1.030   6.458 -0.0648 -0.1357  0.1776
  774POPS   C4B11786   3.803   1.201   6.734  0.1834  0.1088 -0.0450
  775POPS   CNO11787   9.194  16.820   5.621  0.4227 -0.3536  0.0443
  775POPS   PO411788   9.167  16.452   5.531 -0.0566 -0.0515  0.1785
  775POPS   GL111789   9.090  16.301   5.911 -0.0805 -0.0793  0.0902
  775POPS   GL211790   9.443  16.377   6.093  0.0165 -0.1114 -0.3084
  775POPS   C1A11791   9.042  16.448   6.287  0.1454 -0.0745  0.1084
  775POPS   D2A11792   8.873  16.734   6.456 -0.2544 -0.2593 -0.2589
  775POPS   C3A11793   9.282  16.913   6.634  0.0303  0.3410 -0.0662
  775POPS   C4A11794   9.311  16.984   6.955  0.1312 -0.0169 -0.1313
  775POPS   C1B11795   9.614  16.532   6.456  0.3475  0.0028 -0.0757
  775POPS   C2B11796   9.582  16.542   6.956 -0.0758 -0.2734  0.0741
  775POPS   C3B11797   9.264  16.536   7.233 -0.0613 -0.1160  0.1823
  775POPS   C4B11798   9.024  16.844   7.411  0.2409  0.0741 -0.0411
  776POPS   CNO11799   3.610  11.116   5.107 -0.2286 -0.1765  0.1604
  776POPS   PO411800   3.738  11.151   5.544  0.1963  0.0336 -0.2946
  776POPS   GL111801   3.835  11.109   5.933  0.3226  0.1742  0.0513
  776POPS   GL211802   4.063  11.008   6.071  0.1141 -0.0442  0.2727
  776POPS   C1A11803   3.731  11.340   6.384  0.1162  0.4941 -0.1641
  776POPS   D2A11804   3.902  11.382   6.784 -0.0845 -0.0428 -0.0448
  776POPS   C3A11805   3.805  11.624   7.205  0.0627 -0.0376 -0.2071
  776POPS   C4A11806   3.889  11.647   7.614 -0.1511  0.0373  0.3556
  776POPS   C1B11807   4.145  10.993   6.470  0.0561 -0.3447 -0.2989
  776POPS   C2B11808   4.439  11.105   6.753 -0.0353  0.0054 -0.1225
  776POPS   C3B11809   4.734  11.263   7.068  0.1493 -0.0480  0.3569
  776POPS   C4B11810   5.113  11.297   7.122 -0.1441  0.3606  0.0075
  777POPS   CNO11811   6.215  12.641   5.507 -0.1957  0.0990 -0.0241
  777POPS   PO411812   6.126  12.810   5.942  0.2631 -0.0823  0.0377
  777POPS   GL111813   5.960  12.497   6.109 -0.1466 -0.0415 -0.0042
  777POPS   GL211814   5.830  12.202   5.979 -0.1364  0.1441  0.1356
  777POPS   C1A11815   5.809  12.566   6.532 -0.2918 -0.0024  0.3719
  777POPS   D2A11816   5.756  12.699   6.948 -0.0582 -0.0316 -0.0500
  777POPS   C3A11817   5.464  12.544   7.270  0.2125  0.0218  0.0197
  777POPS   C4A11818   5.167  12.295   7.303 -0.0497 -0.1128 -0.0831
  777POPS   C1B11819   5.921  11.669   5.998  0.4305  0.0092  0.0949
  777POPS   C2B11820   5.918  11.374   6.296 -0.1035  0.0049 -0.1449
  777POPS   C3B11821   5.902  11.183   6.644 -0.1066  0.2203  0.0693
  777POPS   C4B11822   6.159  10.939   6.897 -0.0324  0.0095 -0.1250
  778POPS   CNO11823  16.690  17.289   5.082  0.0420 -0.0234  0.3188
  778POPS   PO411824  16.489  17.478   5.392  0.1721 -0.3497 -0.0970
  778POPS   GL111825  16.370  17.769   5.730  0.1761  0.1167  0.1882
  778POPS   GL211826  16.468  18.051   5.796  0.1795 -0.1290 -0.1016
  778POPS   C1A11827  16.084  17.643   6.123 -0.0681 -0.2493 -0.0147
  778POPS   D2A11828  16.176  17.556   6.499  0.1606  0.0826 -0.1744
  778POPS   C3A11829  16.132  17.723   6.896 -0.3451 -0.2456 -0.0864
  778POPS   C4A11830  16.361  18.098   7.070 -0.3156  0.1927  0.3259
  778POPS   C1B11831  16.376  18.005   6.229 -0.1250 -0.2401 -0.0468
  778POPS   C2B11832  16.488  17.889   6.556 -0.1757  0.0203  0.0767
  778POPS   C3B11833  16.678  17.641   6.873  0.0929  0.0741 -0.0749
  778POPS   C4B11834  16.959  17.533   7.358 -0.1077 -0.0956 -0.0120
  779POPS   CNO11835   1.931   4.437   4.926 -0.1630  0.1130 -0.0260
  779POPS   PO411836   2.029   4.421   5.386  0.0139  0.1724  0.1597
  779POPS   GL111837   2.211   4.270   5.695  0.0803  0.0414 -0.0566
  779POPS   GL211838   2.276   4.491   5.858 -0.2119 -0.0785  0.1358
  779POPS   C1A11839   2.027   4.057   6.060 -0.0637 -0.0762 -0.0364
  779POPS   D2A11840   2.253   3.993   6.318  0.1599 -0.0596  0.3372
  779POPS   C3A11841   2.250   3.775   6.658  0.1040 -0.1513  0.1139
  779POPS   C4A11842   2.156   3.412   6.756 -0.0958  0.2333  0.3978
  779POPS   C1B11843   2.508   4.447   6.290 -0.1903  0.2567  0.0146
  779POPS   C2B11844   2.606   4.578   6.672  0.0814 -0.3192  0.0317
  779POPS   C3B11845   2.571   4.559   7.207 -0.2286  0.1107  0.0158
  779POPS   C4B11846   2.470   4.373   7.483  0.5353 -0.1542 -0.0529
  780POPS   CNO11847  11.830  10.352   4.999  0.1965  0.0101  0.3998
  780POPS   PO411848  11.546  10.051   4.930 -0.1180  0.2537 -0.0949
  780POPS   GL111849  11.704  10.100   5.423  0.0152 -0.0502 -0.3015
  780POPS   GL211850  11.392  10.230   5.468 -0.0983 -0.1115 -0.1770
  780POPS   C1A11851  11.823   9.899   5.899 -0.2914  0.2630 -0.3356
  780POPS   D2A11852  12.117   9.921   6.265  0.1945  0.1580  0.1006
  780POPS   C3A11853  12.559   9.948   6.114 -0.1568 -0.1872 -0.1530
  780POPS   C4A11854  13.044  10.211   6.065 -0.0195  0.1364  0.1344
  780POPS   C1B11855  11.566  10.349   5.912 -0.2238  0.0303 -0.1257
  780POPS   C2B11856  11.703  10.320   6.256 -0.4393 -0.1275 -0.0522
  780POPS   C3B11857  11.664  10.141   6.672 -0.2492 -0.3469 -0.0350
  780POPS   C4B11858  11.529  10.001   7.174 -0.0076  0.2469  0.1570
  781POPS   CNO11859   8.612   1.238   4.769  0.0639 -0.0419  0.0122
  781POPS   PO411860   8.117   1.186   4.823  0.0892 -0.2818 -0.4115
  781POPS   GL111861   7.764   1.335   5.120 -0.0692  0.0040 -0.0391
  781POPS   GL211862   7.961   1.443   5.286 -0.1645  0.0678  0.1347
  781POPS   C1A11863   7.508   0.978   5.274  0.3290  0.1013 -0.0702
  781POPS   D2A11864   7.253   1.051   5.533  0.2265  0.3197 -0.0440
  781POPS   C3A11865   7.197   0.827   5.949  0.0920 -0.2735  0.3982
  781POPS   C4A11866   7.051   0.386   6.118  0.0265  0.5699 -0.1162
  781POPS   C1B11867   7.861   1.184   5.631 -0.0263 -0.1800  0.2464
  781POPS   C2B11868   7.648   1.179   6.026 -0.0423  0.0948  0.2543
  781POPS   C3B11869   7.530   1.144   6.353  0.1769 -0.1698 -0.2132
  781POPS   C4B11870   7.223   0.890   6.543 -0.0719  0.1616  0.2673
  782POPS   CNO11871   4.828  13.071   5.042  0.0898  0.2870 -0.0599
  782POPS   PO411872   4.557  13.049   5.444  0.0456 -0.0450 -0.0536
  782POPS   GL111873   4.633  12.997   5.906 -0.0652 -0.0493  0.0224
  782POPS   GL211874   4.923  12.916   6.000  0.1701 -0.0963 -0.0333
  782POPS   C1A11875   4.356  13.079   6.211  0.0738 -0.1115  0.0443
  782POPS   D2A11876   4.319  13.452   6.378  0.0571 -0.3199 -0.1023
  782POPS   C3A11877   4.640  13.626   6.386  0.4167 -0.2813 -0.2859
  782POPS   C4A11878   4.937  13.357   6.212 -0.0472 -0.0507  0.0762
  782POPS   C1B11879   4.828  12.980   6.451  0.1848  0.1679  0.3037
  782POPS   C2B11880   4.490  13.118   6.737 -0.1789  0.1252  0.0625
  782POPS   C3B11881   4.378  13.293   6.985  0.1108  0.1005 -0.2792
  782POPS   C4B11882   4.374  12.988   7.380 -0.3067 -0.0697  0.1093
  783POPS   CNO11883   0.385   1.506   5.318 -0.1581  0.1263 -0.2238
  783POPS   PO411884   0.635   1.323   4.967 -0.0681 -0.0368  0.2237
  783POPS   GL111885   0.840   1.172   5.462 -0.0465  0.2462  0.1214
  783POPS   GL211886   0.981   1.441   5.634 -0.0480 -0.1326  0.3047
  783POPS   C1A11887   1.243   1.006   5.570 -0.0447 -0.3376  0.0814
  783POPS   D2A11888   1.569   1.082   5.671  0.0748  0.0844 -0.1512
  783POPS   C3A11889   1.739   1.413   5.858 -0.1398  0.0100  0.0341
  783POPS   C4A11890   1.530   1.751   5.693 -0.0554  0.0355 -0.1838
  783POPS   C1B11891   1.242   1.381   5.885 -0.3847 -0.2875  0.1774
  783POPS   C2B11892   1.444   1.424   6.215  0.2272  0.0802  0.3367
  783POPS   C3B11893   1.295   1.583   6.600 -0.1662  0.0078  0.0732
  783POPS   C4B11894   1.380   1.660   6.978 -0.1833  0.2843  0.1557
  784POPS   CNO11895   4.378  10.550   5.472  0.0470 -0.1928  0.0386
  784POPS   PO411896   4.085  10.279   5.470 -0.1388 -0.0175 -0.1463
  784POPS   GL111897   4.235  10.245   5.843  0.1501  0.3164 -0.1165
  784POPS   GL211898   4.603  10.191   5.789 -0.3226 -0.0725  0.1046
  784POPS   C1A11899   4.420  10.111   6.244 -0.0491 -0.0472 -0.1298
  784POPS   D2A11900   4.459   9.979   6.666  0.1799  0.2388 -0.0304
  784POPS   C3A11901   4.612   9.710   6.848 -0.1432  0.1326 -0.1868
  784POPS   C4A11902   4.564   9.301   6.741 -0.0441 -0.0052 -0.1684
  784POPS   C1B11903   4.888  10.480   6.139  0.1351 -0.3080  0.0567
  784POPS   C2B11904   5.236  10.474   6.460 -0.1505 -0.4409 -0.4117
  784POPS   C3B11905   5.397  10.601   6.810 -0.2426 -0.2846  0.2995
  784POPS   C4B11906   5.537  10.852   6.902 -0.1706  0.0792  0.0721
  785POPS   CNO11907   4.773   1.636   4.739  0.2009 -0.1813  0.1520
  785POPS   PO411908   5.112   1.925   4.859 -0.2106  0.1159  0.0396
  785POPS   GL111909   4.976   1.713   5.177  0.3487 -0.2099 -0.0813
  785POPS   GL211910   4.591   1.445   5.190  0.0432  0.0869  0.0170
  785POPS   C1A11911   4.849   1.722   5.528 -0.1636 -0.0353 -0.0771
  785POPS   D2A11912   4.673   1.742   5.921  0.1585 -0.2942  0.5627
  785POPS   C3A11913   4.716   1.775   6.355 -0.2743  0.0538 -0.1437
  785POPS   C4A11914   4.917   1.489   6.588 -0.1604  0.3236  0.1253
  785POPS   C1B11915   4.455   1.445   5.621  0.0034  0.0659 -0.2031
  785POPS   C2B11916   4.030   1.547   5.851  0.1372 -0.0038  0.1500
  785POPS   C3B11917   3.856   1.552   6.246  0.1154 -0.1043  0.2410
  785POPS   C4B11918   3.631   1.719   6.665 -0.2868  0.2177 -0.1596
  786POPS   CNO11919  10.342   7.046   4.707  0.2116  0.2096 -0.4075
  786POPS   PO411920  10.370   7.195   5.121  0.1603 -0.2104 -0.1544
  786POPS   GL111921  10.591   7.494   5.345  0.3585 -0.0432  0.1914
  786POPS   GL211922  10.765   7.346   5.602  0.2064 -0.0188 -0.2082
  786POPS   C1A11923  10.860   7.878   5.457 -0.0297 -0.0058 -0.2299
  786POPS   D2A11924  11.227   7.985   5.476  0.0636 -0.0633  0.0086
  786POPS   C3A11925  11.286   8.307   5.883  0.0866  0.4287 -0.1241
  786POPS   C4A11926  11.277   8.330   6.274  0.0025  0.0664 -0.0185
  786POPS   C1B11927  10.776   7.427   5.973  0.1945 -0.0187  0.1957
  786POPS   C2B11928  10.792   7.614   6.388 -0.0664  0.2160  0.3643
  786POPS   C3B11929  10.473   7.809   6.558  0.0494  0.2692  0.1476
  786POPS   C4B11930  10.353   8.119   6.873 -0.0370  0.1174  0.0165
  787POPS   CNO11931   8.216  16.324   5.467 -0.1179 -0.0113 -0.1461
  787POPS   PO411932   8.329  15.914   5.644  0.2823 -0.1617  0.0665
  787POPS   GL111933   8.243  15.852   6.090  0.0433  0.0037 -0.0724
  787POPS   GL211934   7.924  15.718   6.112  0.1085  0.0054  0.0750
  787POPS   C1A11935   8.199  15.708   6.528 -0.1522 -0.3129 -0.1535
  787POPS   D2A11936   8.069  15.650   6.943 -0.3528 -0.1807 -0.1581
  787POPS   C3A11937   8.072  15.806   7.386  0.2307  0.0447 -0.2079
  787POPS   C4A11938   7.950  15.657   7.817  0.2587  0.0866  0.0386
  787POPS   C1B11939   7.711  15.638   6.555 -0.1808 -0.0561  0.0193
  787POPS   C2B11940   7.628  15.533   6.982  0.0821  0.2704  0.2776
  787POPS   C3B11941   7.614  15.461   7.343  0.9033 -0.1153  0.1331
  787POPS   C4B11942   7.505  15.317   7.718  0.1153  0.1925 -0.0537
  788POPS   CNO11943   3.153  18.781   4.739 -0.1759 -0.0330 -0.0040
  788POPS   PO411944   2.835  19.025   4.955  0.0086 -0.0103  0.2074
  788POPS   GL111945   2.900  19.059   5.415  0.1305 -0.4136  0.0527
  788POPS   GL211946   3.168  19.303   5.490  0.1390  0.2254  0.0216
  788POPS   C1A11947   2.623  19.420   5.746 -0.0480 -0.0198 -0.0785
  788POPS   D2A11948   2.398  19.683   5.989 -0.1934 -0.0138  0.1457
  788POPS   C3A11949   2.401  19.612   6.432  0.2465  0.1000  0.1249
  788POPS   C4A11950   2.433  19.386   6.825 -0.1070  0.3494 -0.2288
  788POPS   C1B11951   3.120  19.192   5.904  0.1158  0.2987  0.3755
  788POPS   C2B11952   3.244  19.244   6.305  0.2657 -0.2105  0.3736
  788POPS   C3B11953   3.543  19.156   6.625  0.2212 -0.3379  0.1773
  788POPS   C4B11954   3.646  19.051   7.003  0.2233 -0.1664  0.0724
  789POPS   CNO11955  12.938   4.647   5.552 -0.0596 -0.0878  0.1538
  789POPS   PO411956  12.645   4.250   5.546  0.1943 -0.4547  0.2335
  789POPS   GL111957  12.584   4.304   5.929  0.0991 -0.2422 -0.1106
  789POPS   GL211958  12.765   4.533   6.089 -0.1001 -0.0548 -0.0501
  789POPS   C1A11959  12.567   4.211   6.393  0.2785  0.1341 -0.0019
  789POPS   D2A11960  12.727   3.971   6.606  0.0556 -0.1822 -0.2259
  789POPS   C3A11961  12.691   4.087   7.018 -0.0262 -0.2968 -0.1779
  789POPS   C4A11962  12.708   4.092   7.420  0.2374 -0.0763  0.2520
  789POPS   C1B11963  12.712   4.698   6.557 -0.0083 -0.0299 -0.2514
  789POPS   C2B11964  12.851   4.999   6.902  0.1385  0.4208 -0.1354
  789POPS   C3B11965  12.891   5.036   7.362  0.0428  0.1294 -0.1248
  789POPS   C4B11966  12.484   4.847   7.630  0.0435  0.0398 -0.0845
  790POPS   CNO11967  17.819  15.079   5.298  0.1376 -0.3264  0.0082
  790POPS   PO411968  17.547  15.213   5.604 -0.1152 -0.0720  0.0350
  790POPS   GL111969  17.633  14.994   5.956 -0.1268  0.2188 -0.3086
  790POPS   GL211970  17.296  14.831   6.115 -0.0228 -0.1580  0.0705
  790POPS   C1A11971  17.691  14.943   6.455 -0.1709 -0.2650  0.2355
  790POPS   D2A11972  17.693  14.887   6.877  0.1570 -0.0305  0.3922
  790POPS   C3A11973  17.208  14.775   7.021 -0.1469 -0.1952  0.0568
  790POPS   C4A11974  17.003  14.777   7.364 -0.0801  0.0460 -0.1234
  790POPS   C1B11975  17.102  14.594   6.414 -0.1242 -0.0623 -0.0547
  790POPS   C2B11976  16.936  14.356   6.782 -0.0830 -0.2251 -0.0351
  790POPS   C3B11977  17.271  14.074   6.988 -0.1530 -0.1205  0.3996
  790POPS   C4B11978  17.737  13.881   6.915 -0.0719  0.2492  0.4708
  791POPS   CNO11979  11.222  11.692   5.125  0.2228 -0.1240 -0.2422
  791POPS   PO411980  11.063  12.010   5.345  0.1123  0.0614 -0.0092
  791POPS   GL111981  11.023  12.135   5.765  0.0770  0.3702 -0.3235
  791POPS   GL211982  10.862  12.460   5.810  0.2643  0.0396  0.1972
  791POPS   C1A11983  11.240  12.120   6.106  0.0815  0.1233 -0.2664
  791POPS   D2A11984  11.368  11.992   6.479 -0.2331  0.1281  0.0989
  791POPS   C3A11985  11.704  12.294   6.799  0.1319 -0.2708 -0.1533
  791POPS   C4A11986  11.726  12.190   7.214 -0.0395  0.2879  0.0420
  791POPS   C1B11987  10.613  12.360   6.105  0.0268  0.0560 -0.1692
  791POPS   C2B11988  10.282  12.420   6.371  0.0505 -0.2409  0.0657
  791POPS   C3B11989  10.234  12.281   6.770 -0.1112  0.1037 -0.3175
  791POPS   C4B11990   9.821  12.259   7.082 -0.1059 -0.0541  0.3243
  792POPS   CNO11991  17.832  17.363   5.286  0.1891  0.2241  0.1361
  792POPS   PO411992  17.895  17.751   5.355  0.0227  0.1952  0.3032
  792POPS   GL111993  17.740  17.830   5.896 -0.1949  0.0912  0.0465
  792POPS   GL211994  17.766  18.198   5.965  0.3338  0.0088  0.0054
  792POPS   C1A11995  17.483  17.448   6.196  0.0354 -0.4330 -0.0416
  792POPS   D2A11996  17.415  17.181   6.580 -0.4279  0.2593  0.2318
  792POPS   C3A11997  17.756  17.175   6.810  0.3312 -0.3104 -0.0186
  792POPS   C4A11998  17.994  17.045   7.213 -0.0345 -0.0189  0.1337
  792POPS   C1B11999  17.659  18.488   6.302  0.1474  0.0708 -0.1028
  792POPS   C2B12000  17.367  18.258   6.626 -0.3166 -0.1823 -0.3181
  792POPS   C3B12001  17.343  18.221   7.122  0.2269 -0.0321  0.0498
  792POPS   C4B12002  17.371  18.497   7.342 -0.0624 -0.1760  0.0631
  793POPS   CNO12003   1.655  14.929   5.896  0.0726  0.0287  0.0226
  793POPS   PO412004   1.747  14.549   6.129  0.0796 -0.0776 -0.0481
  793POPS   GL112005   1.468  14.708   6.418 -0.0309 -0.0737  0.0259
  793POPS   GL212006   1.627  14.657   6.679 -0.2734 -0.0476  0.0144
  793POPS   C1A12007   1.233  15.055   6.724  0.0712  0.0486  0.0887
  793POPS   D2A12008   1.269  15.207   7.121 -0.2607 -0.1209  0.0389
  793POPS   C3A12009   1.224  14.987   7.452  0.3241 -0.2237 -0.2333
  793POPS   C4A12010   1.445  14.668   7.841 -0.1229  0.0556 -0.3384
  793POPS   C1B12011   1.506  14.752   7.086  0.0432  0.0721  0.2570
  793POPS   C2B12012   1.692  14.705   7.374  0.0402  0.0804 -0.2443
  793POPS   C3B12013   1.657  15.077   7.646 -0.0442  0.3029 -0.0527
  793POPS   C4B12014   1.620  15.085   8.132  0.1935 -0.0056  0.1994
  794POPS   CNO12015  18.939   2.629   5.467 -0.3776  0.1825 -0.1114
  794POPS   PO412016  19.088   3.081   5.672  0.3147  0.0529  0.0354
  794POPS   GL112017  19.057   2.792   5.975  0.0052 -0.1456  0.0508
  794POPS   GL212018  19.167   2.507   5.860 -0.1396 -0.4083 -0.0893
  794POPS   C1A12019  19.336   2.780   6.367  0.1427  0.1529  0.1162
  794POPS   D2A12020  19.579   2.735   6.709  0.3089  0.1201  0.1355
  794POPS   C3A12021  19.341   2.688   7.056 -0.1414 -0.1174 -0.0791
  794POPS   C4A12022  19.364   2.905   7.510  0.2758 -0.1224 -0.1202
  794POPS   C1B12023  18.969   2.411   6.254 -0.2708 -0.1295 -0.2631
  794POPS   C2B12024  18.674   2.285   6.538  0.2385  0.0708 -0.1212
  794POPS   C3B12025  18.766   2.175   6.989 -0.4882 -0.2015 -0.2772
  794POPS   C4B12026  19.146   2.147   7.272 -0.0964 -0.0163 -0.3106
  795POPS   CNO12027  12.257   0.094   5.248  0.0191 -0.1321  0.1327
  795POPS   PO412028  12.605   0.234   5.416  0.0212 -0.0353  0.1031
  795POPS   GL112029  12.339   0.383   5.767 -0.1880 -0.0530 -0.2107
  795POPS   GL212030  12.092   0.340   5.622 -0.0760  0.2366 -0.0014
  795POPS   C1A12031  12.131   0.370   6.205  0.2626  0.4121  0.0218
  795POPS   D2A12032  12.054   0.395   6.743  0.1470 -0.2224  0.1736
  795POPS   C3A12033  12.075   0.650   7.148 -0.2907  0.0928 -0.0815
  795POPS   C4A12034  12.272   0.933   7.364 -0.0760 -0.0917  0.1367
  795POPS   C1B12035  11.736   0.166   5.854 -0.1349 -0.1079 -0.2777
  795POPS   C2B12036  11.730   0.091   6.350 -0.3566  0.3279  0.1466
  795POPS   C3B12037  11.675   0.062   6.752 -0.1610 -0.0970 -0.0899
  795POPS   C4B12038  11.603   0.340   6.975 -0.2868 -0.0461  0.1169
  796POPS   CNO12039   4.664  18.603   4.654 -0.2225  0.1349  0.5324
  796POPS   PO412040   4.913  18.453   5.031  0.2816  0.1132  0.0757
  796POPS   GL112041   4.705  18.568   5.508 -0.1710  0.0937  0.2538
  796POPS   GL212042   4.614  18.343   5.697  0.0747 -0.3124  0.3148
  796POPS   C1A12043   4.721  18.807   5.869 -0.1303 -0.0960  0.0596
  796POPS   D2A12044   4.799  19.008   6.252  0.0029 -0.2003 -0.0398
  796POPS   C3A12045   4.878  18.860   6.639  0.2330 -0.1050  0.3222
  796POPS   C4A12046   5.066  18.828   6.969  0.0346  0.0925  0.0911
  796POPS   C1B12047   4.705  18.004   5.858 -0.1497 -0.0859  0.0658
  796POPS   C2B12048   5.071  17.854   6.046  0.0642 -0.3257  0.0994
  796POPS   C3B12049   5.131  17.967   6.480  0.0111  0.0673  0.1137
  796POPS   C4B12050   5.336  18.156   6.847  0.1005 -0.2878  0.1817
  797POPS   CNO12051  16.997  18.136   5.000  0.1045  0.0700  0.1038
  797POPS   PO412052  16.943  18.190   5.489 -0.1794  0.2179  0.1990
  797POPS   GL112053  16.920  18.219   5.925  0.1997 -0.0140 -0.0968
  797POPS   GL212054  17.207  18.296   5.916 -0.2992  0.0497 -0.1895
  797POPS   C1A12055  16.879  18.141   6.356 -0.1051  0.0920 -0.0211
  797POPS   D2A12056  16.933  18.128   6.775 -0.0222 -0.3110 -0.0403
  797POPS   C3A12057  16.909  18.047   7.270  0.4636  0.1284 -0.1619
  797POPS   C4A12058  17.114  18.110   7.690 -0.2156 -0.2320  0.2766
  797POPS   C1B12059  17.325  18.019   6.222  0.0451 -0.0885 -0.1371
  797POPS   C2B12060  17.649  17.880   6.361 -0.0618 -0.0811 -0.0209
  797POPS   C3B12061  17.819  17.633   6.573 -0.0078 -0.2341  0.0148
  797POPS   C4B12062  17.858  17.609   7.074  0.0603  0.1341 -0.1516
  798POPS   CNO12063   3.502  15.384   5.305  0.2009 -0.1679 -0.2351
  798POPS   PO412064   3.941  15.389   5.430 -0.0747 -0.1242 -0.0583
  798POPS   GL112065   3.975  15.177   5.821 -0.0294 -0.3269  0.2762
  798POPS   GL212066   4.187  14.931   5.867  0.1309 -0.0331  0.0701
  798POPS   C1A12067   4.002  15.389   6.099 -0.3340 -0.2481  0.2308
  798POPS   D2A12068   3.866  15.460   6.611 -0.0495  0.3668  0.3051
  798POPS   C3A12069   4.034  15.720   6.871  0.0378 -0.1034 -0.0445
  798POPS   C4A12070   4.286  15.996   7.064 -0.0844 -0.1785 -0.1654
  798POPS   C1B12071   4.172  14.965   6.307 -0.0559 -0.0190 -0.0026
  798POPS   C2B12072   4.279  14.863   6.795  0.0706  0.4911  0.0344
  798POPS   C3B12073   4.209  14.641   7.179  0.1403  0.1784 -0.0403
  798POPS   C4B12074   4.425  14.428   7.511  0.0079  0.2696  0.1441
  799POPS   CNO12075   0.712   3.190   4.873 -0.4067 -0.0265 -0.0509
  799POPS   PO412076   0.716   3.063   5.362  0.3137 -0.3103 -0.1105
  799POPS   GL112077   0.740   2.796   5.666  0.2821  0.0514 -0.0459
  799POPS   GL212078   1.074   2.879   5.725 -0.4256 -0.0560  0.1586
  799POPS   C1A12079   0.748   2.870   6.127  0.3246 -0.2373 -0.1039
  799POPS   D2A12080   0.633   2.709   6.520 -0.1830  0.0668 -0.1360
  799POPS   C3A12081   0.802   2.843   6.927 -0.1820  0.0966  0.0136
  799POPS   C4A12082   0.844   2.994   7.305 -0.2550  0.0280 -0.1200
  799POPS   C1B12083   1.156   2.647   6.170 -0.0458 -0.1896  0.0503
  799POPS   C2B12084   1.049   2.400   6.435  0.1423 -0.2409  0.1766
  799POPS   C3B12085   0.734   2.243   6.807  0.2283 -0.0180 -0.1096
  799POPS   C4B12086   0.319   2.116   6.977  0.2779 -0.1694 -0.1508
  800POPS   CNO12087   8.152  16.783   5.240 -0.3507  0.2970  0.0084
  800POPS   PO412088   8.629  16.573   5.464 -0.0933  0.0962  0.0037
  800POPS   GL112089   8.311  16.649   5.809  0.3110 -0.3505 -0.0513
  800POPS   GL212090   8.113  16.540   5.983 -0.0894  0.0205 -0.2197
  800POPS   C1A12091   8.400  16.909   6.202  0.0429  0.3326 -0.0403
  800POPS   D2A12092   8.375  16.821   6.577  0.0550  0.0170 -0.0115
  800POPS   C3A12093   8.469  17.151   6.869  0.1370  0.2193  0.0901
  800POPS   C4A12094   8.489  17.463   7.221 -0.1995  0.0141 -0.0534
  800POPS   C1B12095   7.960  16.556   6.376 -0.1481  0.3546  0.0094
  800POPS   C2B12096   7.958  16.594   6.782  0.0389  0.0197  0.4531
  800POPS   C3B12097   7.620  16.782   6.938 -0.1626  0.1205  0.2826
  800POPS   C4B12098   7.246  16.788   7.017  0.1140 -0.1905 -0.4051
  801POPS   CNO12099   3.248  17.882   4.776  0.5208 -0.1538  0.0856
  801POPS   PO412100   3.203  18.146   5.200  0.1959  0.1244 -0.0125
  801POPS   GL112101   3.223  17.895   5.547  0.1121  0.0532 -0.1186
  801POPS   GL212102   3.478  17.675   5.514  0.0654  0.3834  0.1666
  801POPS   C1A12103   3.231  17.766   5.931 -0.0154 -0.3432 -0.0879
  801POPS   D2A12104   3.417  17.635   6.360  0.2715  0.2543  0.0335
  801POPS   C3A12105   3.292  17.789   6.673  0.0119  0.0313  0.2627
  801POPS   C4A12106   3.312  17.525   7.086 -0.1511 -0.2735  0.0972
  801POPS   C1B12107   3.717  17.719   5.794  0.0426  0.2993 -0.3685
  801POPS   C2B12108   3.775  17.890   6.199 -0.0936  0.0466  0.0320
  801POPS   C3B12109   3.924  17.867   6.514 -0.0928  0.0135  0.3418
  801POPS   C4B12110   3.776  17.661   6.847 -0.2775  0.0652 -0.0687
  802POPS   CNO12111  10.213  13.979   5.057  0.3600 -0.5345  0.2967
  802POPS   PO412112  10.173  13.600   5.139  0.1459 -0.0021 -0.0067
  802POPS   GL112113   9.931  13.696   5.549  0.1962  0.1717 -0.1949
  802POPS   GL212114  10.185  13.622   5.880  0.2227  0.1505 -0.3291
  802POPS   C1A12115   9.712  13.566   5.946 -0.0048 -0.1261  0.0132
  802POPS   D2A12116   9.658  13.486   6.405  0.0508 -0.0144 -0.0830
  802POPS   C3A12117   9.632  13.096   6.768 -0.2950 -0.1870  0.2061
  802POPS   C4A12118   9.457  12.726   7.142  0.0670 -0.2544 -0.1290
  802POPS   C1B12119  10.175  13.557   6.409 -0.1030 -0.0811 -0.0952
  802POPS   C2B12120  10.080  13.235   6.741 -0.4075 -0.2568 -0.3016
  802POPS   C3B12121  10.137  13.037   7.133 -0.0221  0.0535  0.5603
  802POPS   C4B12122  10.181  12.658   7.211  0.2665 -0.0063  0.1649
  803POPS   CNO12123   7.451  17.191   4.965  0.3687 -0.2333  0.2072
  803POPS   PO412124   7.763  17.095   5.183  0.1825  0.1409  0.3292
  803POPS   GL112125   7.594  17.286   5.452 -0.0225 -0.1505 -0.0398
  803POPS   GL212126   7.742  17.445   5.677  0.0999 -0.2711 -0.1857
  803POPS   C1A12127   7.201  17.419   5.644 -0.2012  0.1111  0.0410
  803POPS   D2A12128   6.904  17.732   5.884 -0.3902 -0.1358 -0.1425
  803POPS   C3A12129   6.891  18.073   6.227  0.3833 -0.1277 -0.1217
  803POPS   C4A12130   6.736  18.167   6.651  0.0974  0.1093  0.1941
  803POPS   C1B12131   7.660  17.413   6.154  0.1096 -0.0073 -0.0453
  803POPS   C2B12132   7.599  17.569   6.637 -0.2638 -0.1839  0.2207
  803POPS   C3B12133   7.585  17.413   6.977  0.1717  0.1766  0.2298
  803POPS   C4B12134   7.320  17.287   7.186  0.1554 -0.0065 -0.0674
  804POPS   CNO12135   4.622   7.751   4.779  0.1307  0.0435 -0.1973
  804POPS   PO412136   4.759   7.923   5.117  0.0265 -0.1450  0.0186
  804POPS   GL112137   4.817   7.935   5.479  0.1605 -0.0158 -0.4625
  804POPS   GL212138   4.556   7.972   5.729 -0.0174  0.1417  0.1550
  804POPS   C1A12139   5.085   7.900   5.850 -0.0370 -0.2590  0.2445
  804POPS   D2A12140   5.092   7.795   6.353 -0.2171  0.0100  0.2554
  804POPS   C3A12141   5.198   7.944   6.765  0.3319  0.2467  0.2350
  804POPS   C4A12142   5.386   8.285   6.928  0.0265 -0.0017 -0.2647
  804POPS   C1B12143   4.558   8.100   6.090 -0.0023  0.0229  0.0231
  804POPS   C2B12144   4.676   8.210   6.444 -0.1470 -0.1777 -0.3242
  804POPS   C3B12145   4.748   8.205   6.884 -0.1977 -0.3350 -0.0216
  804POPS   C4B12146   4.879   8.521   7.030 -0.1313 -0.0004  0.2094
  805POPS   CNO12147   6.818   6.214   4.163  0.0698  0.1645 -0.0465
  805POPS   PO412148   7.253   6.036   4.470 -0.2038 -0.0400  0.0309
  805POPS   GL112149   7.175   6.046   5.015  0.0521  0.1591  0.2790
  805POPS   GL212150   7.561   6.127   4.981  0.2806  0.1812  0.0357
  805POPS   C1A12151   7.127   6.074   5.396 -0.0310 -0.2441  0.0686
  805POPS   D2A12152   7.254   6.339   5.702 -0.0335 -0.3041  0.0096
  805POPS   C3A12153   7.286   6.374   6.158 -0.1536 -0.2419 -0.0678
  805POPS   C4A12154   7.099   6.075   6.499 -0.4263 -0.2344  0.0874
  805POPS   C1B12155   7.652   6.175   5.473  0.1041  0.0917 -0.4146
  805POPS   C2B12156   7.738   6.246   5.885  0.2119 -0.1665 -0.2404
  805POPS   C3B12157   7.817   6.395   6.322  0.3334  0.4546  0.1222
  805POPS   C4B12158   7.938   6.624   6.681 -0.1220 -0.3098 -0.2865
  806POPS   CNO12159  15.229  15.636   4.949  0.1782 -0.0687 -0.1326
  806POPS   PO412160  15.106  15.669   5.382 -0.1103  0.1956  0.1995
  806POPS   GL112161  15.269  15.726   5.859 -0.0414  0.2456  0.2194
  806POPS   GL212162  15.241  16.013   6.051  0.0757 -0.0084  0.1822
  806POPS   C1A12163  15.223  15.557   6.408 -0.2260  0.1391  0.3029
  806POPS   D2A12164  15.226  15.262   6.744 -0.1062 -0.2518  0.1517
  806POPS   C3A12165  15.143  15.414   7.150  0.0816 -0.0156  0.0586
  806POPS   C4A12166  15.086  15.323   7.568  0.2087 -0.0701 -0.1531
  806POPS   C1B12167  15.393  16.229   6.374  0.0290 -0.0644  0.0822
  806POPS   C2B12168  15.448  16.272   6.754  0.3105  0.2056  0.1557
  806POPS   C3B12169  15.547  16.305   7.077  0.0836  0.4205  0.1322
  806POPS   C4B12170  15.407  16.321   7.480  0.6635 -0.1803  0.0822
  807POPS   CNO12171   8.306   6.171   4.549  0.3132 -0.1435 -0.2369
  807POPS   PO412172   8.670   6.049   4.765 -0.1021  0.1025 -0.1164
  807POPS   GL112173   8.581   6.350   5.073 -0.0732  0.0434  0.1503
  807POPS   GL212174   8.156   6.179   5.047 -0.2062 -0.1846 -0.2331
  807POPS   C1A12175   8.604   6.436   5.522 -0.1899  0.1771 -0.1285
  807POPS   D2A12176   8.620   6.650   5.979 -0.1873 -0.4879  0.0013
  807POPS   C3A12177   8.825   6.565   6.248  0.0563 -0.1102 -0.3796
  807POPS   C4A12178   9.072   6.478   6.538 -0.1189  0.0714 -0.0953
  807POPS   C1B12179   8.184   6.262   5.494  0.0588 -0.0301 -0.1357
  807POPS   C2B12180   8.231   6.333   5.900  0.3356  0.1183 -0.1327
  807POPS   C3B12181   8.342   6.316   6.331  0.1856 -0.0911  0.0755
  807POPS   C4B12182   8.158   6.095   6.723 -0.2357 -0.0178  0.0904
  808POPS   CNO12183  13.058   8.030   5.344  0.3712 -0.2942 -0.0403
  808POPS   PO412184  12.772   8.305   5.353 -0.0413  0.0054  0.2952
  808POPS   GL112185  12.746   8.139   5.760 -0.0393  0.1753 -0.0079
  808POPS   GL212186  12.483   8.130   5.853  0.1244 -0.0552  0.0929
  808POPS   C1A12187  12.858   8.024   6.130 -0.2646  0.2245  0.2681
  808POPS   D2A12188  12.758   8.041   6.540 -0.1483 -0.3266  0.1375
  808POPS   C3A12189  12.440   8.178   6.743 -0.0429 -0.1205  0.3389
  808POPS   C4A12190  12.097   8.227   6.633  0.0053 -0.1167  0.0109
  808POPS   C1B12191  12.322   8.401   6.194  0.3470  0.1654 -0.1929
  808POPS   C2B12192  12.134   8.672   6.488  0.1415  0.1055 -0.1037
  808POPS   C3B12193  12.196   8.737   6.907  0.0330 -0.1817 -0.1103
  808POPS   C4B12194  12.350   8.708   7.220 -0.1564 -0.2249  0.1478
  809POPS   CNO12195  10.429   0.347   4.999 -0.2175  0.1773 -0.0391
  809POPS   PO412196  10.102   0.678   4.894  0.1059  0.0016  0.1503
  809POPS   GL112197   9.903   0.697   5.213 -0.0052  0.2320 -0.1235
  809POPS   GL212198   9.990   0.374   5.299 -0.0746  0.4072  0.0893
  809POPS   C1A12199   9.736   0.762   5.617 -0.0020 -0.2451 -0.1619
  809POPS   D2A12200   9.632   1.047   5.952  0.1994 -0.0919 -0.0638
  809POPS   C3A12201   9.709   1.450   5.947 -0.3286  0.1589 -0.1301
  809POPS   C4A12202   9.541   1.927   5.860 -0.4345 -0.1145 -0.0040
  809POPS   C1B12203   9.847   0.294   5.658  0.2553 -0.4157  0.1816
  809POPS   C2B12204  10.015   0.221   6.035  0.0159 -0.0718  0.2131
  809POPS   C3B12205  10.071   0.213   6.458  0.0411  0.1329  0.2885
  809POPS   C4B12206  10.396   0.285   6.823  0.1103  0.0231 -0.0461
  810POPS   CNO12207   5.327  16.426   5.376 -0.0372  0.1011  0.2185
  810POPS   PO412208   5.229  16.861   5.356 -0.2856  0.0117 -0.1131
  810POPS   GL112209   5.207  16.915   5.831 -0.1565  0.1270  0.4623
  810POPS   GL212210   4.864  17.034   5.988 -0.3097 -0.1354  0.2598
  810POPS   C1A12211   5.580  16.944   6.077  0.1879  0.3038  0.1425
  810POPS   D2A12212   5.975  17.088   6.303  0.0405 -0.2914  0.1679
  810POPS   C3A12213   5.778  17.286   6.593  0.0008  0.0857 -0.0790
  810POPS   C4A12214   5.466  17.170   6.882 -0.1839 -0.1969 -0.0758
  810POPS   C1B12215   4.369  17.135   6.075 -0.1470  0.1412  0.2743
  810POPS   C2B12216   4.278  17.436   6.442 -0.0883  0.3698  0.0670
  810POPS   C3B12217   4.354  17.661   6.774  0.1516 -0.1134 -0.2299
  810POPS   C4B12218   4.607  17.530   7.145  0.3426  0.1671  0.1486
  811YOPS   CNO12219   8.560   2.314   4.455 -0.6016  0.2413 -0.1872
  811YOPS   PO412220   8.398   1.931   4.769  0.3529 -0.1536  0.3878
  811YOPS   GL112221   8.306   1.877   5.143 -0.4457  0.2982 -0.0634
  811YOPS   GL212222   8.308   2.058   5.340 -0.1853  0.0843 -0.0367
  811YOPS   C1A12223   8.413   1.642   5.516  0.3854  0.0680  0.2075
  811YOPS   D2A12224   8.530   1.761   5.911  0.3717  0.6357  0.3373
  811YOPS   C3A12225   8.548   2.038   6.226 -0.2904 -0.3643 -0.0292
  811YOPS   C4A12226   8.322   2.023   6.618 -0.2190 -0.3911  0.1312
  811YOPS   C1B12227   8.371   2.251   5.732 -0.1451  0.0663 -0.1286
  811YOPS   C2B12228   8.477   2.501   6.069 -0.0025  0.1114 -0.1243
  811YOPS   D3B12229   8.566   2.591   6.448  0.1124  0.0843 -0.1933
  811YOPS   C4B12230   8.607   2.979   6.725  0.0395  0.1284 -0.0785
  812YOPS   CNO12231   0.646   9.435   5.415  0.3251  0.1371 -0.0303
  812YOPS   PO412232   0.300   9.629   5.455  0.2464  0.1013  0.0517
  812YOPS   GL112233   0.417   9.723   5.824 -0.0281  0.0440  0.1938
  812YOPS   GL212234   0.756   9.808   5.745 -0.2042 -0.2068  0.1059
  812YOPS   C1A12235   0.016   9.789   5.987  0.1927 -0.1361  0.0486
  812YOPS   D2A12236  -0.117  10.070   6.255 -0.2866  0.1129  0.0623
  812YOPS   C3A12237  -0.284  10.075   6.627 -0.2327 -0.1352 -0.0870
  812YOPS   C4A12238  -0.265   9.794   6.789 -0.1005 -0.1133 -0.2054
  812YOPS   C1B12239   0.802   9.613   6.209  0.1148  0.0239  0.3094
  812YOPS   C2B12240   0.605   9.417   6.614 -0.1049  0.1387 -0.0705
  812YOPS   D3B12241   0.507   9.085   6.940  0.2351  0.2272  0.1403
  812YOPS   C4B12242   0.428   8.718   6.884  0.1939  0.0658 -0.1273
  813YOPS   CNO12243   3.793   1.979   4.996  0.1894 -0.0468  0.2000
  813YOPS   PO412244   3.420   2.175   4.914 -0.1918  0.3976  0.0699
  813YOPS   GL112245   3.336   2.331   5.359  0.3156  0.0721  0.3149
  813YOPS   GL212246   3.091   2.559   5.465  0.2297  0.1459  0.0491
  813YOPS   C1A12247   3.559   2.508   5.729  0.1112  0.1714  0.1099
  813YOPS   D2A12248   3.507   2.609   6.114  0.0424  0.1484  0.1135
  813YOPS   C3A12249   3.429   2.554   6.634 -0.0506  0.2519 -0.2737
  813YOPS   C4A12250   3.282   2.148   6.662 -0.0086 -0.2193  0.3106
  813YOPS   C1B12251   3.051   2.508   5.969  0.1517  0.0282 -0.0759
  813YOPS   C2B12252   3.035   2.411   6.340  0.2690  0.0867  0.0674
  813YOPS   D3B12253   2.780   2.083   6.539 -0.4197 -0.2551 -0.1909
  813YOPS   C4B12254   2.794   2.061   7.019 -0.1176  0.2513  0.2200
  814YOPS   CNO12255  11.460   6.763   4.676  0.0857  0.0697 -0.0669
  814YOPS   PO412256  11.134   6.702   4.918  0.0417  0.1710  0.0625
  814YOPS   GL112257  11.182   6.663   5.380 -0.2158 -0.2569 -0.0428
  814YOPS   GL212258  11.346   6.383   5.519  0.3683  0.2344 -0.4020
  814YOPS   C1A12259  10.869   6.452   5.704  0.0625  0.3591  0.1581
  814YOPS   D2A12260  10.865   6.248   6.086 -0.1415  0.3681 -0.2866
  814YOPS   C3A12261  10.920   5.872   6.273 -0.1183 -0.0827 -0.2624
  814YOPS   C4A12262  10.664   5.475   6.300 -0.2616 -0.0035  0.1346
  814YOPS   C1B12263  11.375   6.489   5.896  0.5888  0.1484 -0.2494
  814YOPS   C2B12264  11.253   6.331   6.350  0.0440 -0.0749 -0.0568
  814YOPS   D3B12265  10.910   6.283   6.575  0.2482  0.1935 -0.2616
  814YOPS   C4B12266  11.176   6.361   6.962 -0.0575  0.0731  0.1896
  815YOPS   CNO12267   6.989   8.730   4.719 -0.2111  0.0870 -0.1180
  815YOPS   PO412268   7.443   8.871   4.685  0.2324  0.0949 -0.5235
  815YOPS   GL112269   7.477   9.077   5.032  0.2027  0.1115  0.1245
  815YOPS   GL212270   7.718   8.893   5.302 -0.1143 -0.0702 -0.0038
  815YOPS   C1A12271   7.273   9.099   5.446  0.1961 -0.0582  0.1632
  815YOPS   D2A12272   7.140   9.257   5.865  0.2126  0.2035  0.2450
  815YOPS   C3A12273   7.016   9.348   6.187  0.0146 -0.2938  0.0446
  815YOPS   C4A12274   6.594   9.639   6.100  0.0489  0.1115  0.1836
  815YOPS   C1B12275   7.483   8.599   5.679 -0.1653 -0.3054 -0.0738
  815YOPS   C2B12276   7.182   8.339   5.953  0.1184  0.1993  0.0899
  815YOPS   D3B12277   7.082   8.246   6.341  0.2405 -0.1808 -0.1091
  815YOPS   C4B12278   6.650   8.069   6.417  0.0454 -0.0718  0.0310
  816YOPS   CNO12279  16.888  10.187   5.510 -0.1008 -0.0708 -0.1583
  816YOPS   PO412280  16.655  10.502   5.788 -0.1274  0.0885  0.2353
  816YOPS   GL112281  16.720  10.660   6.167  0.3415  0.0158 -0.0503
  816YOPS   GL212282  16.985  10.901   6.139 -0.0202  0.1354  0.1710
  816YOPS   C1A12283  16.660  10.922   6.586  0.1290 -0.2556  0.1236
  816YOPS   D2A12284  16.443  11.005   6.962  0.0724 -0.2370  0.1153
  816YOPS   C3A12285  16.229  10.886   7.378 -0.1959 -0.1655  0.0106
  816YOPS   C4A12286  16.390  11.098   7.690 -0.1833 -0.1498 -0.2636
  816YOPS   C1B12287  17.216  11.106   6.493  0.2071  0.0573  0.0223
  816YOPS   C2B12288  17.466  11.278   6.851 -0.1851 -0.0921 -0.0165
  816YOPS   D3B12289  17.491  11.392   7.269 -0.1739  0.0714  0.1120
  816YOPS   C4B12290  17.102  11.179   7.394  0.1048  0.0533  0.0071
  817YOPS   CNO12291   1.880  16.379   5.055  0.0544  0.1686  0.0666
  817YOPS   PO412292   1.741  16.543   5.497  0.0796 -0.0159  0.1666
  817YOPS   GL112293   1.977  16.765   5.820 -0.0652 -0.0915  0.0182
  817YOPS   GL212294   2.285  16.733   5.829 -0.2563  0.0026  0.0531
  817YOPS   C1A12295   1.982  17.152   5.915 -0.1665 -0.1171 -0.0446
  817YOPS   D2A12296   2.193  17.469   6.210  0.0283  0.2882 -0.0504
  817YOPS   C3A12297   2.492  17.480   6.551 -0.2780  0.2467  0.0131
  817YOPS   C4A12298   2.753  17.701   6.754 -0.1867 -0.1963  0.4768
  817YOPS   C1B12299   2.208  16.468   6.231  0.0156 -0.2521 -0.2381
  817YOPS   C2B12300   2.442  16.284   6.395  0.2243  0.2037 -0.1868
  817YOPS   D3B12301   2.701  15.909   6.623  0.1359  0.1982  0.0143
  817YOPS   C4B12302   2.648  15.557   6.735 -0.1318  0.0344  0.1933
  818YOPS   CNO12303  13.656   8.950   5.569  0.0794  0.1417 -0.4898
  818YOPS   PO412304  13.529   9.362   5.692  0.0589  0.1514  0.0057
  818YOPS   GL112305  13.278   9.475   5.872  0.1011 -0.0572  0.0945
  818YOPS   GL212306  13.257   9.766   5.926 -0.2141  0.0963  0.2303
  818YOPS   C1A12307  13.093   9.221   6.242 -0.1566 -0.1444 -0.0784
  818YOPS   D2A12308  12.740   9.288   6.521  0.1527  0.0954 -0.1204
  818YOPS   C3A12309  12.638   9.227   6.891 -0.0356  0.0052  0.0507
  818YOPS   C4A12310  12.494   9.609   7.134 -0.0763  0.0283  0.2396
  818YOPS   C1B12311  13.038   9.714   6.439 -0.4045  0.2093  0.3117
  818YOPS   C2B12312  12.578   9.749   6.639  0.0750 -0.3651  0.0911
  818YOPS   D3B12313  12.126   9.828   6.754  0.0992 -0.3533  0.1595
  818YOPS   C4B12314  12.002   9.687   7.156  0.2059  0.0540 -0.3114
  819YOPS   CNO12315  14.544   1.124   5.540 -0.0605 -0.2904  0.0003
  819YOPS   PO412316  14.910   0.799   5.535 -0.0724  0.1520  0.4020
  819YOPS   GL112317  14.927   0.942   5.908  0.0103  0.1505  0.0142
  819YOPS   GL212318  14.552   0.801   5.946  0.1872  0.0144  0.0338
  819YOPS   C1A12319  14.923   1.094   6.285  0.6540  0.0266 -0.2796
  819YOPS   D2A12320  15.021   1.168   6.808 -0.1593 -0.2507 -0.1248
  819YOPS   C3A12321  14.860   1.226   7.175 -0.2344 -0.0219 -0.4573
  819YOPS   C4A12322  14.478   0.962   7.256  0.1984 -0.4135  0.1491
  819YOPS   C1B12323  14.467   1.131   6.157  0.0455  0.1064  0.0513
  819YOPS   C2B12324  14.267   1.435   6.391 -0.2935 -0.2104 -0.1222
  819YOPS   D3B12325  14.217   1.623   6.766 -0.0064 -0.0319  0.1967
  819YOPS   C4B12326  13.957   1.347   7.018  0.2692 -0.0100  0.1513
  820YOPS   CNO12327  11.934   3.019   5.397  0.4237  0.2192 -0.0194
  820YOPS   PO412328  11.691   3.465   5.413  0.3219  0.1836  0.1904
  820YOPS   GL112329  11.737   3.553   5.817  0.1540 -0.2455 -0.1873
  820YOPS   GL212330  11.916   3.234   5.924  0.0173  0.1999 -0.0251
  820YOPS   C1A12331  11.661   3.530   6.219  0.0223  0.3175 -0.1750
  820YOPS   D2A12332  11.669   3.704   6.565 -0.0069  0.1615 -0.3279
  820YOPS   C3A12333  11.780   4.084   6.848  0.2099 -0.0128  0.2129
  820YOPS   C4A12334  11.722   4.377   7.158  0.0221 -0.1913  0.1024
  820YOPS   C1B12335  11.473   3.107   6.067  0.0169 -0.1395  0.2925
  820YOPS   C2B12336  11.125   3.243   6.276 -0.0883 -0.2581 -0.0041
  820YOPS   D3B12337  11.069   3.554   6.519  0.1021 -0.1021 -0.1623
  820YOPS   C4B12338  11.263   3.875   6.839  0.0621  0.0138 -0.2060
  821YOPS   CNO12339  14.777   1.394   5.147  0.1331 -0.4744  0.0644
  821YOPS   PO412340  14.638   1.627   5.556 -0.3395 -0.2683 -0.1048
  821YOPS   GL112341  14.847   1.446   5.894  0.0284  0.2041 -0.4301
  821YOPS   GL212342  14.757   1.651   6.091 -0.1975 -0.5120  0.0201
  821YOPS   C1A12343  15.178   1.594   6.298  0.1678  0.0115 -0.1634
  821YOPS   D2A12344  15.508   1.529   6.079 -0.2006  0.0109 -0.1367
  821YOPS   C3A12345  15.871   1.410   6.213  0.1337  0.1698 -0.2673
  821YOPS   C4A12346  16.210   1.243   6.269  0.0031  0.1345  0.3216
  821YOPS   C1B12347  14.711   1.614   6.529  0.0048  0.0565  0.0434
  821YOPS   C2B12348  14.781   1.678   7.003  0.2173  0.1916  0.3653
  821YOPS   D3B12349  14.428   1.555   7.201  0.2103 -0.0636 -0.1294
  821YOPS   C4B12350  14.155   1.271   7.433 -0.0977 -0.0787 -0.2971
  822YOPS   CNO12351   8.499   7.503   4.741 -0.1353 -0.0456  0.3254
  822YOPS   PO412352   8.768   7.863   4.977 -0.1694 -0.3852  0.0097
  822YOPS   GL112353   8.790   7.678   5.374  0.4464  0.1280  0.3276
  822YOPS   GL212354   8.511   7.721   5.447 -0.0456 -0.2275 -0.1633
  822YOPS   C1A12355   8.939   7.560   5.833  0.1898 -0.1862  0.1747
  822YOPS   D2A12356   9.031   7.689   6.299  0.0960 -0.1887  0.3650
  822YOPS   C3A12357   9.155   7.363   6.598  0.1741 -0.1978  0.3022
  822YOPS   C4A12358   8.919   6.971   6.561 -0.0385 -0.2088  0.2318
  822YOPS   C1B12359   8.622   7.916   5.755  0.2243 -0.1917  0.0405
  822YOPS   C2B12360   8.677   8.021   6.164 -0.3430 -0.0298 -0.0305
  822YOPS   D3B12361   8.721   8.103   6.511 -0.1169 -0.0680 -0.0527
  822YOPS   C4B12362   8.389   8.255   6.710 -0.0980  0.3093 -0.0396
  823YOPS   CNO12363  14.170   9.956   5.130  0.2914  0.0176 -0.2228
  823YOPS   PO412364  13.888   9.715   5.347 -0.0017  0.2401 -0.2078
  823YOPS   GL112365  13.956   9.739   5.719 -0.2036  0.3719  0.3280
  823YOPS   GL212366  13.763   9.624   5.999  0.0365  0.1156 -0.1905
  823YOPS   C1A12367  14.139   9.994   6.084 -0.3018  0.0309  0.1385
  823YOPS   D2A12368  14.005  10.345   6.403 -0.0321  0.1416  0.3844
  823YOPS   C3A12369  13.963  10.544   6.777 -0.3526 -0.1731 -0.1874
  823YOPS   C4A12370  13.819  10.615   7.130  0.1207  0.2816 -0.0376
  823YOPS   C1B12371  13.481   9.509   6.373  0.2558  0.0690  0.0278
  823YOPS   C2B12372  13.248   9.329   6.806 -0.1252 -0.1123  0.1522
  823YOPS   D3B12373  13.294   9.187   7.139 -0.2020  0.0057  0.0991
  823YOPS   C4B12374  13.213   9.312   7.543 -0.1289  0.1778 -0.1670
  824YOPS   CNO12375   2.049  11.685   5.294  0.2959  0.0212 -0.0714
  824YOPS   PO412376   2.327  11.657   5.568  0.1072 -0.0281 -0.0858
  824YOPS   GL112377   1.946  11.709   5.870  0.1697 -0.0971  0.2982
  824YOPS   GL212378   1.659  11.678   5.692  0.0812 -0.4177 -0.0048
  824YOPS   C1A12379   1.948  11.713   6.369  0.1172  0.1468  0.1086
  824YOPS   D2A12380   2.133  11.621   6.749 -0.0851 -0.1001 -0.1493
  824YOPS   C3A12381   2.505  11.497   6.917 -0.3014  0.0931  0.1653
  824YOPS   C4A12382   2.498  11.447   7.359  0.1576 -0.0176  0.1618
  824YOPS   C1B12383   1.588  11.401   6.086 -0.1454 -0.0248  0.1554
  824YOPS   C2B12384   1.595  11.347   6.511 -0.3569  0.0807 -0.0672
  824YOPS   D3B12385   1.347  11.412   6.902 -0.1159 -0.3988 -0.2304
  824YOPS   C4B12386   1.342  10.949   7.066 -0.2706 -0.0286 -0.1459
  825YOPS   CNO12387  12.258   2.274   4.908  0.5606  0.0496 -0.0611
  825YOPS   PO412388  11.849   2.106   5.048 -0.2712  0.3664 -0.0390
  825YOPS   GL112389  11.788   2.006   5.544 -0.1615  0.2572  0.3440
  825YOPS   GL212390  11.593   2.162   5.725  0.0656  0.1216  0.2196
  825YOPS   C1A12391  11.688   1.743   5.906  0.2363 -0.0106  0.0219
  825YOPS   D2A12392  11.484   1.770   6.328 -0.0281  0.0321  0.1087
  825YOPS   C3A12393  11.158   1.595   6.529  0.2077 -0.0769  0.2387
  825YOPS   C4A12394  11.093   1.644   7.040 -0.5069  0.0677  0.0839
  825YOPS   C1B12395  11.212   1.895   5.856 -0.1831 -0.1388  0.3968
  825YOPS   C2B12396  10.900   1.694   6.102 -0.1387  0.1174  0.1356
  825YOPS   D3B12397  10.622   1.613   6.414  0.1098 -0.1576 -0.1597
  825YOPS   C4B12398  10.701   1.502   6.769  0.1975  0.1707  0.0920
  826YOPS   CNO12399  15.804  13.987   5.384 -0.2460  0.2517  0.0106
  826YOPS   PO412400  15.742  14.244   5.828  0.0788 -0.0626  0.2571
  826YOPS   GL112401  15.555  14.454   6.137 -0.1752  0.5612  0.1384
  826YOPS   GL212402  15.230  14.682   5.916  0.1573  0.0371  0.1850
  826YOPS   C1A12403  15.284  14.365   6.436  0.1888  0.0062 -0.0521
  826YOPS   D2A12404  15.012  14.054   6.523  0.0599 -0.3673 -0.1744
  826YOPS   C3A12405  14.834  13.768   6.628  0.1835  0.1744 -0.0509
  826YOPS   C4A12406  14.586  13.738   6.986 -0.1042  0.1614 -0.1264
  826YOPS   C1B12407  14.966  14.214   6.032  0.0156  0.1876 -0.1747
  826YOPS   C2B12408  14.746  13.835   6.155  0.0900 -0.1897 -0.1429
  826YOPS   D3B12409  14.502  13.440   6.122 -0.0001  0.0980 -0.1406
  826YOPS   C4B12410  14.085  13.354   6.209  0.0827 -0.0333  0.1268
  827YOPS   CNO12411   7.165   1.471   4.558 -0.3075 -0.1730  0.1668
  827YOPS   PO412412   6.755   1.360   4.718 -0.0087 -0.0194  0.0360
  827YOPS   GL112413   6.702   1.358   5.133 -0.1282  0.1474 -0.1764
  827YOPS   GL212414   6.427   1.434   5.383 -0.1604  0.1855 -0.0510
  827YOPS   C1A12415   6.920   1.382   5.490 -0.0196 -0.0273 -0.1851
  827YOPS   D2A12416   7.066   1.365   5.895 -0.0406  0.0527 -0.2841
  827YOPS   C3A12417   6.995   1.339   6.344  0.3065  0.1015  0.1072
  827YOPS   C4A12418   6.806   1.159   6.657 -0.1478 -0.1556 -0.5355
  827YOPS   C1B12419   6.128   1.392   5.660 -0.1838 -0.0257  0.0247
  827YOPS   C2B12420   5.766   1.441   5.812  0.1793  0.1024  0.0643
  827YOPS   D3B12421   5.423   1.311   5.986  0.2327  0.2107  0.1125
  827YOPS   C4B12422   5.294   1.634   6.326 -0.0367 -0.1545 -0.0682
  828YOPS   CNO12423  17.297  18.984   5.443 -0.0868 -0.0272  0.4088
  828YOPS   PO412424  17.546  19.264   5.595 -0.2409  0.2441 -0.0340
  828YOPS   GL112425  17.724  19.464   5.900  0.0630 -0.0990  0.0540
  828YOPS   GL212426  17.909  19.276   6.217 -0.1380  0.1451 -0.1289
  828YOPS   C1A12427  17.660  19.728   6.172  0.1478 -0.0945  0.1289
  828YOPS   D2A12428  17.456  19.663   6.589  0.2316  0.0211  0.4296
  828YOPS   C3A12429  17.568  19.616   7.058  0.2602 -0.2547 -0.0135
  828YOPS   C4A12430  18.014  19.572   7.197  0.1040 -0.1110 -0.1795
  828YOPS   C1B12431  17.882  19.394   6.540 -0.1105  0.4797  0.2360
  828YOPS   C2B12432  17.787  19.206   6.936 -0.0522  0.0431  0.1421
  828YOPS   D3B12433  18.015  19.070   7.199 -0.0331 -0.2634 -0.3316
  828YOPS   C4B12434  18.282  18.696   7.324  0.4178 -0.1062  0.2497
  829YOPS   CNO12435   5.737  18.853   5.380 -0.1320  0.2251  0.0503
  829YOPS   PO412436   5.415  19.083   5.042 -0.0027  0.2751 -0.0305
  829YOPS   GL112437   5.352  19.330   5.462 -0.0934  0.2552  0.1588
  829YOPS   GL212438   5.304  19.629   5.635  0.1291 -0.1262 -0.4463
  829YOPS   C1A12439   5.667  19.204   5.692 -0.3096 -0.0326  0.0490
  829YOPS   D2A12440   5.737  19.121   6.065 -0.1257 -0.1429 -0.0310
  829YOPS   C3A12441   5.738  18.847   6.296 -0.1389 -0.2795 -0.3694
  829YOPS   C4A12442   5.858  18.421   6.215 -0.2405  0.4877  0.2275
  829YOPS   C1B12443   5.181  19.582   6.058 -0.0795  0.0161  0.2553
  829YOPS   C2B12444   5.237  19.690   6.338 -0.1176 -0.1789 -0.0783
  829YOPS   D3B12445   5.298  19.742   6.758  0.2101 -0.0579 -0.0649
  829YOPS   C4B12446   4.909  19.762   7.054 -0.0822  0.1908 -0.0328
  830YOPS   CNO12447  10.900   9.271   4.369  0.1867  0.1696 -0.0299
  830YOPS   PO412448  10.999   9.266   4.748 -0.3091 -0.0918 -0.1401
  830YOPS   GL112449  11.041   9.382   5.162  0.1194  0.3283 -0.2834
  830YOPS   GL212450  11.317   9.581   5.137 -0.0541 -0.2851  0.0797
  830YOPS   C1A12451  11.290   9.182   5.553 -0.1643  0.3272 -0.1913
  830YOPS   D2A12452  11.313   9.314   6.010 -0.0528  0.1846 -0.1034
  830YOPS   C3A12453  11.584   9.555   6.213 -0.1038 -0.0983 -0.0953
  830YOPS   C4A12454  11.623   9.653   6.662 -0.2866 -0.1887 -0.1464
  830YOPS   C1B12455  11.576   9.623   5.521 -0.0671 -0.0893  0.1265
  830YOPS   C2B12456  12.045   9.698   5.540 -0.3305 -0.2694 -0.0098
  830YOPS   D3B12457  12.491   9.803   5.608 -0.1491 -0.0057 -0.1589
  830YOPS   C4B12458  12.764  10.222   5.636  0.3111  0.0370  0.1605
  831YOPS   CNO12459  17.176  11.792   5.321  0.1536  0.0064  0.1377
  831YOPS   PO412460  16.874  11.486   5.479 -0.1179 -0.0625  0.1618
  831YOPS   GL112461  16.853  11.657   5.884  0.1775  0.0545 -0.1482
  831YOPS   GL212462  16.990  11.946   5.787  0.0816  0.0382  0.0205
  831YOPS   C1A12463  17.111  11.730   6.230  0.1868  0.1172  0.1617
  831YOPS   D2A12464  17.489  11.490   6.400  0.0438  0.1409  0.1719
  831YOPS   C3A12465  17.897  11.511   6.558  0.1048 -0.1074  0.0690
  831YOPS   C4A12466  17.910  11.530   7.010  0.1527 -0.1259  0.3795
  831YOPS   C1B12467  16.719  12.121   6.119 -0.1709  0.0622 -0.1080
  831YOPS   C2B12468  16.619  11.863   6.472 -0.1630  0.0262 -0.1023
  831YOPS   D3B12469  16.565  11.790   6.927  0.0865 -0.2741  0.2728
  831YOPS   C4B12470  16.597  11.405   7.216  0.2906 -0.0789 -0.0644
  832YOPS   CNO12471  12.091  14.785   5.433  0.1492 -0.1303 -0.1387
  832YOPS   PO412472  11.918  14.472   5.373  0.2061  0.1799 -0.0913
  832YOPS   GL112473  12.111  14.426   5.806  0.2386 -0.0452  0.1838
  832YOPS   GL212474  12.459  14.471   5.706  0.2253 -0.0842  0.1722
  832YOPS   C1A12475  11.977  14.337   6.252 -0.0649  0.2399  0.2520
  832YOPS   D2A12476  11.870  14.401   6.653  0.0955  0.3886 -0.1345
  832YOPS   C3A12477  11.876  14.392   7.102 -0.0744 -0.0448  0.2160
  832YOPS   C4A12478  12.018  14.677   7.328 -0.1235 -0.3017 -0.3343
  832YOPS   C1B12479  12.322  14.763   6.078  0.0071 -0.1591 -0.0518
  832YOPS   C2B12480  12.055  14.824   6.274 -0.2307  0.0153 -0.0969
  832YOPS   D3B12481  11.654  14.824   6.537  0.1465  0.0478 -0.0568
  832YOPS   C4B12482  11.622  14.841   6.995 -0.2170  0.0980  0.1222
  833YOPS   CNO12483  12.593   5.619   5.631 -0.1179  0.0461  0.0781
  833YOPS   PO412484  12.801   5.144   5.613  0.2054  0.1060  0.5232
  833YOPS   GL112485  12.571   5.279   5.985 -0.1214  0.2706 -0.1114
  833YOPS   GL212486  12.395   5.100   6.264  0.1213  0.2103 -0.0832
  833YOPS   C1A12487  12.720   5.655   6.073 -0.0523 -0.2252  0.1354
  833YOPS   D2A12488  12.619   6.053   6.432 -0.3481  0.2243  0.2370
  833YOPS   C3A12489  12.528   6.433   6.517  0.4301 -0.1011 -0.0873
  833YOPS   C4A12490  12.756   6.433   6.825  0.1017  0.2043 -0.1449
  833YOPS   C1B12491  12.383   5.119   6.741 -0.1176 -0.2520 -0.0388
  833YOPS   C2B12492  12.453   4.859   7.142 -0.0715 -0.1517  0.2402
  833YOPS   D3B12493  12.735   4.570   7.146 -0.1693  0.3051  0.1962
  833YOPS   C4B12494  12.929   4.517   7.516  0.0707 -0.0621  0.2212
  834YOPS   CNO12495   6.019  16.932   4.510 -0.0455 -0.1868  0.2085
  834YOPS   PO412496   6.166  17.003   4.944 -0.0673  0.1407 -0.1152
  834YOPS   GL112497   6.122  17.009   5.345  0.1706 -0.2619 -0.1615
  834YOPS   GL212498   6.277  17.383   5.228  0.0575 -0.1202 -0.0351
  834YOPS   C1A12499   6.105  17.142   5.803 -0.0664  0.0321 -0.0828
  834YOPS   D2A12500   5.887  17.488   5.956 -0.0062 -0.0838  0.0596
  834YOPS   C3A12501   5.496  17.534   6.216  0.1265 -0.1387  0.1054
  834YOPS   C4A12502   5.376  17.651   6.696  0.0242 -0.1556 -0.1812
  834YOPS   C1B12503   6.387  17.600   5.599  0.0804  0.1091 -0.1035
  834YOPS   C2B12504   6.431  17.591   5.927 -0.0384 -0.0005 -0.0850
  834YOPS   D3B12505   6.443  17.233   6.256 -0.1383  0.0808  0.0206
  834YOPS   C4B12506   6.742  17.167   6.527  0.0956 -0.0551  0.0735
  835YOPS   CNO12507  14.953  10.865   5.098 -0.3224  0.1717 -0.0082
  835YOPS   PO412508  14.657  10.798   5.283 -0.1556 -0.0193  0.0363
  835YOPS   GL112509  14.940  10.849   5.651  0.0585  0.1294 -0.1301
  835YOPS   GL212510  15.196  10.841   5.581 -0.2457  0.1571  0.0492
  835YOPS   C1A12511  14.794  10.828   6.090  0.1931  0.1369 -0.0678
  835YOPS   D2A12512  14.460  10.919   6.395  0.2714  0.2900 -0.3743
  835YOPS   C3A12513  14.330  10.840   6.966  0.0889 -0.0868 -0.2175
  835YOPS   C4A12514  14.606  11.127   7.228 -0.1467  0.1399  0.1311
  835YOPS   C1B12515  15.553  10.797   5.939 -0.0608  0.0420 -0.0452
  835YOPS   C2B12516  15.482  10.805   6.382  0.2741 -0.0667  0.2584
  835YOPS   D3B12517  15.574  10.735   6.783 -0.2708 -0.5545 -0.1396
  835YOPS   C4B12518  15.880  10.798   7.031  0.2459  0.0889 -0.1123
  836YOPS   CNO12519   9.583   8.810   4.383 -0.0221  0.2586  0.1162
  836YOPS   PO412520   9.805   8.540   4.719  0.2035 -0.0709  0.1179
  836YOPS   GL112521   9.725   8.610   5.195  0.0627  0.0693  0.1429
  836YOPS   GL212522   9.478   8.386   5.270 -0.3954 -0.2302 -0.0477
  836YOPS   C1A12523   9.784   8.754   5.519  0.1659  0.0497 -0.3199
  836YOPS   D2A12524   9.951   8.731   5.906  0.0333 -0.1603  0.1024
  836YOPS   C3A12525  10.147   8.487   6.221  0.4423 -0.0438 -0.1084
  836YOPS   C4A12526  10.322   8.517   6.561 -0.2202 -0.1255  0.4348
  836YOPS   C1B12527   9.620   8.196   5.646 -0.2991 -0.0657 -0.0159
  836YOPS   C2B12528   9.848   7.898   5.826  0.1582  0.0012  0.1466
  836YOPS   D3B12529   9.921   7.569   6.105  0.2911 -0.1789 -0.2264
  836YOPS   C4B12530   9.762   7.242   5.893 -0.2154  0.2288 -0.0392
  837YOPS   CNO12531  17.260  14.799   5.528 -0.4386  0.0000  0.1296
  837YOPS   PO412532  17.625  14.661   5.450 -0.0614 -0.0316  0.0753
  837YOPS   GL112533  17.567  14.470   5.826 -0.2128  0.2891 -0.0739
  837YOPS   GL212534  17.370  14.152   6.005 -0.4656 -0.3513 -0.2962
  837YOPS   C1A12535  17.776  14.459   6.203 -0.0291  0.3630  0.2709
  837YOPS   D2A12536  17.875  14.286   6.598 -0.1840  0.1142  0.1248
  837YOPS   C3A12537  17.941  14.354   7.012  0.2128 -0.1839 -0.1587
  837YOPS   C4A12538  17.757  14.143   7.380 -0.1190  0.1530 -0.0116
  837YOPS   C1B12539  17.354  14.175   6.450  0.2045 -0.0001  0.1857
  837YOPS   C2B12540  17.493  14.447   6.775  0.4588 -0.3393 -0.0509
  837YOPS   D3B12541  17.484  14.504   7.315 -0.1141 -0.0914  0.1746
  837YOPS   C4B12542  17.845  14.792   7.300 -0.1379 -0.2128 -0.0439
  838YOPS   CNO12543  18.221  12.221   5.521 -0.1914 -0.1638  0.0389
  838YOPS   PO412544  18.045  11.849   5.582  0.2601  0.0920 -0.0849
  838YOPS   GL112545  17.977  12.059   5.931 -0.1639 -0.2444  0.1195
  838YOPS   GL212546  18.023  12.304   6.115  0.3634 -0.1007  0.1562
  838YOPS   C1A12547  18.215  11.889   6.310 -0.0814  0.2835  0.1318
  838YOPS   D2A12548  18.224  12.043   6.750  0.0234  0.1147 -0.3103
  838YOPS   C3A12549  18.158  12.049   7.219  0.3711 -0.0233  0.0008
  838YOPS   C4A12550  18.210  11.900   7.657 -0.2268  0.2264 -0.0244
  838YOPS   C1B12551  17.955  12.341   6.521  0.0927  0.1412  0.0165
  838YOPS   C2B12552  17.967  12.454   6.986 -0.2191  0.0168  0.1852
  838YOPS   D3B12553  17.645  12.667   7.225  0.1614 -0.0337 -0.0328
  838YOPS   C4B12554  17.605  12.537   7.640 -0.2395  0.0522 -0.0506
  839YOPS   CNO12555  11.395   8.333   4.759 -0.1024 -0.2387 -0.2778
  839YOPS   PO412556  11.455   7.941   4.981  0.3010 -0.1146  0.3325
  839YOPS   GL112557  11.537   8.278   5.270  0.0042 -0.2426 -0.0809
  839YOPS   GL212558  11.420   8.585   5.363  0.0323  0.0761  0.3192
  839YOPS   C1A12559  11.782   8.391   5.653  0.1812 -0.1023 -0.3556
  839YOPS   D2A12560  11.841   8.377   6.115  0.2076 -0.2333 -0.1692
  839YOPS   C3A12561  11.671   8.456   6.570  0.0355  0.0478 -0.1754
  839YOPS   C4A12562  11.235   8.409   6.767 -0.2009  0.2743  0.1524
  839YOPS   C1B12563  11.428   8.763   5.833 -0.1956 -0.0451 -0.2878
  839YOPS   C2B12564  11.468   8.876   6.223  0.0563  0.0402 -0.0215
  839YOPS   D3B12565  11.784   9.105   6.452 -0.0329  0.1042 -0.1178
  839YOPS   C4B12566  11.776   9.189   6.914 -0.1285  0.1223  0.0736
  840YOPS   CNO12567   8.364  13.045   5.337  0.3696  0.1137 -0.1301
  840YOPS   PO412568   8.610  13.035   5.041 -0.0143 -0.0367 -0.3012
  840YOPS   GL112569   8.858  12.946   5.396 -0.0403 -0.1691  0.3340
  840YOPS   GL212570   8.987  12.659   5.483  0.1146  0.0391  0.1797
  840YOPS   C1A12571   9.015  13.006   5.787 -0.0746 -0.0583 -0.0155
  840YOPS   D2A12572   8.929  12.792   6.122  0.3190  0.0310  0.1328
  840YOPS   C3A12573   8.683  12.829   6.421  0.3494  0.1281 -0.1497
  840YOPS   C4A12574   8.840  13.105   6.816  0.0012  0.1045  0.3366
  840YOPS   C1B12575   9.175  12.489   5.800 -0.0138 -0.2708  0.0965
  840YOPS   C2B12576   9.157  12.322   6.194 -0.1550 -0.1489  0.1435
  840YOPS   D3B12577   8.886  12.084   6.480  0.4787  0.0458 -0.1634
  840YOPS   C4B12578   8.546  12.357   6.705  0.3443  0.3425 -0.4149
  841POPE   NH312579  13.014  13.885   4.931  0.1620  0.1231 -0.2809
  841POPE   PO412580  13.114  14.059   5.337 -0.0472  0.1748 -0.4392
  841POPE   GL112581  13.176  14.288   5.709 -0.2127  0.3245 -0.1573
  841POPE   GL212582  12.946  14.461   5.712 -0.1815 -0.2793 -0.0710
  841POPE   C1A12583  13.175  14.162   6.058  0.1070  0.0136 -0.1537
  841POPE   D2A12584  13.114  14.010   6.463  0.2828  0.1044  0.1454
  841POPE   C3A12585  12.930  14.235   6.821 -0.0111 -0.1108 -0.0465
  841POPE   C4A12586  12.861  14.440   7.216  0.0249  0.2403 -0.2439
  841POPE   C1B12587  13.011  14.619   6.104  0.2783 -0.3013 -0.3587
  841POPE   C2B12588  13.074  14.717   6.515  0.0238 -0.4655  0.0890
  841POPE   C3B12589  13.019  14.876   6.979  0.2414  0.1050 -0.0218
  841POPE   C4B12590  12.764  15.034   7.280 -0.2050 -0.2459 -0.0040
  842POPE   NH312591   5.319  15.476   5.400 -0.1905 -0.0425  0.0932
  842POPE   PO412592   4.977  15.317   5.621  0.1102  0.0974  0.0054
  842POPE   GL112593   4.818  15.632   5.792 -0.0922  0.1115  0.1990
  842POPE   GL212594   4.989  15.465   6.115 -0.1739  0.0595  0.1241
  842POPE   C1A12595   5.050  16.017   5.918  0.0971 -0.1123 -0.2337
  842POPE   D2A12596   4.920  16.445   5.947  0.1502 -0.1169 -0.1732
  842POPE   C3A12597   5.087  16.706   6.323 -0.0563 -0.2718 -0.2400
  842POPE   C4A12598   5.116  16.750   6.815  0.1695  0.1945 -0.0784
  842POPE   C1B12599   5.152  15.323   6.525 -0.0375  0.3545 -0.1541
  842POPE   C2B12600   5.028  15.403   6.899 -0.1776  0.2230 -0.1955
  842POPE   C3B12601   4.992  15.206   7.322  0.1436 -0.2304 -0.4454
  842POPE   C4B12602   5.205  15.028   7.664 -0.0567 -0.0963 -0.1167
  843POPE   NH312603   9.607  16.192   5.672  0.2804 -0.1266 -0.0639
  843POPE   PO412604   9.552  15.929   5.998 -0.0377 -0.3254  0.1730
  843POPE   GL112605   9.599  15.744   6.350  0.2929 -0.0874 -0.0051
  843POPE   GL212606   9.502  15.945   6.527  0.2058 -0.0612  0.1500
  843POPE   C1A12607   9.795  15.593   6.661 -0.2366  0.0457  0.0259
  843POPE   D2A12608   9.811  15.268   6.940 -0.2356  0.1158  0.0049
  843POPE   C3A12609   9.686  15.170   7.321  0.1814 -0.0136 -0.1119
  843POPE   C4A12610   9.841  15.100   7.818  0.1645 -0.1896  0.1737
  843POPE   C1B12611   9.363  16.079   7.009 -0.1434  0.1361 -0.3927
  843POPE   C2B12612   9.104  16.073   7.244 -0.2395  0.0841  0.0594
  843POPE   C3B12613   8.998  16.231   7.556  0.1734 -0.0361 -0.1477
  843POPE   C4B12614   8.747  16.156   7.830 -0.1936  0.1266 -0.3930
  844POPE   NH312615   1.488  15.356   5.630  0.1484 -0.0120 -0.1069
  844POPE   PO412616   1.678  15.891   5.609  0.1466  0.0114  0.0667
  844POPE   GL112617   1.661  16.038   6.052 -0.0185 -0.0803  0.0916
  844POPE   GL212618   1.733  16.354   5.997  0.0506  0.2390  0.2551
  844POPE   C1A12619   1.614  16.066   6.558  0.0418  0.0414 -0.2118
  844POPE   D2A12620   1.413  16.317   6.902  0.3606  0.2162 -0.0147
  844POPE   C3A12621   1.258  16.037   7.267 -0.4489 -0.0851 -0.1497
  844POPE   C4A12622   1.033  15.656   7.387  0.1422  0.3556 -0.1172
  844POPE   C1B12623   1.347  16.401   6.123  0.0417  0.3128  0.0435
  844POPE   C2B12624   1.161  16.259   6.491 -0.3395  0.1184 -0.0690
  844POPE   C3B12625   1.007  15.962   6.674  0.0804 -0.1895  0.1347
  844POPE   C4B12626   1.278  15.604   6.810  0.0181 -0.1166 -0.0804
  845POPE   NH312627   6.746  16.232   5.416  0.1145 -0.2764 -0.2736
  845POPE   PO412628   6.908  16.080   5.780  0.0537 -0.2438 -0.0330
  845POPE   GL112629   6.575  15.852   5.864  0.1480  0.2303  0.0529
  845POPE   GL212630   6.795  15.781   6.171  0.1979  0.1538  0.0082
  845POPE   C1A12631   6.185  15.992   6.174  0.1276 -0.2707  0.0655
  845POPE   D2A12632   5.849  16.012   6.016  0.2819  0.1015  0.2587
  845POPE   C3A12633   5.415  15.757   6.141  0.1640 -0.1273  0.0617
  845POPE   C4A12634   5.372  15.695   6.619 -0.1198 -0.1577 -0.2143
  845POPE   C1B12635   6.719  15.904   6.473  0.0015  0.1830  0.0849
  845POPE   C2B12636   6.660  15.920   6.892 -0.2622  0.0253 -0.5431
  845POPE   C3B12637   6.671  15.983   7.342  0.0753 -0.0047  0.1013
  845POPE   C4B12638   6.656  16.291   7.737  0.1506  0.0323 -0.0954
  846POPE   NH312639   5.423   9.061   4.911 -0.1976 -0.2744  0.1106
  846POPE   PO412640   5.687   9.280   4.761  0.1507 -0.0790  0.2392
  846POPE   GL112641   5.878   9.130   5.151 -0.0323  0.2441 -0.0760
  846POPE   GL212642   5.698   8.883   5.282  0.1816  0.2921 -0.0652
  846POPE   C1A12643   5.989   9.243   5.440 -0.0253 -0.2382  0.1602
  846POPE   D2A12644   5.687   9.223   5.752  0.6308 -0.0135 -0.0010
  846POPE   C3A12645   5.676   9.501   6.084  0.0811 -0.1634  0.1102
  846POPE   C4A12646   5.743   9.390   6.434  0.1418 -0.2493  0.4927
  846POPE   C1B12647   6.070   8.726   5.324  0.0257 -0.4568 -0.1716
  846POPE   C2B12648   6.465   8.760   5.564 -0.0485  0.0167  0.1073
  846POPE   C3B12649   6.651   8.942   6.015 -0.0480 -0.0787  0.0094
  846POPE   C4B12650   6.800   8.941   6.465 -0.1713  0.0374 -0.1388
  847POPE   NH312651  13.254   3.129   5.726 -0.0866 -0.0371  0.1404
  847POPE   PO412652  13.284   3.546   5.599 -0.1294  0.0395  0.0829
  847POPE   GL112653  13.223   3.570   6.019 -0.0069 -0.1000 -0.0862
  847POPE   GL212654  13.221   3.783   6.298  0.1742 -0.0491  0.0042
  847POPE   C1A12655  13.430   3.323   6.341  0.1780 -0.0992  0.0427
  847POPE   D2A12656  13.545   3.038   6.576 -0.0148  0.0972  0.0078
  847POPE   C3A12657  13.674   2.655   6.423 -0.3697 -0.2321  0.1571
  847POPE   C4A12658  13.906   2.239   6.474  0.1465 -0.4235 -0.1095
  847POPE   C1B12659  13.291   3.859   6.785  0.1334 -0.1546 -0.1996
  847POPE   C2B12660  13.405   3.747   7.216  0.0955 -0.0438 -0.0494
  847POPE   C3B12661  13.271   3.507   7.468 -0.1366 -0.0978  0.3962
  847POPE   C4B12662  13.338   3.150   7.569  0.0467  0.0716 -0.0584
  848POPE   NH312663   2.082   9.666   5.513 -0.1347  0.1986  0.1034
  848POPE   PO412664   2.225  10.138   5.433  0.1787  0.1325 -0.1486
  848POPE   GL112665   2.167  10.424   5.616 -0.0992 -0.0515  0.2126
  848POPE   GL212666   2.144  10.763   5.663  0.0953 -0.1465 -0.2343
  848POPE   C1A12667   1.900  10.339   5.961  0.1976  0.3278 -0.1199
  848POPE   D2A12668   2.045   9.935   6.251  0.2570 -0.4211  0.0184
  848POPE   C3A12669   2.192   9.736   6.635  0.2729 -0.0415 -0.1456
  848POPE   C4A12670   2.347   9.590   7.054  0.1097 -0.0794 -0.0412
  848POPE   C1B12671   2.265  10.735   6.036 -0.0220  0.2750  0.3080
  848POPE   C2B12672   2.263  10.716   6.442  0.1681 -0.1757 -0.3511
  848POPE   C3B12673   2.315  10.662   6.833  0.2335 -0.5853  0.0898
  848POPE   C4B12674   2.038  10.584   7.165  0.1252  0.6447  0.5808
  849POPE   NH312675   0.886  11.226   5.425 -0.0881 -0.0377 -0.3123
  849POPE   PO412676   0.964  11.434   5.773 -0.0761 -0.0461 -0.1293
  849POPE   GL112677   0.778  11.089   5.952 -0.2140 -0.0780  0.0114
  849POPE   GL212678   0.549  10.891   5.833  0.2991 -0.0943 -0.1735
  849POPE   C1A12679   0.715  10.853   6.333 -0.3193 -0.3804  0.2092
  849POPE   D2A12680   0.612  10.396   6.528 -0.0412 -0.0448 -0.0060
  849POPE   C3A12681   0.736  10.337   6.975 -0.3151  0.1885  0.3053
  849POPE   C4A12682   1.108  10.481   7.077  0.2637  0.2228  0.0698
  849POPE   C1B12683   0.265  10.685   6.079 -0.1333 -0.0899 -0.2428
  849POPE   C2B12684   0.147  10.501   6.479  0.0707  0.1382 -0.1378
  849POPE   C3B12685  -0.057  10.537   6.844 -0.0168  0.0315  0.2324
  849POPE   C4B12686  -0.142  10.296   7.072  0.3398  0.0416 -0.4319
  850POPE   NH312687   3.832   6.920   5.201  0.0515  0.4102 -0.2266
  850POPE   PO412688   3.394   6.880   5.287 -0.0917 -0.1190 -0.0038
  850POPE   GL112689   3.504   6.882   5.718 -0.1534 -0.1147  0.0416
  850POPE   GL212690   3.892   6.851   5.717 -0.2085  0.3660  0.2717
  850POPE   C1A12691   3.444   7.132   6.188 -0.0717  0.0169  0.0507
  850POPE   D2A12692   3.604   7.382   6.598  0.0680  0.2255 -0.0658
  850POPE   C3A12693   3.536   7.584   6.958 -0.0519 -0.1866 -0.2300
  850POPE   C4A12694   3.728   7.726   7.360 -0.1081 -0.2062 -0.1853
  850POPE   C1B12695   3.820   6.774   6.149  0.0187 -0.0394 -0.1175
  850POPE   C2B12696   3.826   6.447   6.431  0.1872  0.1868  0.2124
  850POPE   C3B12697   3.724   6.144   6.749 -0.0720  0.2111  0.1462
  850POPE   C4B12698   3.793   6.102   7.162  0.1703  0.0542 -0.2068
  851POPE   NH312699  16.990   1.603   5.735 -0.1922  0.1623 -0.2413
  851POPE   PO412700  17.201   2.015   5.655 -0.0926  0.0373 -0.1520
  851POPE   GL112701  17.083   2.322   5.990  0.2841  0.1345 -0.4275
  851POPE   GL212702  16.719   2.121   5.965  0.0174 -0.3833  0.0725
  851POPE   C1A12703  17.012   2.496   6.343  0.2033  0.2847 -0.2451
  851POPE   D2A12704  16.779   2.561   6.586  0.0203  0.1243 -0.1683
  851POPE   C3A12705  16.906   2.944   6.889 -0.0505 -0.0081  0.1887
  851POPE   C4A12706  17.025   3.083   7.270 -0.2842 -0.1029  0.0690
  851POPE   C1B12707  16.629   1.655   6.204  0.0845 -0.0615  0.0552
  851POPE   C2B12708  16.676   1.222   6.504 -0.1825 -0.2186  0.1906
  851POPE   C3B12709  16.425   1.016   6.742  0.2884  0.0555 -0.1195
  851POPE   C4B12710  16.006   1.016   7.028  0.2379  0.2520 -0.0758
  852POPE   NH312711   9.822   4.187   4.751 -0.1164 -0.0673 -0.4733
  852POPE   PO412712   9.944   4.543   4.723  0.1215  0.2135  0.0703
  852POPE   GL112713   9.918   4.490   5.225 -0.1218  0.1237  0.1115
  852POPE   GL212714   9.571   4.585   5.584  0.1415  0.2243  0.2355
  852POPE   C1A12715  10.056   4.777   5.502 -0.3886  0.0241 -0.0093
  852POPE   D2A12716  10.174   5.191   5.665  0.1910 -0.0769 -0.1445
  852POPE   C3A12717  10.198   5.498   6.046 -0.5310  0.0624 -0.2395
  852POPE   C4A12718  10.453   5.895   6.138  0.1970 -0.2436 -0.1161
  852POPE   C1B12719   9.408   4.614   6.039  0.1107  0.0833 -0.0844
  852POPE   C2B12720   8.991   4.711   6.245 -0.0193 -0.3325 -0.2768
  852POPE   C3B12721   8.761   4.449   6.618 -0.1596  0.2351 -0.1960
  852POPE   C4B12722   8.626   4.403   7.073 -0.0471 -0.0797  0.0335
  853POPE   NH312723   9.835   0.142   4.918 -0.1146  0.0167 -0.0935
  853POPE   PO412724   9.505   0.357   5.099  0.1497 -0.0543 -0.0268
  853POPE   GL112725   9.261   0.524   5.455 -0.1100  0.2005 -0.3489
  853POPE   GL212726   9.286   0.771   5.299  0.2646  0.0355  0.0269
  853POPE   C1A12727   9.339   0.598   5.865  0.1096 -0.0804  0.2168
  853POPE   D2A12728   9.185   0.412   6.244  0.2910  0.0736 -0.0597
  853POPE   C3A12729   9.116   0.262   6.685 -0.0096 -0.0261 -0.0370
  853POPE   C4A12730   9.331   0.148   6.984 -0.1128  0.0181 -0.0022
  853POPE   C1B12731   9.092   1.002   5.640 -0.1613  0.1113 -0.1012
  853POPE   C2B12732   9.100   0.951   6.174  0.1889 -0.0129  0.0715
  853POPE   C3B12733   9.192   0.788   6.581 -0.1622 -0.1891 -0.0146
  853POPE   C4B12734   9.194   0.619   7.044 -0.0779 -0.1454 -0.1928
  854POPE   NH312735   4.022  11.487   5.345  0.0786  0.1931  0.0252
  854POPE   PO412736   3.831  11.843   5.348 -0.0132 -0.0299 -0.0464
  854POPE   GL112737   3.813  11.613   5.803  0.1277  0.0680 -0.1510
  854POPE   GL212738   3.574  11.638   5.868 -0.1502 -0.1065 -0.3309
  854POPE   C1A12739   3.873  11.798   6.252 -0.0078  0.1056 -0.0607
  854POPE   D2A12740   3.940  11.861   6.652  0.2971 -0.1912 -0.0671
  854POPE   C3A12741   4.423  12.124   6.751  0.2153 -0.1706 -0.0218
  854POPE   C4A12742   4.632  12.304   7.098 -0.1407  0.1482  0.2043
  854POPE   C1B12743   3.472  12.033   6.027  0.0288  0.0579  0.1618
  854POPE   C2B12744   3.359  11.833   6.411  0.1181 -0.0791 -0.2064
  854POPE   C3B12745   3.494  11.605   6.771  0.1106 -0.3595 -0.0788
  854POPE   C4B12746   3.452  11.321   7.071  0.0408  0.3117  0.2898
  855POPE   NH312747  13.608  12.756   5.233 -0.1365  0.0198  0.0732
  855POPE   PO412748  14.072  12.899   5.401  0.1331 -0.2753 -0.0906
  855POPE   GL112749  14.208  12.765   5.831 -0.2392  0.4180  0.2031
  855POPE   GL212750  14.396  13.007   5.956  0.1635 -0.1764 -0.0850
  855POPE   C1A12751  14.063  12.808   6.271  0.1100  0.0990 -0.1074
  855POPE   D2A12752  14.138  12.812   6.755  0.4206 -0.1986  0.1645
  855POPE   C3A12753  14.110  13.261   6.783 -0.1410  0.0934  0.0377
  855POPE   C4A12754  13.950  13.654   6.635  0.3065 -0.0158  0.0868
  855POPE   C1B12755  14.552  12.975   6.300  0.2581  0.1884 -0.0493
  855POPE   C2B12756  14.835  12.933   6.503  0.1224 -0.3526  0.2998
  855POPE   C3B12757  15.085  12.813   6.806  0.2451  0.1648 -0.0075
  855POPE   C4B12758  15.078  12.451   7.067  0.0351 -0.1144  0.1252
  856POPE   NH312759  11.664  18.700   5.201 -0.1582 -0.0346 -0.1859
  856POPE   PO412760  11.285  18.501   5.424  0.0719 -0.2284  0.2155
  856POPE   GL112761  10.922  18.700   5.579  0.2191  0.0192 -0.3016
  856POPE   GL212762  10.584  18.861   5.413 -0.2128  0.1238  0.1909
  856POPE   C1A12763  10.665  18.427   5.950  0.2793 -0.0422  0.0075
  856POPE   D2A12764  10.959  18.393   6.286  0.3068 -0.0921 -0.2564
  856POPE   C3A12765  10.981  18.819   6.497 -0.2680 -0.0349 -0.1334
  856POPE   C4A12766  10.777  19.178   6.672 -0.0184  0.2559 -0.1115
  856POPE   C1B12767  10.322  19.221   5.648  0.0577  0.1439 -0.0868
  856POPE   C2B12768  10.358  19.514   5.561  0.2464 -0.2521 -0.3731
  856POPE   C3B12769  10.388  19.898   5.751  0.1323  0.0081  0.1266
  856POPE   C4B12770  10.126  20.138   6.037  0.0754 -0.0262 -0.1797
  857POPE   NH312771  12.281   1.996   5.339  0.0738 -0.1437 -0.1810
  857POPE   PO412772  12.622   1.759   5.420 -0.2835 -0.2044 -0.0349
  857POPE   GL112773  12.509   1.984   5.766  0.0672 -0.0217  0.4015
  857POPE   GL212774  12.216   1.718   5.824 -0.4080 -0.0059 -0.0954
  857POPE   C1A12775  12.477   2.385   6.095  0.1744  0.1163  0.1728
  857POPE   D2A12776  12.304   2.616   6.491 -0.1521  0.0048  0.0884
  857POPE   C3A12777  12.214   2.768   6.848  0.0317  0.1053 -0.0323
  857POPE   C4A12778  12.357   2.775   7.357  0.1258 -0.2964 -0.2979
  857POPE   C1B12779  12.448   1.473   5.986 -0.2875  0.0271  0.2260
  857POPE   C2B12780  12.536   1.144   6.254  0.1060  0.0053 -0.2713
  857POPE   C3B12781  12.145   0.851   6.341  0.0980  0.0008 -0.0324
  857POPE   C4B12782  11.770   0.788   6.575 -0.1050  0.1290  0.2067
  858POPE   NH312783  18.633  10.410   5.706 -0.2027  0.3538 -0.1260
  858POPE   PO412784  18.454  10.002   5.713  0.0849  0.0255  0.0176
  858POPE   GL112785  18.384   9.813   6.093  0.2760 -0.3093 -0.0649
  858POPE   GL212786  18.165   9.608   6.188  0.0191 -0.2616  0.1282
  858POPE   C1A12787  18.097   9.993   6.524  0.1640  0.3069 -0.1187
  858POPE   D2A12788  17.965  10.043   6.961 -0.1004  0.4495 -0.0914
  858POPE   C3A12789  18.081   9.719   7.302  0.0173  0.2262 -0.1064
  858POPE   C4A12790  17.948   9.676   7.726  0.1539 -0.0107 -0.3546
  858POPE   C1B12791  18.465   9.619   6.561  0.1081  0.0583 -0.1431
  858POPE   C2B12792  18.616   9.739   6.955  0.0547  0.0468  0.1597
  858POPE   C3B12793  18.649   9.682   7.418  0.0740 -0.1252  0.0130
  858POPE   C4B12794  18.658   9.320   7.626 -0.1123 -0.1526 -0.1169
  859POPE   NH312795   0.013   3.472   5.666 -0.1066 -0.1936  0.0302
  859POPE   PO412796   0.374   3.687   5.620 -0.0959  0.2293 -0.1324
  859POPE   GL112797   0.346   3.720   5.997  0.3311  0.0068  0.0813
  859POPE   GL212798   0.643   3.798   6.059  0.3352  0.0125  0.2696
  859POPE   C1A12799   0.023   3.888   6.357  0.1534  0.1697 -0.0988
  859POPE   D2A12800  -0.241   3.700   6.714  0.2294  0.2069  0.1933
  859POPE   C3A12801  -0.277   3.769   7.052  0.0910 -0.0261  0.2448
  859POPE   C4A12802  -0.400   3.713   7.366 -0.0117  0.1340 -0.0846
  859POPE   C1B12803   0.958   4.025   6.288  0.0827 -0.0397  0.1014
  859POPE   C2B12804   1.042   4.290   6.434  0.0017 -0.1592 -0.0839
  859POPE   C3B12805   0.984   4.498   6.808 -0.2849  0.1075  0.0288
  859POPE   C4B12806   0.847   4.482   7.237 -0.1274 -0.1100 -0.3983
  860POPE   NH312807  13.842  15.523   5.521 -0.2331 -0.0675 -0.4672
  860POPE   PO412808  13.639  15.020   5.467 -0.3373  0.2011  0.2308
  860POPE   GL112809  13.774  14.763   5.799  0.0466 -0.0535 -0.0047
  860POPE   GL212810  13.533  14.672   5.881 -0.2536  0.1592  0.0589
  860POPE   C1A12811  13.886  14.524   6.164  0.2695 -0.1150  0.0340
  860POPE   D2A12812  13.902  14.424   6.526 -0.3558  0.2063 -0.0991
  860POPE   C3A12813  14.096  14.234   6.829 -0.0962  0.3280 -0.1362
  860POPE   C4A12814  14.357  14.173   7.271  0.2627  0.0138 -0.0656
  860POPE   C1B12815  13.423  14.440   6.396 -0.1591  0.0465  0.2437
  860POPE   C2B12816  13.388  14.436   6.859  0.0015  0.0435 -0.0068
  860POPE   C3B12817  13.374  14.588   7.254 -0.1338  0.0188  0.1398
  860POPE   C4B12818  13.203  14.906   7.459 -0.2108 -0.1317 -0.2249
  861POPE   NH312819   7.182  14.117   5.544 -0.0490  0.0217 -0.0291
  861POPE   PO412820   6.827  14.323   5.347  0.2144 -0.0365  0.0026
  861POPE   GL112821   6.816  14.313   5.851  0.1513  0.3992  0.0252
  861POPE   GL212822   6.533  14.226   5.951  0.0782  0.0744 -0.0109
  861POPE   C1A12823   6.929  13.953   6.189  0.2186  0.0928  0.0837
  861POPE   D2A12824   7.057  13.900   6.570 -0.0936 -0.1510 -0.1384
  861POPE   C3A12825   7.325  14.158   6.811  0.2766 -0.2704 -0.5037
  861POPE   C4A12826   7.623  14.098   7.171  0.3530  0.0769  0.3259
  861POPE   C1B12827   6.657  14.307   6.376 -0.0061  0.1003  0.0498
  861POPE   C2B12828   6.868  14.342   6.840 -0.0783  0.1285 -0.0309
  861POPE   C3B12829   7.016  14.095   7.242 -0.2052  0.0797 -0.2283
  861POPE   C4B12830   6.807  13.781   7.446  0.4330 -0.0199 -0.1617
  862POPE   NH312831  16.053  15.715   5.754  0.0398  0.1658  0.0465
  862POPE   PO412832  16.337  16.192   5.772  0.0007  0.1547  0.0176
  862POPE   GL112833  16.204  16.480   6.131 -0.2028 -0.0638  0.3707
  862POPE   GL212834  16.115  16.739   6.100  0.0784  0.0208 -0.1611
  862POPE   C1A12835  16.269  16.538   6.553  0.0715  0.2207  0.3316
  862POPE   D2A12836  16.309  16.767   6.883 -0.1771  0.2424 -0.0857
  862POPE   C3A12837  16.689  16.672   7.224  0.3505 -0.0287 -0.1270
  862POPE   C4A12838  16.703  16.732   7.647  0.0250  0.1501  0.0169
  862POPE   C1B12839  16.219  17.027   6.432  0.4003 -0.2296 -0.2618
  862POPE   C2B12840  16.426  17.208   6.714 -0.3391 -0.0720 -0.1016
  862POPE   C3B12841  16.459  17.278   7.165  0.2658  0.0122  0.2528
  862POPE   C4B12842  16.478  17.636   7.327  0.0939 -0.1397 -0.1296
  863POPE   NH312843   5.754  12.582   5.655  0.0586  0.1115 -0.3362
  863POPE   PO412844   6.083  12.092   5.528  0.0044  0.1279  0.1120
  863POPE   GL112845   6.323  11.907   5.866  0.1916 -0.2973  0.0397
  863POPE   GL212846   6.348  12.223   6.067 -0.2104 -0.6010 -0.0781
  863POPE   C1A12847   6.438  11.855   6.366 -0.1160 -0.2497 -0.1400
  863POPE   D2A12848   6.218  11.599   6.619  0.2043 -0.2001  0.1204
  863POPE   C3A12849   6.433  11.402   6.961  0.1788  0.0766 -0.2924
  863POPE   C4A12850   6.538  11.436   7.388  0.0282  0.3072  0.1306
  863POPE   C1B12851   6.472  12.303   6.517 -0.1654  0.1008 -0.1547
  863POPE   C2B12852   6.527  11.888   6.818 -0.0744  0.0553 -0.1316
  863POPE   C3B12853   6.198  11.852   7.147 -0.1023 -0.0733  0.1623
  863POPE   C4B12854   6.059  11.946   7.631 -0.1165 -0.1316 -0.1325
  864POPE   NH312855  19.380  10.054   5.335  0.1668 -0.3073 -0.1957
  864POPE   PO412856  18.936  10.106   5.520 -0.0204  0.0189  0.0074
  864POPE   GL112857  18.870  10.076   5.985 -0.1214 -0.2165 -0.4032
  864POPE   GL212858  18.884   9.712   5.949 -0.0665  0.1989 -0.1129
  864POPE   C1A12859  18.611  10.151   6.346 -0.1997  0.1731  0.0022
  864POPE   D2A12860  18.521  10.247   6.773  0.0683 -0.2758  0.1282
  864POPE   C3A12861  18.775  10.183   7.141 -0.0382 -0.0813 -0.2065
  864POPE   C4A12862  18.946  10.208   7.471  0.2072  0.2082 -0.3745
  864POPE   C1B12863  18.922   9.717   6.352  0.0572  0.1493 -0.1466
  864POPE   C2B12864  18.854   9.376   6.731 -0.0614 -0.0192 -0.1238
  864POPE   C3B12865  19.063   9.445   7.237  0.2852 -0.0906 -0.0231
  864POPE   C4B12866  19.083   9.719   7.603 -0.3407 -0.2534  0.0624
  865POPE   NH312867   8.890   5.040   4.579  0.0210 -0.1985  0.1371
  865POPE   PO412868   8.565   5.372   4.474 -0.0297  0.1459 -0.1770
  865POPE   GL112869   8.734   5.425   4.956 -0.2169  0.0511 -0.1498
  865POPE   GL212870   9.023   5.347   5.088  0.0037 -0.1357  0.2976
  865POPE   C1A12871   8.615   5.370   5.434 -0.1228 -0.1781 -0.0725
  865POPE   D2A12872   8.788   5.303   5.765 -0.0121  0.0422  0.1385
  865POPE   C3A12873   8.749   5.037   5.979  0.1285 -0.1831  0.0099
  865POPE   C4A12874   8.523   4.787   6.242  0.0301  0.1915  0.1831
  865POPE   C1B12875   8.977   5.752   5.321 -0.1691 -0.2414  0.0826
  865POPE   C2B12876   9.038   6.134   5.559 -0.3340  0.0878  0.0593
  865POPE   C3B12877   9.079   6.510   5.843 -0.2928 -0.1040  0.4012
  865POPE   C4B12878   9.360   6.603   6.090  0.0602 -0.0885 -0.2899
  866POPE   NH312879  10.517  10.145   5.220 -0.4032  0.1690 -0.2028
  866POPE   PO412880  10.184   9.832   5.154 -0.2405  0.0725 -0.1655
  866POPE   GL112881  10.271   9.835   5.554 -0.0432 -0.0693  0.0639
  866POPE   GL212882  10.387   9.925   5.844  0.0561  0.1953 -0.0632
  866POPE   C1A12883  10.033   9.646   5.933  0.1330 -0.1077  0.2126
  866POPE   D2A12884   9.613   9.867   5.995  0.3736 -0.0512  0.0354
  866POPE   C3A12885   9.624  10.257   6.231  0.0926 -0.4122  0.3442
  866POPE   C4A12886   9.604  10.530   5.968  0.2070  0.0480  0.1146
  866POPE   C1B12887  10.338  10.350   5.966 -0.1244 -0.1020 -0.0348
  866POPE   C2B12888  10.036  10.575   6.161  0.0969 -0.1628 -0.1052
  866POPE   C3B12889  10.007  10.946   6.362  0.2346 -0.2689  0.2285
  866POPE   C4B12890  10.000  11.412   6.177 -0.3016 -0.3278 -0.1278
  867POPE   NH312891   8.596  11.008   5.413 -0.0083 -0.1340 -0.0167
  867POPE   PO412892   9.003  10.865   5.290  0.0123 -0.0081 -0.2089
  867POPE   GL112893   8.945  10.649   5.711 -0.0186  0.2236 -0.1011
  867POPE   GL212894   8.824  10.352   5.608  0.0446 -0.1742 -0.0143
  867POPE   C1A12895   8.883  10.620   6.120  0.1415 -0.1580 -0.0408
  867POPE   D2A12896   8.544  10.459   6.440  0.0758  0.2126  0.2477
  867POPE   C3A12897   8.328  10.396   6.908 -0.3638  0.0638  0.1209
  867POPE   C4A12898   8.096  10.624   7.271 -0.2467 -0.0115  0.2803
  867POPE   C1B12899   8.591  10.158   5.999 -0.0683 -0.1536  0.3405
  867POPE   C2B12900   8.271   9.925   6.307 -0.0880 -0.0720 -0.1060
  867POPE   C3B12901   7.874   9.795   6.409  0.1969 -0.1583 -0.2346
  867POPE   C4B12902   7.571  10.003   6.666  0.0068 -0.4167  0.2991
  868POPE   NH312903  19.377   9.126   5.599 -0.1004  0.1908  0.1073
  868POPE   PO412904  19.746   8.952   5.406  0.0943 -0.0753 -0.0918
  868POPE   GL112905  19.811   9.238   5.827  0.1561  0.1255  0.4427
  868POPE   GL212906  20.095   9.197   5.999 -0.0257  0.2054  0.0485
  868POPE   C1A12907  19.720   9.453   6.188 -0.3087  0.0021 -0.1256
  868POPE   D2A12908  19.539   9.588   6.474 -0.2427  0.2692  0.2682
  868POPE   C3A12909  19.405   9.338   6.880 -0.0150  0.1578 -0.1254
  868POPE   C4A12910  19.104   8.980   6.879 -0.0867 -0.1707 -0.0116
  868POPE   C1B12911  20.313   9.028   6.455  0.3131  0.3466  0.0441
  868POPE   C2B12912  20.457   8.899   6.851  0.1407  0.4859 -0.0737
  868POPE   C3B12913  20.569   8.852   7.245 -0.0496 -0.0929 -0.1014
  868POPE   C4B12914  20.773   8.599   7.513  0.1542 -0.3949 -0.2505
  869POPE   NH312915  13.135   8.647   5.399 -0.0744  0.1509 -0.0729
  869POPE   PO412916  13.471   8.387   5.388 -0.0988 -0.0853 -0.1402
  869POPE   GL112917  13.420   8.461   5.762 -0.2028  0.0303 -0.1177
  869POPE   GL212918  13.207   8.257   5.825 -0.0390 -0.2325 -0.2610
  869POPE   C1A12919  13.315   8.748   6.127 -0.0220  0.0087  0.3221
  869POPE   D2A12920  13.179   8.895   6.616 -0.0450 -0.0254 -0.1081
  869POPE   C3A12921  13.289   8.697   6.904 -0.2456 -0.2195  0.0793
  869POPE   C4A12922  13.425   8.357   7.105 -0.0152  0.1893 -0.1885
  869POPE   C1B12923  13.332   8.252   6.271 -0.3818  0.0764 -0.0361
  869POPE   C2B12924  13.255   8.226   6.682 -0.4347  0.1567  0.2902
  869POPE   C3B12925  12.923   8.234   6.955 -0.0048  0.0687 -0.5347
  869POPE   C4B12926  12.601   8.128   7.225 -0.1980 -0.0214  0.1666
  870POPE   NH312927  14.021  17.783   5.358 -0.2886 -0.0830  0.3279
  870POPE   PO412928  13.573  17.855   5.397 -0.0873 -0.1880 -0.2149
  870POPE   GL112929  13.465  17.825   5.880 -0.1397 -0.0610  0.2724
  870POPE   GL212930  13.584  18.073   6.043 -0.1265 -0.1466  0.2640
  870POPE   C1A12931  13.204  17.759   6.269 -0.2175  0.0481 -0.0035
  870POPE   D2A12932  13.047  17.918   6.754 -0.0404  0.0147 -0.0535
  870POPE   C3A12933  12.662  17.821   6.917  0.2631 -0.2510  0.1013
  870POPE   C4A12934  12.466  17.656   7.301 -0.1633  0.0405 -0.0613
  870POPE   C1B12935  13.533  18.296   6.399  0.1604  0.0044 -0.1254
  870POPE   C2B12936  13.492  18.345   6.790  0.0056 -0.0496 -0.1219
  870POPE   C3B12937  13.239  18.308   7.140  0.0517  0.0676 -0.0031
  870POPE   C4B12938  12.982  17.992   7.301  0.0771  0.1120  0.1978
  871YOPE   NH312939  18.862  18.909   5.675  0.3720 -0.0231  0.0518
  871YOPE   PO412940  18.550  19.108   5.490 -0.0352 -0.0912 -0.0595
  871YOPE   GL112941  18.711  19.416   5.830 -0.2587 -0.0235  0.0833
  871YOPE   GL212942  18.839  19.411   6.054 -0.1742 -0.1410  0.2611
  871YOPE   C1A12943  18.453  19.655   6.213 -0.3602 -0.2563  0.1319
  871YOPE   D2A12944  18.480  19.850   6.552  0.2963 -0.0195  0.1309
  871YOPE   C3A12945  18.218  19.854   6.715 -0.3119 -0.0759  0.1417
  871YOPE   C4A12946  17.826  19.895   6.766 -0.0401  0.2214  0.0340
  871YOPE   C1B12947  18.906  19.481   6.406 -0.0868  0.0750  0.0431
  871YOPE   C2B12948  18.804  19.638   6.833 -0.1594  0.1663 -0.0421
  871YOPE   D3B12949  18.993  20.011   7.023 -0.0089  0.5714  0.3244
  871YOPE   C4B12950  19.148  20.052   7.462  0.0386  0.0643  0.0583
  872YOPE   NH312951  12.489   7.899   5.283  0.5436 -0.0646 -0.2152
  872YOPE   PO412952  12.794   7.594   5.169 -0.0579  0.2851 -0.2212
  872YOPE   GL112953  12.813   7.647   5.672 -0.1240 -0.3559 -0.1189
  872YOPE   GL212954  13.069   7.408   5.821  0.2559  0.1094  0.2089
  872YOPE   C1A12955  12.667   7.524   6.054  0.1009 -0.4452  0.4255
  872YOPE   D2A12956  12.603   7.465   6.444 -0.0484 -0.2177 -0.0654
  872YOPE   C3A12957  12.534   7.721   6.875 -0.1699 -0.0355  0.2252
  872YOPE   C4A12958  12.132   7.948   7.116  0.1286  0.0577 -0.2565
  872YOPE   C1B12959  13.192   7.347   6.186 -0.2675 -0.0941  0.2656
  872YOPE   C2B12960  13.078   7.301   6.667  0.0027  0.0628  0.0109
  872YOPE   D3B12961  12.835   7.349   6.953  0.1053  0.1926  0.0892
  872YOPE   C4B12962  12.314   7.237   6.966  0.2165  0.2641  0.1193
  873YOPE   NH312963   7.853  16.085   5.795  0.0773  0.0545  0.1217
  873YOPE   PO412964   7.496  15.826   5.662 -0.0041 -0.2862  0.0388
  873YOPE   GL112965   7.323  16.014   6.053  0.3020  0.0415 -0.1407
  873YOPE   GL212966   7.630  16.075   6.251  0.2180 -0.0069  0.1330
  873YOPE   C1A12967   7.138  16.185   6.374  0.1374 -0.1054 -0.0837
  873YOPE   D2A12968   7.386  16.320   6.740  0.1659 -0.2822 -0.0270
  873YOPE   C3A12969   7.465  16.401   7.211  0.0570  0.1968  0.0888
  873YOPE   C4A12970   7.535  16.626   7.541 -0.1074 -0.0271 -0.0477
  873YOPE   C1B12971   7.805  16.070   6.640 -0.1099  0.1001  0.1649
  873YOPE   C2B12972   7.699  15.999   7.074 -0.1933 -0.0104  0.0776
  873YOPE   D3B12973   7.636  16.034   7.541  0.5521 -0.0106 -0.1500
  873YOPE   C4B12974   7.459  15.776   7.897  0.0733 -0.3354  0.0490
  874YOPE   NH312975  14.472   5.318   5.558 -0.0555  0.3656  0.2430
  874YOPE   PO412976  14.403   5.752   5.493 -0.0178  0.1949  0.1689
  874YOPE   GL112977  14.402   5.801   5.942 -0.0446  0.3257  0.1573
  874YOPE   GL212978  14.684   5.703   6.092 -0.4699  0.0403 -0.1478
  874YOPE   C1A12979  14.351   6.116   6.308 -0.0478 -0.0546  0.0171
  874YOPE   D2A12980  14.307   6.136   6.753  0.1370 -0.0227 -0.1820
  874YOPE   C3A12981  14.454   6.555   6.903  0.0527  0.0499 -0.0195
  874YOPE   C4A12982  14.653   6.635   7.307 -0.1603 -0.0084  0.0890
  874YOPE   C1B12983  14.683   5.736   6.449  0.2890 -0.1654 -0.0033
  874YOPE   C2B12984  14.555   5.637   6.817  0.1584  0.2070  0.0836
  874YOPE   D3B12985  14.319   5.811   7.159  0.0768  0.0576 -0.1894
  874YOPE   C4B12986  14.319   6.273   7.328  0.2545 -0.1314 -0.0063
  875YOPE   NH312987   1.298   9.750   5.450 -0.0426  0.0337 -0.1172
  875YOPE   PO412988   1.612   9.434   5.597 -0.0098  0.1865 -0.0359
  875YOPE   GL112989   1.776   9.577   5.972 -0.1201  0.3552  0.2334
  875YOPE   GL212990   2.091   9.428   5.963  0.4327  0.5043  0.1202
  875YOPE   C1A12991   1.805   9.511   6.376 -0.0548  0.1241  0.1624
  875YOPE   D2A12992   1.699   9.563   6.739  0.0321 -0.1034  0.1573
  875YOPE   C3A12993   1.817   9.795   6.916  0.1982  0.0849  0.0497
  875YOPE   C4A12994   1.777  10.014   7.366 -0.2971 -0.3879 -0.1076
  875YOPE   C1B12995   2.353   9.544   6.195  0.0672 -0.0806  0.0246
  875YOPE   C2B12996   2.592   9.676   6.446 -0.1900  0.0250 -0.1078
  875YOPE   D3B12997   2.944   9.576   6.647 -0.2428  0.0495  0.2868
  875YOPE   C4B12998   3.265   9.519   6.947  0.1003  0.1492  0.1646
  876YOPE   NH312999  10.213  18.753   5.109 -0.1494  0.0967 -0.1629
  876YOPE   PO413000   9.831  18.968   4.909 -0.0799  0.0312 -0.2782
  876YOPE   GL113001   9.620  18.980   5.282 -0.2038  0.0826 -0.1294
  876YOPE   GL213002   9.836  19.202   5.374 -0.1446 -0.4888 -0.2358
  876YOPE   C1A13003   9.334  18.908   5.655  0.1568  0.3746  0.2543
  876YOPE   D2A13004   8.921  19.061   5.731 -0.0103 -0.0378 -0.0259
  876YOPE   C3A13005   8.960  19.063   6.243  0.0555 -0.1320  0.3936
  876YOPE   C4A13006   9.107  19.144   6.707 -0.0480  0.3646  0.2778
  876YOPE   C1B13007   9.882  19.049   5.756 -0.2801 -0.2270  0.0078
  876YOPE   C2B13008   9.933  19.030   6.232  0.3061 -0.0208 -0.3585
  876YOPE   D3B13009   9.976  18.757   6.549 -0.5359  0.1117 -0.1596
  876YOPE   C4B13010  10.218  18.721   6.824  0.0054  0.0708  0.2685
  877YOPE   NH313011  13.285  18.322   5.664  0.1978  0.1914 -0.0528
  877YOPE   PO413012  13.047  17.974   5.559 -0.2190 -0.1442  0.0426
  877YOPE   GL113013  12.862  17.955   5.989  0.2060 -0.0740 -0.0018
  877YOPE   GL213014  12.985  18.179   6.364 -0.1191  0.0509 -0.1854
  877YOPE   C1A13015  12.664  17.821   6.320 -0.1518 -0.1674 -0.0490
  877YOPE   D2A13016  12.288  17.692   6.652 -0.4440 -0.0778  0.0071
  877YOPE   C3A13017  12.024  17.774   7.007 -0.0536  0.1874  0.1292
  877YOPE   C4A13018  12.025  17.669   7.436  0.0636  0.1259  0.2383
  877YOPE   C1B13019  12.847  18.353   6.717 -0.1047 -0.0444  0.4022
  877YOPE   C2B13020  12.401  18.248   6.740 -0.0487  0.1811  0.3677
  877YOPE   D3B13021  11.905  18.161   6.698  0.2270 -0.1199  0.0515
  877YOPE   C4B13022  11.468  17.991   6.783 -0.0235  0.0635  0.2375
  878YOPE   NH313023  16.228   6.948   5.528  0.0573  0.0227  0.4718
  878YOPE   PO413024  15.914   6.978   5.357 -0.0680  0.0714 -0.0244
  878YOPE   GL113025  15.818   7.009   5.831 -0.0924 -0.3654  0.0183
  878YOPE   GL213026  15.814   6.776   6.061 -0.2607  0.2909  0.1208
  878YOPE   C1A13027  15.448   7.255   5.978 -0.1551 -0.1863 -0.1370
  878YOPE   D2A13028  15.438   7.160   6.341 -0.2567 -0.0805  0.1865
  878YOPE   C3A13029  15.351   7.386   6.753  0.3211  0.0676  0.1616
  878YOPE   C4A13030  15.258   7.533   7.155  0.2148 -0.1068 -0.0976
  878YOPE   C1B13031  15.735   6.689   6.401  0.0489 -0.1011 -0.2356
  878YOPE   C2B13032  15.421   6.876   6.775 -0.0255  0.1293 -0.0811
  878YOPE   D3B13033  15.301   6.986   7.116  0.1156  0.1828 -0.0413
  878YOPE   C4B13034  15.034   7.096   7.439  0.0621 -0.2140  0.0696
  879YOPE   NH313035   7.921  18.093   5.027  0.0511  0.0622  0.0925
  879YOPE   PO413036   8.143  17.921   5.170 -0.0940  0.2654 -0.3188
  879YOPE   GL113037   8.130  18.246   5.437  0.0702  0.0957 -0.1046
  879YOPE   GL213038   7.994  18.500   5.322  0.4578 -0.5364  0.0458
  879YOPE   C1A13039   8.378  18.301   5.789  0.3008  0.3165 -0.0808
  879YOPE   D2A13040   8.532  18.219   6.183  0.3038 -0.3533 -0.1954
  879YOPE   C3A13041   8.279  18.390   6.555 -0.0273 -0.2341  0.0406
  879YOPE   C4A13042   8.493  18.438   6.917  0.2170 -0.1202  0.2642
  879YOPE   C1B13043   8.056  18.631   5.759  0.2079  0.1965  0.1452
  879YOPE   C2B13044   8.062  18.557   6.106  0.1047 -0.4049 -0.1313
  879YOPE   D3B13045   8.030  18.820   6.419 -0.0351 -0.0414 -0.0538
  879YOPE   C4B13046   8.109  18.775   6.855 -0.2040  0.0618  0.0069
  880YOPE   NH313047   1.329  16.792   5.685  0.0546  0.0125 -0.2097
  880YOPE   PO413048   1.251  17.259   5.847 -0.1752  0.0418  0.1728
  880YOPE   GL113049   1.423  17.047   6.250  0.0859 -0.0851  0.2406
  880YOPE   GL213050   1.552  16.838   6.119 -0.2226 -0.0300  0.2130
  880YOPE   C1A13051   1.526  16.968   6.674  0.3123 -0.1242  0.2303
  880YOPE   D2A13052   1.694  17.153   6.976 -0.1378 -0.0415 -0.1641
  880YOPE   C3A13053   1.881  16.812   7.194 -0.0018  0.2169 -0.1940
  880YOPE   C4A13054   1.828  16.410   7.239 -0.2852  0.1851 -0.0042
  880YOPE   C1B13055   1.924  17.040   6.382  0.2787 -0.0260  0.0129
  880YOPE   C2B13056   2.000  17.352   6.660 -0.0469  0.1090  0.2989
  880YOPE   D3B13057   2.201  17.650   6.934  0.2809 -0.1276 -0.0085
  880YOPE   C4B13058   2.516  17.919   7.123 -0.0295 -0.0539 -0.0911
  881YOPE   NH313059  16.840   5.190   5.375  0.0557 -0.0074 -0.0479
  881YOPE   PO413060  16.843   5.706   5.444 -0.2277  0.0775 -0.0093
  881YOPE   GL113061  17.074   5.532   5.852  0.0486 -0.2184  0.2012
  881YOPE   GL213062  16.891   5.420   6.060 -0.2970 -0.0164  0.0586
  881YOPE   C1A13063  17.345   5.747   6.101 -0.1626 -0.2132 -0.0028
  881YOPE   D2A13064  17.570   6.155   6.072 -0.2687 -0.1574  0.0334
  881YOPE   C3A13065  17.825   6.467   5.922  0.2136 -0.0468  0.0640
  881YOPE   C4A13066  18.213   6.702   5.989  0.1138  0.0141 -0.0514
  881YOPE   C1B13067  16.878   5.601   6.331 -0.1704 -0.1218 -0.0526
  881YOPE   C2B13068  16.869   5.615   6.698  0.0527 -0.0439 -0.1016
  881YOPE   D3B13069  16.957   5.689   7.143 -0.2177 -0.1243 -0.0914
  881YOPE   C4B13070  16.592   5.766   7.454  0.1994  0.5693 -0.1421
  882YOPE   NH313071   4.150   7.426   4.685  0.3095  0.0663 -0.0472
  882YOPE   PO413072   3.928   7.395   5.129 -0.0626 -0.0775  0.2138
  882YOPE   GL113073   4.090   7.244   5.446  0.2764 -0.2684  0.0988
  882YOPE   GL213074   4.099   7.547   5.657 -0.0142 -0.1013  0.0799
  882YOPE   C1A13075   4.388   7.017   5.799  0.0869 -0.2161  0.0133
  882YOPE   D2A13076   4.728   6.962   6.214 -0.0460 -0.0526  0.0591
  882YOPE   C3A13077   5.148   6.824   6.237  0.2562 -0.3430 -0.1756
  882YOPE   C4A13078   5.375   6.593   5.871  0.0770  0.0349  0.0813
  882YOPE   C1B13079   4.140   7.812   5.975  0.0405  0.0458  0.0732
  882YOPE   C2B13080   4.082   8.125   6.305  0.0619  0.0934  0.3769
  882YOPE   D3B13081   4.263   8.467   6.414  0.3504  0.1170  0.0074
  882YOPE   C4B13082   4.568   8.700   6.377  0.1271 -0.0980  0.1209
  883YOPE   NH313083   2.412   4.100   5.051 -0.7523  0.1502  0.0443
  883YOPE   PO413084   2.772   3.850   5.121  0.3861  0.0563 -0.2438
  883YOPE   GL113085   2.746   3.479   5.332  0.2590 -0.0107 -0.2761
  883YOPE   GL213086   3.046   3.424   5.673  0.1629  0.1426  0.7070
  883YOPE   C1A13087   2.506   3.268   5.638 -0.1370 -0.1466  0.2901
  883YOPE   D2A13088   2.127   3.142   5.822 -0.0114 -0.0373 -0.0168
  883YOPE   C3A13089   2.096   2.765   5.649  0.1171  0.2968 -0.2127
  883YOPE   C4A13090   2.269   2.292   5.542  0.0313  0.2143 -0.1144
  883YOPE   C1B13091   3.346   3.307   5.916  0.0132 -0.1992  0.1731
  883YOPE   C2B13092   3.416   3.411   6.351 -0.0525 -0.0395  0.0116
  883YOPE   D3B13093   3.399   3.813   6.421  0.4378  0.1471 -0.1230
  883YOPE   C4B13094   3.454   4.286   6.271  0.0797  0.0483  0.2726
  884YOPE   NH313095  12.288  16.055   5.656  0.0821 -0.0944 -0.1167
  884YOPE   PO413096  12.440  15.812   5.337 -0.0882 -0.1472 -0.2145
  884YOPE   GL113097  12.522  15.593   5.584  0.1262 -0.1687 -0.1217
  884YOPE   GL213098  12.363  15.251   5.530 -0.1097 -0.3422  0.3673
  884YOPE   C1A13099  12.679  15.638   6.056 -0.1846  0.4173 -0.1386
  884YOPE   D2A13100  12.886  15.941   6.215  0.0745 -0.2670  0.0543
  884YOPE   C3A13101  13.315  15.956   6.299 -0.0022 -0.0039  0.1250
  884YOPE   C4A13102  13.427  15.859   6.674  0.1704 -0.1095 -0.1153
  884YOPE   C1B13103  12.597  15.096   5.807  0.0031  0.1482 -0.1465
  884YOPE   C2B13104  12.782  14.996   6.233  0.0444  0.0661 -0.0723
  884YOPE   D3B13105  12.579  14.965   6.667 -0.0161 -0.2180  0.2471
  884YOPE   C4B13106  12.143  14.864   6.821  0.1987  0.1508  0.3377
  885YOPE   NH313107   5.217   2.429   4.822 -0.3077 -0.3460 -0.0643
  885YOPE   PO413108   5.088   2.300   5.247  0.0534 -0.0944 -0.3782
  885YOPE   GL113109   4.939   2.623   5.499  0.1926 -0.2326 -0.1373
  885YOPE   GL213110   5.200   2.844   5.369  0.1562 -0.0611 -0.2932
  885YOPE   C1A13111   5.159   2.753   5.896  0.4110  0.0561  0.3861
  885YOPE   D2A13112   5.447   2.619   6.221 -0.2884  0.0303 -0.0095
  885YOPE   C3A13113   5.747   2.477   6.492  0.1080  0.1762  0.0971
  885YOPE   C4A13114   5.767   2.575   7.018 -0.1395  0.0740 -0.3664
  885YOPE   C1B13115   5.578   2.696   5.611 -0.0473  0.2606 -0.1313
  885YOPE   C2B13116   5.817   2.549   5.901 -0.0878 -0.1982 -0.3184
  885YOPE   D3B13117   6.059   2.340   6.116  0.1458  0.0691  0.2703
  885YOPE   C4B13118   6.336   2.151   6.286 -0.0728 -0.2845 -0.1283
  886YOPE   NH313119  14.462  11.244   5.193  0.0175  0.2264  0.2712
  886YOPE   PO413120  14.583  11.666   5.354 -0.1935  0.1052  0.0227
  886YOPE   GL113121  14.790  11.745   5.673 -0.0830 -0.1040 -0.0500
  886YOPE   GL213122  15.083  11.763   5.514  0.0776 -0.0098  0.2166
  886YOPE   C1A13123  14.695  11.993   5.972 -0.2777  0.2630 -0.2577
  886YOPE   D2A13124  14.405  11.997   6.317 -0.1772  0.0366 -0.0429
  886YOPE   C3A13125  14.167  11.743   6.445  0.1415 -0.3999  0.0339
  886YOPE   C4A13126  14.164  11.378   6.552 -0.0431  0.0129 -0.2010
  886YOPE   C1B13127  15.129  11.754   6.015 -0.1631 -0.2285 -0.2285
  886YOPE   C2B13128  15.019  11.972   6.356  0.2533 -0.1057  0.1156
  886YOPE   D3B13129  14.727  11.985   6.729 -0.1146 -0.1540 -0.1249
  886YOPE   C4B13130  14.544  12.052   7.179  0.2670 -0.2329 -0.2308
  887YOPE   NH313131  11.979   3.883   5.366 -0.1208 -0.2968  0.2074
  887YOPE   PO413132  12.080   4.254   5.597 -0.3832  0.1774  0.3202
  887YOPE   GL113133  12.140   4.080   6.010 -0.0572 -0.0124  0.1604
  887YOPE   GL213134  12.124   3.703   6.076 -0.1654 -0.1982  0.2630
  887YOPE   C1A13135  11.851   4.171   6.298  0.0444  0.2569 -0.4179
  887YOPE   D2A13136  11.515   4.155   6.390  0.2362 -0.0922 -0.2984
  887YOPE   C3A13137  11.377   4.363   6.778  0.2421  0.1401 -0.1089
  887YOPE   C4A13138  10.937   4.582   6.904 -0.2441 -0.2388  0.0822
  887YOPE   C1B13139  12.213   3.882   6.417  0.1162 -0.1239  0.1214
  887YOPE   C2B13140  12.273   4.009   6.762  0.0151  0.0221  0.1212
  887YOPE   D3B13141  12.485   3.620   6.942  0.0569 -0.1523 -0.2221
  887YOPE   C4B13142  12.478   3.218   6.905  0.0320  0.2326  0.3856
  888YOPE   NH313143  18.625   3.692   5.194  0.1531  0.4128  0.2225
  888YOPE   PO413144  18.409   3.814   5.505 -0.2552  0.0068 -0.0784
  888YOPE   GL113145  18.421   3.585   5.931 -0.1391 -0.4868 -0.3704
  888YOPE   GL213146  18.116   3.527   6.163  0.0857  0.1684  0.0813
  888YOPE   C1A13147  18.712   3.496   6.292 -0.0176  0.5000 -0.0298
  888YOPE   D2A13148  18.732   3.431   6.707 -0.0308  0.5540  0.0214
  888YOPE   C3A13149  18.816   3.172   6.920  0.1347 -0.1903 -0.1538
  888YOPE   C4A13150  18.875   3.231   7.406  0.4253  0.0123  0.4497
  888YOPE   C1B13151  18.266   3.765   6.528 -0.2442  0.0386  0.1725
  888YOPE   C2B13152  18.174   3.763   6.955 -0.0459  0.1970  0.1115
  888YOPE   D3B13153  17.923   3.452   7.304 -0.1243  0.0652 -0.2098
  888YOPE   C4B13154  17.956   3.014   7.536  0.3821 -0.0824  0.0550
  889YOPE   NH313155   9.488   3.816   4.541 -0.3393 -0.0738  0.0624
  889YOPE   PO413156   9.322   4.172   4.836  0.1200 -0.0560 -0.1183
  889YOPE   GL113157   9.478   4.214   5.192  0.0283 -0.1022 -0.4746
  889YOPE   GL213158   9.728   4.034   5.320  0.1350 -0.2739 -0.3887
  889YOPE   C1A13159   9.293   4.216   5.676 -0.0686 -0.2064  0.1035
  889YOPE   D2A13160   9.069   4.103   6.038  0.1701 -0.0992 -0.1344
  889YOPE   C3A13161   8.751   3.779   6.178  0.3747  0.1179  0.0918
  889YOPE   C4A13162   8.245   3.753   6.204 -0.0564 -0.1378  0.3266
  889YOPE   C1B13163   9.646   3.811   5.717  0.1351 -0.1739  0.1518
  889YOPE   C2B13164   9.501   3.786   6.107  0.2299 -0.0539  0.1458
  889YOPE   D3B13165   9.572   3.641   6.582  0.2907  0.1373  0.1419
  889YOPE   C4B13166   9.730   3.500   6.856 -0.0503 -0.0214 -0.3032
  890YOPE   NH313167  15.101   4.899   5.405 -0.2490  0.0213  0.2153
  890YOPE   PO413168  15.319   4.522   5.306  0.1230  0.1380 -0.2026
  890YOPE   GL113169  15.279   4.501   5.851  0.3048 -0.3229 -0.0269
  890YOPE   GL213170  15.375   4.964   5.827 -0.0832  0.2263 -0.1781
  890YOPE   C1A13171  15.326   4.497   6.235 -0.1651 -0.1613 -0.1682
  890YOPE   D2A13172  15.095   4.329   6.544  0.0909 -0.2878 -0.2551
  890YOPE   C3A13173  15.103   4.074   6.976  0.0463  0.1725 -0.2030
  890YOPE   C4A13174  14.926   3.814   7.364 -0.0053  0.0629  0.2104
  890YOPE   C1B13175  15.265   5.008   6.224  0.1687  0.0911  0.1671
  890YOPE   C2B13176  15.228   4.815   6.593  0.1049 -0.1422  0.0716
  890YOPE   D3B13177  15.113   4.655   6.999 -0.2317  0.1917  0.1090
  890YOPE   C4B13178  15.039   4.350   7.439  0.0659 -0.3257  0.0383
  891YOPE   NH313179   5.350   1.373   4.951  0.0155  0.1945 -0.2432
  891YOPE   PO413180   5.509   1.044   4.964  0.2835  0.0874 -0.2768
  891YOPE   GL113181   5.666   0.787   5.332  0.0220 -0.4430  0.0881
  891YOPE   GL213182   5.597   0.504   5.298  0.0463  0.1305  0.3238
  891YOPE   C1A13183   5.945   0.914   5.726  0.0848 -0.1097  0.3279
  891YOPE   D2A13184   6.122   1.091   6.036 -0.0579 -0.0804 -0.2640
  891YOPE   C3A13185   5.858   1.375   6.278  0.0440  0.0894 -0.2295
  891YOPE   C4A13186   5.795   1.179   6.672  0.0385  0.1821  0.0119
  891YOPE   C1B13187   5.804   0.438   5.675 -0.2862  0.1274 -0.0540
  891YOPE   C2B13188   5.790   0.261   6.154  0.0384 -0.0350 -0.0255
  891YOPE   D3B13189   5.829   0.190   6.595  0.3136  0.1590  0.1792
  891YOPE   C4B13190   5.713   0.061   7.026  0.1242 -0.0264 -0.1329
  892YOPE   NH313191   7.744  10.877   4.938 -0.1751  0.0585  0.0021
  892YOPE   PO413192   8.141  10.803   5.165 -0.1963 -0.1025 -0.0904
  892YOPE   GL113193   7.888  10.821   5.526 -0.0743 -0.2362  0.2592
  892YOPE   GL213194   7.615  11.043   5.411 -0.0342  0.2407  0.1074
  892YOPE   C1A13195   7.889  11.076   5.822  0.0110 -0.1762  0.1071
  892YOPE   D2A13196   7.991  11.239   6.285  0.2120 -0.1468 -0.3563
  892YOPE   C3A13197   8.126  11.696   6.195  0.2147  0.0651  0.3093
  892YOPE   C4A13198   8.080  12.031   6.008 -0.2047  0.0036 -0.0030
  892YOPE   C1B13199   7.338  11.082   5.808  0.1860 -0.1749  0.2624
  892YOPE   C2B13200   7.168  10.688   5.998 -0.0880  0.1374 -0.0007
  892YOPE   D3B13201   7.005  10.262   6.005 -0.0493  0.0763 -0.2603
  892YOPE   C4B13202   6.615  10.077   5.796 -0.1054 -0.0704  0.2054
  893YOPE   NH313203  16.657  10.997   5.720  0.2157  0.1534 -0.2643
  893YOPE   PO413204  16.274  10.899   5.388  0.1832  0.1646 -0.0435
  893YOPE   GL113205  16.204  10.835   5.789 -0.0760 -0.2933 -0.2181
  893YOPE   GL213206  16.305  10.970   6.085 -0.3161 -0.1044  0.0820
  893YOPE   C1A13207  15.961  10.630   6.145 -0.0192  0.1216  0.0624
  893YOPE   D2A13208  15.615  10.363   6.223 -0.1893 -0.2164 -0.2285
  893YOPE   C3A13209  15.414  10.305   6.616 -0.1078 -0.3659  0.2334
  893YOPE   C4A13210  15.000  10.330   6.791 -0.0107  0.1446 -0.0449
  893YOPE   C1B13211  16.187  10.882   6.504  0.4234  0.0264  0.1235
  893YOPE   C2B13212  15.964  10.449   6.631 -0.0198 -0.1885  0.0064
  893YOPE   D3B13213  15.874  10.306   7.044 -0.1225  0.1430 -0.2101
  893YOPE   C4B13214  15.942  10.047   7.482  0.1225  0.3758  0.3008
  894YOPE   NH313215   6.540  12.655   5.857 -0.1824  0.0880 -0.3868
  894YOPE   PO413216   6.641  13.019   5.900  0.0410 -0.4189  0.0245
  894YOPE   GL113217   6.627  12.840   6.394 -0.0435 -0.2707 -0.1021
  894YOPE   GL213218   6.289  12.748   6.459  0.0119  0.2107  0.0523
  894YOPE   C1A13219   6.698  12.814   6.818  0.3611 -0.0179 -0.1547
  894YOPE   D2A13220   6.522  12.893   7.309  0.0775  0.0193  0.0064
  894YOPE   C3A13221   6.524  12.506   7.502 -0.5112 -0.2436  0.2688
  894YOPE   C4A13222   6.294  12.450   7.792 -0.1163 -0.0733 -0.1648
  894YOPE   C1B13223   6.246  12.599   6.921  0.1770  0.0366 -0.2558
  894YOPE   C2B13224   6.172  12.353   7.201 -0.1995 -0.1978  0.0225
  894YOPE   D3B13225   6.014  12.146   6.759  0.2381  0.2433 -0.1879
  894YOPE   C4B13226   5.940  11.947   6.376  0.1440 -0.2236  0.3267
  895YOPE   NH313227   4.440  18.291   5.199  0.1494  0.0952  0.1571
  895YOPE   PO413228   4.270  17.871   5.202 -0.2216 -0.1646  0.0738
  895YOPE   GL113229   4.051  17.577   5.519 -0.0680  0.1183  0.1480
  895YOPE   GL213230   3.875  17.331   5.327 -0.0257  0.1584 -0.1309
  895YOPE   C1A13231   4.154  17.621   5.943 -0.0120  0.3378 -0.1383
  895YOPE   D2A13232   4.241  18.058   6.123 -0.2511 -0.3193  0.0461
  895YOPE   C3A13233   4.314  18.162   6.607 -0.0710  0.1459 -0.2626
  895YOPE   C4A13234   4.460  18.131   7.023  0.2889  0.2679 -0.2902
  895YOPE   C1B13235   3.850  17.212   5.772 -0.0101 -0.0727  0.0612
  895YOPE   C2B13236   3.831  17.385   6.242  0.0964  0.2317 -0.1322
  895YOPE   D3B13237   3.895  17.201   6.734  0.0016 -0.2663 -0.0967
  895YOPE   C4B13238   3.923  16.841   6.978  0.0895 -0.0029 -0.0820
  896YOPE   NH313239  17.079   2.723   5.707 -0.1476 -0.0760  0.1828
  896YOPE   PO413240  16.676   2.695   5.488  0.4181  0.1485  0.3487
  896YOPE   GL113241  16.461   2.738   5.900  0.0053  0.2955 -0.0594
  896YOPE   GL213242  16.745   2.870   6.170 -0.1801 -0.0415 -0.1762
  896YOPE   C1A13243  16.325   2.411   6.276 -0.2301 -0.2027 -0.2744
  896YOPE   D2A13244  16.506   2.121   6.546  0.1284  0.0572  0.4054
  896YOPE   C3A13245  16.713   2.124   6.874  0.1057  0.0245  0.0081
  896YOPE   C4A13246  17.178   2.114   6.819  0.2105 -0.1979  0.0631
  896YOPE   C1B13247  16.940   3.058   6.410  0.1342  0.1996  0.0442
  896YOPE   C2B13248  17.087   3.329   6.533  0.0326 -0.1430  0.0053
  896YOPE   D3B13249  17.379   3.358   6.834  0.0529 -0.2399 -0.0697
  896YOPE   C4B13250  17.855   3.409   6.834  0.1296  0.2772  0.1004
  897YOPE   NH313251   1.508  18.926   5.352 -0.0396  0.1639  0.0266
  897YOPE   PO413252   1.160  19.174   5.357  0.0589  0.2256  0.0807
  897YOPE   GL113253   1.275  19.507   5.600 -0.3354  0.2045 -0.4359
  897YOPE   GL213254   1.493  19.225   5.781 -0.3506  0.0131 -0.1546
  897YOPE   C1A13255   1.315  19.948   5.781 -0.1705  0.0018 -0.4448
  897YOPE   D2A13256   1.303  20.309   6.057 -0.0450  0.1042  0.0012
  897YOPE   C3A13257   1.396  20.219   6.450  0.0233 -0.3197  0.1391
  897YOPE   C4A13258   1.314  20.203   6.856 -0.1156 -0.2437 -0.1503
  897YOPE   C1B13259   1.788  19.618   5.793  0.0203 -0.2309  0.0265
  897YOPE   C2B13260   1.736  19.986   6.058  0.1514  0.1906 -0.2946
  897YOPE   D3B13261   1.830  20.015   6.452  0.3253 -0.1814  0.1265
  897YOPE   C4B13262   1.781  20.029   6.850  0.1434 -0.1163 -0.1568
  898YOPE   NH313263   6.390   2.506   5.083  0.1181 -0.2472  0.0410
  898YOPE   PO413264   6.437   2.110   4.867  0.2253  0.2528  0.2385
  898YOPE   GL113265   6.566   2.057   5.315  0.2211  0.3024 -0.3691
  898YOPE   GL213266   6.768   1.828   5.395 -0.1286  0.0456 -0.0650
  898YOPE   C1A13267   6.589   2.277   5.699  0.1792 -0.2329 -0.1875
  898YOPE   D2A13268   6.894   2.392   6.123  0.0643  0.0627  0.0891
  898YOPE   C3A13269   6.765   2.471   6.629  0.2606  0.2034  0.2066
  898YOPE   C4A13270   6.666   2.665   7.022  0.1153 -0.0238 -0.1606
  898YOPE   C1B13271   6.957   1.875   5.722  0.0250 -0.1043 -0.2807
  898YOPE   C2B13272   6.990   1.848   6.176 -0.0703 -0.0663 -0.1079
  898YOPE   D3B13273   6.643   1.873   6.520  0.2249 -0.1954  0.1317
  898YOPE   C4B13274   6.189   1.734   6.640  0.0671  0.1413  0.0937
  899YOPE   NH313275   5.378   6.619   4.843 -0.0102  0.1690  0.0009
  899YOPE   PO413276   5.200   7.065   4.830  0.0336 -0.2100  0.1392
  899YOPE   GL113277   5.294   6.957   5.228 -0.2411 -0.2347 -0.0503
  899YOPE   GL213278   5.540   6.961   5.394  0.4074  0.0894 -0.0539
  899YOPE   C1A13279   5.083   6.954   5.675 -0.0248  0.0839  0.0032
  899YOPE   D2A13280   4.821   6.653   5.820  0.0713 -0.1769  0.1017
  899YOPE   C3A13281   4.751   6.427   6.294 -0.0965  0.0030 -0.0244
  899YOPE   C4A13282   4.622   6.331   6.670 -0.1459 -0.1771  0.0011
  899YOPE   C1B13283   5.513   7.094   5.887  0.1072  0.2108 -0.1652
  899YOPE   C2B13284   5.617   6.973   6.254 -0.1553 -0.2122  0.2416
  899YOPE   D3B13285   5.536   6.857   6.615  0.1121  0.1247  0.0214
  899YOPE   C4B13286   5.305   6.896   6.980 -0.1172 -0.0120 -0.2080
  900YOPE   NH313287  11.887   4.758   5.554 -0.2429 -0.0948 -0.2690
  900YOPE   PO413288  11.471   4.829   5.243  0.2211 -0.1931 -0.1964
  900YOPE   GL113289  11.305   4.670   5.532  0.1051  0.1890 -0.0594
  900YOPE   GL213290  10.943   4.674   5.491 -0.0986  0.1488  0.1334
  900YOPE   C1A13291  11.505   4.519   5.977 -0.0327 -0.0637 -0.0067
  900YOPE   D2A13292  11.643   4.654   6.287 -0.2215 -0.2842  0.1306
  900YOPE   C3A13293  11.492   4.866   6.600  0.0335 -0.0200 -0.0954
  900YOPE   C4A13294  11.538   4.824   7.052 -0.0365 -0.1236  0.3315
  900YOPE   C1B13295  10.638   4.556   5.830 -0.0661 -0.0733 -0.0054
  900YOPE   C2B13296  10.246   4.684   6.087  0.2242 -0.3552 -0.0123
  900YOPE   D3B13297   9.884   4.852   6.047  0.0550  0.1689 -0.0269
  900YOPE   C4B13298   9.657   5.018   5.719 -0.0825 -0.1225 -0.1421
  901YOPE   NH313299  11.403  17.415   5.398  0.0507  0.0993 -0.0463
  901YOPE   PO413300  11.747  17.513   5.574 -0.2092  0.1824  0.0567
  901YOPE   GL113301  11.544  17.447   5.930 -0.4889  0.0301 -0.2174
  901YOPE   GL213302  11.730  17.158   6.038 -0.0557 -0.2453  0.2082
  901YOPE   C1A13303  11.280  17.515   6.188 -0.3348 -0.0145  0.3182
  901YOPE   D2A13304  10.863  17.553   6.169 -0.3376 -0.4084 -0.2421
  901YOPE   C3A13305  10.799  17.580   6.660  0.1514  0.2330 -0.0320
  901YOPE   C4A13306  10.708  17.494   7.126 -0.0451  0.3140 -0.2112
  901YOPE   C1B13307  11.488  17.034   6.350  0.0472 -0.2184 -0.0794
  901YOPE   C2B13308  11.311  16.927   6.747 -0.0811  0.1557 -0.1352
  901YOPE   D3B13309  11.027  16.606   7.034  0.1726 -0.1829  0.0027
  901YOPE   C4B13310  10.800  16.451   7.314 -0.1669 -0.1526 -0.0973
  902YOPE   NH313311  13.825   2.382   5.837 -0.0991 -0.2908 -0.1126
  902YOPE   PO413312  14.052   2.122   5.628 -0.0084  0.1341  0.3154
  902YOPE   GL113313  14.121   1.983   6.059  0.0910 -0.1486 -0.0348
  902YOPE   GL213314  14.364   1.912   6.216  0.3070 -0.3075 -0.1824
  902YOPE   C1A13315  13.852   1.760   6.373  0.3180 -0.0942 -0.0453
  902YOPE   D2A13316  13.717   1.772   6.781  0.1551 -0.0570 -0.3832
  902YOPE   C3A13317  13.849   1.859   7.163  0.0148  0.1607  0.3686
  902YOPE   C4A13318  13.959   1.685   7.579 -0.3078  0.0282  0.0629
  902YOPE   C1B13319  14.501   2.178   6.556  0.1730  0.2238 -0.0010
  902YOPE   C2B13320  14.683   2.185   6.952  0.0421 -0.0962 -0.0547
  902YOPE   D3B13321  14.894   2.128   7.358  0.1486 -0.1051  0.0410
  902YOPE   C4B13322  14.850   1.617   7.495 -0.3081  0.3182  0.3920
  903YOPE   NH313323   6.140  10.818   5.140  0.1723  0.1015 -0.0658
  903YOPE   PO413324   5.809  10.709   5.181 -0.0860  0.4173  0.1876
  903YOPE   GL113325   5.671  10.983   5.458  0.2310  0.1355 -0.0089
  903YOPE   GL213326   5.932  11.061   5.566 -0.0234 -0.4119  0.3278
  903YOPE   C1A13327   5.587  11.146   5.970 -0.2176 -0.2289  0.1590
  903YOPE   D2A13328   5.377  11.068   6.348  0.0787  0.4700 -0.1649
  903YOPE   C3A13329   5.463  11.359   6.723 -0.3604 -0.1087  0.0311
  903YOPE   C4A13330   5.734  11.691   6.868  0.0677 -0.2989  0.2193
  903YOPE   C1B13331   6.060  11.058   5.970  0.2667  0.4226 -0.2010
  903YOPE   C2B13332   6.251  10.834   6.438 -0.2784  0.0631  0.0728
  903YOPE   D3B13333   6.398  10.508   6.686  0.1375  0.0952  0.0892
  903YOPE   C4B13334   6.355  10.040   6.800  0.1976  0.0417  0.0433
  904YOPE   NH313335  10.203   7.698   5.100 -0.0420 -0.5203  0.0897
  904YOPE   PO413336   9.747   7.590   4.995 -0.0244  0.0528  0.4007
  904YOPE   GL113337   9.677   7.447   5.393 -0.0416 -0.0240 -0.0486
  904YOPE   GL213338  10.045   7.251   5.463  0.0319 -0.1881  0.0939
  904YOPE   C1A13339   9.443   7.644   5.722 -0.2027  0.1371  0.2487
  904YOPE   D2A13340   9.443   7.478   6.164 -0.1834  0.0399 -0.2174
  904YOPE   C3A13341   9.554   7.086   6.400 -0.0766  0.0131 -0.0695
  904YOPE   C4A13342   9.460   6.776   6.577  0.0130  0.1293 -0.0327
  904YOPE   C1B13343  10.300   7.272   5.877  0.1269  0.0718 -0.0689
  904YOPE   C2B13344  10.368   7.466   6.275  0.0899  0.2051  0.1730
  904YOPE   D3B13345  10.689   7.115   6.468  0.2658 -0.0355 -0.4064
  904YOPE   C4B13346  10.739   7.048   6.783 -0.2689 -0.1382  0.1088
  905YOPE   NH313347   6.703  14.740   5.642  0.0246 -0.1582  0.0912
  905YOPE   PO413348   6.350  14.504   5.574  0.3125  0.1034  0.1371
  905YOPE   GL113349   6.376  14.709   6.003  0.0126  0.0660  0.1203
  905YOPE   GL213350   6.645  14.818   6.218 -0.1270  0.0239 -0.3816
  905YOPE   C1A13351   6.218  14.572   6.451  0.4192 -0.3211 -0.3385
  905YOPE   D2A13352   5.845  14.784   6.664 -0.3592 -0.1367  0.0143
  905YOPE   C3A13353   5.782  14.742   7.049  0.2721 -0.1369 -0.1033
  905YOPE   C4A13354   5.979  14.523   7.272  0.0177 -0.3309  0.0582
  905YOPE   C1B13355   6.313  15.029   6.404 -0.0844  0.1279 -0.0653
  905YOPE   C2B13356   6.079  15.255   6.665  0.0073  0.0446  0.1803
  905YOPE   D3B13357   5.982  15.300   7.120 -0.3260  0.3766 -0.5112
  905YOPE   C4B13358   6.182  15.336   7.463  0.0130 -0.1184  0.0185
  906YOPE   NH313359   9.233   1.479   4.590  0.2709  0.2096 -0.1585
  906YOPE   PO413360   9.172   1.130   4.708  0.2018 -0.3114 -0.2767
  906YOPE   GL113361   9.190   1.279   5.102  0.1555 -0.2782  0.0291
  906YOPE   GL213362   8.997   1.261   5.191 -0.0741  0.2536  0.2101
  906YOPE   C1A13363   9.543   1.175   5.431  0.0912  0.2594  0.4496
  906YOPE   D2A13364   9.939   1.423   5.512 -0.4448 -0.0555 -0.0905
  906YOPE   C3A13365  10.021   1.908   5.627  0.1221 -0.0049 -0.1089
  906YOPE   C4A13366  10.136   2.218   5.962  0.2355 -0.1269  0.1852
  906YOPE   C1B13367   8.785   1.336   5.522 -0.0186  0.1575 -0.3695
  906YOPE   C2B13368   8.716   1.307   5.928  0.2922 -0.0565 -0.0891
  906YOPE   D3B13369   8.821   1.540   6.323  0.5212  0.0497  0.0967
  906YOPE   C4B13370   9.085   1.730   6.688  0.0662  0.1477  0.0146
  907YOPE   NH313371  15.491  18.463   5.471 -0.0245  0.2818  0.0337
  907YOPE   PO413372  15.088  18.370   5.446 -0.0831 -0.1614 -0.0641
  907YOPE   GL113373  15.113  18.617   5.794  0.1450 -0.1508  0.2826
  907YOPE   GL213374  15.429  18.881   5.805  0.1153  0.0928  0.1909
  907YOPE   C1A13375  14.954  18.597   6.226  0.1207 -0.3008 -0.3017
  907YOPE   D2A13376  14.909  18.537   6.712  0.0370 -0.1037  0.1963
  907YOPE   C3A13377  15.208  18.606   6.997 -0.3429 -0.0580  0.0790
  907YOPE   C4A13378  15.426  18.785   7.313  0.0568 -0.1466  0.0513
  907YOPE   C1B13379  15.713  18.696   6.113  0.2413 -0.3647  0.0967
  907YOPE   C2B13380  15.951  18.737   6.514 -0.0117 -0.1560  0.1993
  907YOPE   D3B13381  16.115  19.043   6.646 -0.0698 -0.2276 -0.2163
  907YOPE   C4B13382  16.293  19.411   6.723 -0.1808  0.0264  0.0036
  908YOPE   NH313383  11.551  16.560   5.634 -0.1422  0.0535 -0.0818
  908YOPE   PO413384  11.103  16.577   5.547 -0.1760  0.0274  0.0012
  908YOPE   GL113385  11.065  16.582   5.928 -0.0750  0.1157 -0.0594
  908YOPE   GL213386  11.271  16.526   6.169 -0.0656 -0.2966  0.1311
  908YOPE   C1A13387  10.674  16.404   6.149  0.0176 -0.0788  0.1501
  908YOPE   D2A13388  10.588  16.061   6.487  0.1658  0.4475 -0.1026
  908YOPE   C3A13389  10.685  16.072   6.937 -0.0276  0.2630  0.1346
  908YOPE   C4A13390  11.075  16.089   7.220 -0.0859  0.1695  0.2127
  908YOPE   C1B13391  11.077  16.538   6.509 -0.0779 -0.1518  0.1370
  908YOPE   C2B13392  10.634  16.507   6.729  0.1865  0.1866  0.1572
  908YOPE   D3B13393  10.210  16.669   6.950 -0.1898 -0.1008 -0.0447
  908YOPE   C4B13394   9.951  16.896   6.893  0.2044  0.0688 -0.0869
  909YOPE   NH313395  14.601   7.974   5.800 -0.1862  0.0154 -0.0598
  909YOPE   PO413396  14.124   7.990   5.752  0.3118 -0.1738  0.2670
  909YOPE   GL113397  14.108   7.695   6.073  0.3689  0.2097  0.0650
  909YOPE   GL213398  13.906   7.570   5.897 -0.2892 -0.1155  0.0040
  909YOPE   C1A13399  14.153   7.588   6.485 -0.3136  0.2674  0.3684
  909YOPE   D2A13400  14.455   7.456   6.801  0.0660  0.0512  0.0230
  909YOPE   C3A13401  14.562   7.265   6.493 -0.1450 -0.0405  0.1937
  909YOPE   C4A13402  14.484   7.154   6.160  0.1527 -0.0595 -0.2768
  909YOPE   C1B13403  14.033   7.245   6.179 -0.0185  0.0791 -0.3140
  909YOPE   C2B13404  14.059   7.146   6.459  0.1318  0.0608  0.2781
  909YOPE   D3B13405  14.068   7.113   6.775  0.4404 -0.2820 -0.0590
  909YOPE   C4B13406  14.133   7.195   7.150  0.1723 -0.1696 -0.1494
  910YOPE   NH313407  14.823   6.603   5.397  0.2503 -0.2151 -0.0921
  910YOPE   PO413408  15.168   6.369   5.365 -0.0663 -0.0475  0.1852
  910YOPE   GL113409  15.336   6.084   5.646 -0.0964 -0.0927 -0.1984
  910YOPE   GL213410  15.400   5.701   5.747  0.1516 -0.0063  0.0310
  910YOPE   C1A13411  15.539   6.173   6.164  0.2620 -0.1785  0.1257
  910YOPE   D2A13412  15.888   6.217   6.336 -0.0052 -0.3100 -0.1980
  910YOPE   C3A13413  15.909   6.068   6.754  0.2796  0.2888 -0.0162
  910YOPE   C4A13414  15.738   5.951   7.146 -0.1702  0.2487  0.0383
  910YOPE   C1B13415  15.648   5.699   6.059 -0.3698 -0.2621 -0.4495
  910YOPE   C2B13416  15.973   5.700   6.388  0.2062  0.1466  0.0390
  910YOPE   D3B13417  15.923   5.555   6.687  0.1084  0.3230  0.1022
  910YOPE   C4B13418  15.696   5.474   6.985  0.1707  0.0732  0.3841
  911YOPE   NH313419   8.582  18.148   5.173  0.2627 -0.0632 -0.0043
  911YOPE   PO413420   8.275  18.420   4.917 -0.2748 -0.1018 -0.1920
  911YOPE   GL113421   8.460  18.684   5.320  0.1513  0.1575 -0.0597
  911YOPE   GL213422   8.782  18.470   5.452  0.1815 -0.2440  0.0846
  911YOPE   C1A13423   8.435  18.930   5.748  0.1564  0.2895  0.1810
  911YOPE   D2A13424   8.576  18.771   6.253 -0.0789 -0.0619  0.2557
  911YOPE   C3A13425   8.557  18.968   6.698 -0.1876  0.1932  0.4683
  911YOPE   C4A13426   8.705  19.391   6.906 -0.2725 -0.0507 -0.2449
  911YOPE   C1B13427   8.938  18.476   5.804 -0.1259 -0.0272 -0.2047
  911YOPE   C2B13428   8.981  18.557   6.250  0.0679  0.0356  0.2766
  911YOPE   D3B13429   8.979  18.571   6.742 -0.2228 -0.1047 -0.0110
  911YOPE   C4B13430   9.332  18.640   7.112 -0.2347 -0.0964 -0.0646
  912YOPE   NH313431  11.545   5.387   5.121  0.2413 -0.3776  0.0968
  912YOPE   PO413432  11.827   5.222   5.357 -0.1281  0.1965 -0.1816
  912YOPE   GL113433  11.461   5.116   5.666  0.0230  0.2934 -0.1726
  912YOPE   GL213434  11.600   5.062   5.954 -0.0556  0.3260 -0.1923
  912YOPE   C1A13435  11.121   4.836   5.949  0.5129 -0.0015  0.0361
  912YOPE   D2A13436  10.879   4.797   6.310  0.1973  0.1633 -0.3788
  912YOPE   C3A13437  10.745   5.037   6.645  0.2260 -0.0758  0.0599
  912YOPE   C4A13438  10.775   4.981   7.113 -0.1399  0.0458  0.1122
  912YOPE   C1B13439  11.624   5.216   6.331 -0.2541 -0.2694 -0.0558
  912YOPE   C2B13440  11.881   5.282   6.576  0.0854 -0.0187 -0.2522
  912YOPE   D3B13441  11.965   5.100   7.000  0.1821  0.0393 -0.3718
  912YOPE   C4B13442  11.962   5.302   7.436  0.0443  0.0825 -0.0014
  913YOPE   NH313443   7.332   5.604   4.711 -0.0391 -0.0859  0.0258
  913YOPE   PO413444   7.700   5.311   4.677  0.0058  0.0570 -0.0947
  913YOPE   GL113445   7.696   5.097   5.053 -0.2403 -0.0559 -0.3831
  913YOPE   GL213446   7.812   5.239   5.264 -0.1666  0.1487 -0.2627
  913YOPE   C1A13447   7.672   4.715   5.292 -0.0854 -0.2852 -0.1186
  913YOPE   D2A13448   7.804   4.474   5.668 -0.1813  0.2769 -0.3272
  913YOPE   C3A13449   7.603   4.714   5.943  0.0926  0.0916  0.1746
  913YOPE   C4A13450   7.554   4.897   6.370  0.0736 -0.0282  0.1191
  913YOPE   C1B13451   7.723   5.098   5.636 -0.0096  0.0376 -0.0682
  913YOPE   C2B13452   7.847   5.318   5.964  0.1969  0.0507 -0.0044
  913YOPE   D3B13453   7.861   5.451   6.395 -0.0423 -0.2641  0.2697
  913YOPE   C4B13454   7.703   5.487   6.898  0.1209 -0.1488  0.0447
  914YOPE   NH313455  17.378   5.387   5.309  0.1427 -0.1021  0.0574
  914YOPE   PO413456  17.806   5.289   5.206 -0.1630 -0.1442 -0.1034
  914YOPE   GL113457  17.592   5.109   5.622  0.1680 -0.3005 -0.1344
  914YOPE   GL213458  17.345   5.067   5.703  0.0133  0.3761 -0.0882
  914YOPE   C1A13459  17.745   4.854   5.935  0.0058  0.1470 -0.5625
  914YOPE   D2A13460  17.949   4.596   6.215  0.3725 -0.1136 -0.0597
  914YOPE   C3A13461  17.939   4.083   6.295 -0.0978 -0.3291 -0.3380
  914YOPE   C4A13462  17.790   3.708   6.442 -0.1608 -0.1531 -0.1218
  914YOPE   C1B13463  17.359   5.207   6.093 -0.3672 -0.0946 -0.0555
  914YOPE   C2B13464  17.455   5.235   6.538 -0.0283 -0.1957 -0.2104
  914YOPE   D3B13465  17.713   5.236   6.851 -0.1994  0.0592  0.1035
  914YOPE   C4B13466  17.810   5.080   7.293  0.1557  0.0677  0.0320
  915YOPE   NH313467   2.548  16.335   5.613 -0.0956 -0.0976 -0.0308
  915YOPE   PO413468   2.801  16.028   5.531  0.1425  0.3187 -0.1200
  915YOPE   GL113469   3.001  16.223   5.769 -0.1132 -0.3206  0.1697
  915YOPE   GL213470   3.038  16.541   5.850 -0.1218 -0.1139 -0.0184
  915YOPE   C1A13471   2.998  16.194   6.210 -0.0584  0.1866  0.1508
  915YOPE   D2A13472   3.124  16.187   6.651  0.2958 -0.0066 -0.3580
  915YOPE   C3A13473   3.503  16.053   6.974 -0.3272  0.2027 -0.1506
  915YOPE   C4A13474   3.829  16.123   7.242 -0.1716  0.2046 -0.0984
  915YOPE   C1B13475   2.792  16.678   6.229 -0.0231  0.1593  0.0275
  915YOPE   C2B13476   2.809  16.688   6.634  0.2073  0.1195 -0.4312
  915YOPE   D3B13477   2.615  16.419   6.892 -0.0426  0.0225 -0.2851
  915YOPE   C4B13478   2.334  16.563   7.278  0.1433  0.1025  0.1874
  916YOPE   NH313479   6.365   6.380   4.491  0.0057 -0.0544 -0.1655
  916YOPE   PO413480   6.474   6.521   4.902  0.2819  0.2938  0.3202
  916YOPE   GL113481   6.327   6.697   5.387 -0.1446  0.1351 -0.0347
  916YOPE   GL213482   6.215   7.012   5.488 -0.0838 -0.0898 -0.1781
  916YOPE   C1A13483   6.421   6.548   5.760  0.1818  0.4071  0.3203
  916YOPE   D2A13484   6.475   6.371   6.183  0.2185 -0.1495 -0.1545
  916YOPE   C3A13485   6.446   6.513   6.601  0.1785  0.2076 -0.1360
  916YOPE   C4A13486   6.166   6.519   6.923  0.2055  0.1709 -0.1734
  916YOPE   C1B13487   6.372   7.066   5.852 -0.0752  0.1014  0.1112
  916YOPE   C2B13488   6.491   7.014   6.219 -0.0641 -0.1653 -0.0309
  916YOPE   D3B13489   6.692   7.136   6.586  0.1068  0.1491 -0.2239
  916YOPE   C4B13490   7.032   7.094   6.929  0.1519 -0.1902 -0.1059
  917YOPE   NH313491   4.299  14.429   5.697  0.3027 -0.0582 -0.4446
  917YOPE   PO413492   3.881  14.491   5.608 -0.1509 -0.1158  0.0605
  917YOPE   GL113493   3.868  14.513   6.064  0.2303 -0.6700  0.0825
  917YOPE   GL213494   4.133  14.490   6.167 -0.2189  0.0361 -0.4713
  917YOPE   C1A13495   3.664  14.694   6.372  0.0951  0.0930  0.1192
  917YOPE   D2A13496   3.369  14.987   6.629  0.2634  0.1830 -0.1868
  917YOPE   C3A13497   3.472  15.250   6.413 -0.0953 -0.0454  0.1758
  917YOPE   C4A13498   3.560  15.674   6.145  0.3363  0.1034 -0.0824
  917YOPE   C1B13499   4.037  14.457   6.606 -0.0980 -0.2115 -0.0499
  917YOPE   C2B13500   3.972  14.199   7.002  0.3875  0.0160  0.0893
  917YOPE   D3B13501   3.826  14.367   7.435 -0.0355  0.0185 -0.3157
  917YOPE   C4B13502   3.438  14.175   7.666  0.2652  0.1687  0.1297
  918YOPE   NH313503  10.888  14.463   5.143 -0.0737 -0.3772  0.1084
  918YOPE   PO413504  10.535  14.748   5.264 -0.1785  0.0313 -0.0734
  918YOPE   GL113505  10.529  14.321   5.471 -0.0418 -0.0856 -0.3514
  918YOPE   GL213506  10.467  14.203   5.790  0.0431 -0.1773 -0.1003
  918YOPE   C1A13507  10.844  13.986   5.602  0.2286  0.1264 -0.2420
  918YOPE   D2A13508  10.655  13.712   5.887 -0.1528  0.4478  0.1159
  918YOPE   C3A13509  11.031  13.621   6.036  0.0452  0.2143 -0.1190
  918YOPE   C4A13510  10.984  13.286   6.232  0.0531 -0.1263 -0.1671
  918YOPE   C1B13511  10.346  14.022   6.222 -0.2729  0.0566  0.1453
  918YOPE   C2B13512  10.368  13.929   6.701 -0.2923  0.0289 -0.1573
  918YOPE   D3B13513  10.343  13.599   6.943  0.2369 -0.0027  0.1042
  918YOPE   C4B13514  10.405  13.707   7.284 -0.0997 -0.0614 -0.4016
  919YOPE   NH313515  17.442   7.758   5.636 -0.0449  0.0469 -0.1357
  919YOPE   PO413516  17.850   7.511   5.589 -0.3993 -0.1497  0.0104
  919YOPE   GL113517  17.915   7.354   6.008 -0.2744 -0.2321 -0.0855
  919YOPE   GL213518  18.257   7.335   5.968 -0.0892  0.0285  0.2454
  919YOPE   C1A13519  17.975   7.571   6.407 -0.0798  0.2709  0.0537
  919YOPE   D2A13520  18.118   7.663   6.847 -0.2145 -0.0461  0.0651
  919YOPE   C3A13521  18.483   7.854   6.807  0.0188  0.2190  0.0463
  919YOPE   C4A13522  18.861   7.889   6.953 -0.2344  0.2279 -0.1111
  919YOPE   C1B13523  18.467   7.009   6.286  0.4368 -0.2546  0.0577
  919YOPE   C2B13524  18.397   6.694   6.595 -0.2469  0.0594  0.1719
  919YOPE   D3B13525  18.480   6.353   6.837 -0.0272 -0.0050  0.0068
  919YOPE   C4B13526  18.527   6.027   7.003  0.1066 -0.0530 -0.1199
  920YOPE   NH313527  16.835   7.394   5.806  0.2085  0.1292  0.1869
  920YOPE   PO413528  16.486   7.376   5.515  0.0338  0.1027  0.2390
  920YOPE   GL113529  16.315   7.319   5.906  0.0586  0.0963  0.2357
  920YOPE   GL213530  16.483   7.578   6.111 -0.3736 -0.1903 -0.1116
  920YOPE   C1A13531  16.325   6.876   6.247 -0.3137 -0.0172  0.0940
  920YOPE   D2A13532  16.208   6.571   6.456  0.0868 -0.0055  0.1386
  920YOPE   C3A13533  15.961   6.544   6.877 -0.0620 -0.1228  0.2461
  920YOPE   C4A13534  15.603   6.441   7.022 -0.2041  0.0713 -0.1447
  920YOPE   C1B13535  16.559   7.387   6.362 -0.1134  0.2997  0.0280
  920YOPE   C2B13536  16.372   7.406   6.767 -0.1036 -0.1822  0.1318
  920YOPE   D3B13537  16.247   7.317   7.145 -0.0689  0.1081 -0.0010
  920YOPE   C4B13538  16.152   7.371   7.499  0.2983  0.1078  0.0433
  921YOPE   NH313539   8.410  15.419   5.786 -0.2308  0.2012 -0.0066
  921YOPE   PO413540   8.801  15.593   5.836  0.0017 -0.4196 -0.0070
  921YOPE   GL113541   8.752  15.731   6.142  0.1523  0.0836 -0.4379
  921YOPE   GL213542   9.099  15.839   6.195  0.1400  0.3868 -0.0673
  921YOPE   C1A13543   8.694  15.660   6.567  0.3275 -0.0418  0.1965
  921YOPE   D2A13544   8.503  15.411   6.844 -0.1424  0.1061 -0.0909
  921YOPE   C3A13545   8.769  15.372   7.211  0.0259  0.1090 -0.1184
  921YOPE   C4A13546   8.794  15.201   7.633 -0.0306 -0.3098  0.4018
  921YOPE   C1B13547   8.973  16.066   6.595  0.1252  0.2874  0.0018
  921YOPE   C2B13548   9.028  16.408   6.791  0.2354 -0.1773  0.0523
  921YOPE   D3B13549   8.851  16.691   6.950  0.2012 -0.0597  0.0774
  921YOPE   C4B13550   8.439  16.706   7.079 -0.2126  0.2382  0.0016
  922YOPE   NH313551   9.437   4.686   4.819 -0.0810  0.0517  0.2344
  922YOPE   PO413552   9.030   4.538   4.573 -0.1154 -0.0276  0.1796
  922YOPE   GL113553   8.748   4.656   4.855 -0.3364  0.0792 -0.1397
  922YOPE   GL213554   8.569   4.947   4.956  0.1987 -0.0621  0.0365
  922YOPE   C1A13555   8.599   4.492   5.254 -0.1245  0.0046 -0.0397
  922YOPE   D2A13556   8.230   4.396   5.401 -0.1525  0.3121  0.1715
  922YOPE   C3A13557   8.203   4.257   5.915  0.0249  0.4143 -0.0394
  922YOPE   C4A13558   8.569   4.190   6.230  0.3890  0.0097 -0.0840
  922YOPE   C1B13559   8.881   4.972   5.304 -0.2129 -0.2462  0.1918
  922YOPE   C2B13560   9.088   4.805   5.708 -0.0773  0.3140 -0.0876
  922YOPE   D3B13561   9.254   5.080   6.038 -0.1225 -0.1610  0.0844
  922YOPE   C4B13562   9.270   5.124   6.441  0.1310  0.1894  0.0089
  923YOPE   NH313563   1.333  12.656   5.771  0.0277  0.1100  0.0216
  923YOPE   PO413564   1.089  12.849   5.605  0.2814  0.2405  0.1141
  923YOPE   GL113565   0.979  12.831   6.061  0.1259 -0.2092 -0.1628
  923YOPE   GL213566   1.274  12.850   6.262  0.1366  0.1974  0.0964
  923YOPE   C1A13567   0.897  12.585   6.428 -0.1050 -0.0382 -0.0471
  923YOPE   D2A13568   1.039  12.763   6.816 -0.4636  0.1225 -0.2095
  923YOPE   C3A13569   0.708  12.814   7.155 -0.0616 -0.0399  0.0472
  923YOPE   C4A13570   0.613  13.200   7.434 -0.0508 -0.0296  0.1913
  923YOPE   C1B13571   1.452  12.740   6.557 -0.2794 -0.2209  0.2976
  923YOPE   C2B13572   1.676  12.454   6.797  0.1960 -0.0190  0.1057
  923YOPE   D3B13573   1.908  12.060   6.899  0.0519 -0.3761  0.1679
  923YOPE   C4B13574   1.864  11.708   7.116  0.2461 -0.0360 -0.1967
  924YOPE   NH313575   0.284   7.277   5.194  0.1698  0.0018  0.1981
  924YOPE   PO413576   0.657   7.082   5.443 -0.1408  0.1293  0.2001
  924YOPE   GL113577   0.929   6.808   5.734  0.3628 -0.0576 -0.0378
  924YOPE   GL213578   0.943   6.584   5.806  0.4400 -0.0057  0.0628
  924YOPE   C1A13579   1.332   6.960   5.976  0.0162 -0.0417 -0.1889
  924YOPE   D2A13580   1.551   7.007   6.347 -0.0690  0.1972  0.1143
  924YOPE   C3A13581   1.869   6.840   6.531 -0.1362  0.5347  0.0098
  924YOPE   C4A13582   2.083   6.624   6.266 -0.3997 -0.3011  0.1097
  924YOPE   C1B13583   1.065   6.622   6.197 -0.4439  0.0511 -0.0330
  924YOPE   C2B13584   1.110   6.641   6.562  0.0846  0.0806 -0.0247
  924YOPE   D3B13585   1.348   6.755   6.901  0.3235  0.0258  0.3238
  924YOPE   C4B13586   1.615   6.695   7.253  0.2353 -0.1717 -0.2085
  925YOPE   NH313587  12.793  13.086   5.411  0.0548  0.1225  0.0064
  925YOPE   PO413588  12.330  13.058   5.387  0.0112  0.0269 -0.1509
  925YOPE   GL113589  12.396  13.046   5.843 -0.1560 -0.0615 -0.1847
  925YOPE   GL213590  12.188  12.923   6.034 -0.1162 -0.0063  0.3371
  925YOPE   C1A13591  12.415  13.370   6.045  0.2717  0.0704  0.2475
  925YOPE   D2A13592  12.351  13.784   6.138 -0.0816  0.2238 -0.1502
  925YOPE   C3A13593  12.231  13.833   6.412  0.0700 -0.0803 -0.1726
  925YOPE   C4A13594  12.298  14.051   6.789  0.3592 -0.0360 -0.0159
  925YOPE   C1B13595  12.307  12.931   6.406  0.3894 -0.3032 -0.0741
  925YOPE   C2B13596  12.225  12.998   6.852  0.1358 -0.1156  0.1133
  925YOPE   D3B13597  12.057  13.024   7.288 -0.2803 -0.1906  0.1682
  925YOPE   C4B13598  11.780  13.117   7.663 -0.0284  0.6956 -0.0792
  926YOPE   NH313599  13.622  14.231   5.440 -0.0482 -0.0554  0.1610
  926YOPE   PO413600  14.054  14.229   5.361 -0.0011 -0.1746 -0.0255
  926YOPE   GL113601  13.991  14.132   5.785  0.1753 -0.3387  0.0857
  926YOPE   GL213602  13.641  14.192   5.945 -0.1791  0.0776  0.0289
  926YOPE   C1A13603  14.166  13.895   6.136  0.0420  0.2058  0.0663
  926YOPE   D2A13604  14.391  13.818   6.528  0.2479 -0.3404  0.0746
  926YOPE   C3A13605  14.573  13.349   6.596  0.1083 -0.0478 -0.0896
  926YOPE   C4A13606  14.618  13.001   6.914 -0.1739  0.0500 -0.0575
  926YOPE   C1B13607  13.690  14.025   6.306 -0.0694  0.0027  0.1868
  926YOPE   C2B13608  13.568  13.980   6.745 -0.0015  0.0068  0.0595
  926YOPE   D3B13609  13.753  14.070   7.189 -0.2939 -0.0789  0.0660
  926YOPE   C4B13610  13.856  14.121   7.633  0.0776 -0.0181  0.3288
  927YOPE   NH313611  18.834   6.386   5.625  0.3641  0.2232  0.0412
  927YOPE   PO413612  18.960   5.878   5.628  0.0720 -0.1463 -0.1281
  927YOPE   GL113613  18.719   6.032   5.981 -0.0558  0.2460  0.0801
  927YOPE   GL213614  18.470   6.076   5.961 -0.0785 -0.1476 -0.2073
  927YOPE   C1A13615  18.629   5.850   6.400 -0.0070  0.2820 -0.1580
  927YOPE   D2A13616  18.460   5.694   6.652 -0.2014  0.3792  0.1043
  927YOPE   C3A13617  18.300   5.556   7.070  0.1570 -0.1597  0.4595
  927YOPE   C4A13618  18.217   5.876   7.397 -0.1136  0.3875  0.0734
  927YOPE   C1B13619  18.174   6.141   6.150  0.1189 -0.1959  0.0411
  927YOPE   C2B13620  17.956   6.447   6.408 -0.0706 -0.0557 -0.1483
  927YOPE   D3B13621  17.989   6.627   6.824 -0.3384 -0.1058 -0.1724
  927YOPE   C4B13622  17.680   6.540   7.136 -0.0324 -0.1373  0.1964
  928YOPE   NH313623  19.314  11.622   5.691 -0.0014  0.0568 -0.2583
  928YOPE   PO413624  18.961  11.707   5.583  0.0441  0.1850  0.3183
  928YOPE   GL113625  18.862  11.607   5.918  0.2151 -0.1445  0.2587
  928YOPE   GL213626  18.880  11.245   5.849 -0.1074  0.2042 -0.0652
  928YOPE   C1A13627  18.727  11.597   6.462  0.2042 -0.2657  0.0750
  928YOPE   D2A13628  18.711  11.578   6.888  0.1257 -0.0259  0.4913
  928YOPE   C3A13629  18.900  11.330   7.187 -0.1434  0.1347 -0.2047
  928YOPE   C4A13630  18.808  11.209   7.508 -0.1484 -0.5034  0.0046
  928YOPE   C1B13631  18.865  11.129   6.208 -0.2317 -0.1051 -0.0945
  928YOPE   C2B13632  18.934  11.128   6.652 -0.1303  0.0693 -0.0523
  928YOPE   D3B13633  19.156  10.945   6.909  0.0817  0.1439  0.0467
  928YOPE   C4B13634  19.336  10.803   7.267  0.0490  0.0361 -0.1207
  929YOPE   NH313635  13.124   4.149   5.376 -0.1221 -0.0591 -0.1782
  929YOPE   PO413636  13.403   4.580   5.310  0.0978  0.1634 -0.0019
  929YOPE   GL113637  13.471   4.572   5.737  0.2618 -0.2151 -0.0888
  929YOPE   GL213638  13.202   4.378   5.869  0.2558 -0.1017  0.1552
  929YOPE   C1A13639  13.590   4.285   6.148 -0.1260  0.0332 -0.1867
  929YOPE   D2A13640  13.544   4.221   6.582  0.1773  0.0649 -0.2413
  929YOPE   C3A13641  13.630   4.433   6.882 -0.0566 -0.0208 -0.2051
  929YOPE   C4A13642  13.795   4.564   7.212  0.0561 -0.2228 -0.2352
  929YOPE   C1B13643  13.113   4.336   6.360 -0.2410 -0.3094  0.1303
  929YOPE   C2B13644  13.061   4.321   6.834 -0.1870 -0.3711  0.0975
  929YOPE   D3B13645  13.319   4.270   7.232  0.0437 -0.0092 -0.2415
  929YOPE   C4B13646  13.500   4.448   7.581  0.0269  0.1822 -0.0029
  930YOPE   NH313647  16.919  15.783   5.656 -0.0958 -0.1839 -0.0325
  930YOPE   PO413648  16.526  15.827   5.513  0.0560 -0.2884 -0.2613
  930YOPE   GL113649  16.520  15.728   6.010  0.1332 -0.0292  0.0631
  930YOPE   GL213650  16.221  15.880   6.174 -0.0422 -0.0303 -0.0077
  930YOPE   C1A13651  16.490  15.368   6.380  0.1709 -0.2657 -0.0325
  930YOPE   D2A13652  16.446  15.219   6.800 -0.2929 -0.2204  0.2489
  930YOPE   C3A13653  16.357  15.115   7.165  0.1091  0.2620  0.0708
  930YOPE   C4A13654  16.533  15.037   7.451 -0.3261  0.3140  0.5999
  930YOPE   C1B13655  16.272  15.750   6.566  0.0487  0.0957 -0.1478
  930YOPE   C2B13656  16.210  15.646   7.012 -0.2609 -0.0727 -0.4829
  930YOPE   D3B13657  16.205  15.548   7.401 -0.5725  0.0269 -0.1732
  930YOPE   C4B13658  16.455  15.404   7.812 -0.1026  0.2532  0.0709
  931YOPE   NH313659   2.266  11.180   5.464 -0.1353 -0.0815  0.0763
  931YOPE   PO413660   1.880  11.266   5.593 -0.0054 -0.0627  0.0937
  931YOPE   GL113661   2.084  11.191   5.946 -0.2098  0.1793  0.1030
  931YOPE   GL213662   2.300  11.330   5.961 -0.2941  0.0468  0.3432
  931YOPE   C1A13663   2.116  11.233   6.392  0.1690 -0.0280 -0.0624
  931YOPE   D2A13664   1.985  11.178   6.785  0.0560 -0.1822  0.1094
  931YOPE   C3A13665   2.120  11.067   7.179  0.1472 -0.3486 -0.0517
  931YOPE   C4A13666   2.469  10.915   7.372  0.0312 -0.0048  0.2336
  931YOPE   C1B13667   2.674  11.260   6.090 -0.0915 -0.0818 -0.4273
  931YOPE   C2B13668   2.847  11.449   6.408 -0.0351 -0.0954  0.0248
  931YOPE   D3B13669   2.985  11.503   6.824  0.1741  0.3009  0.3251
  931YOPE   C4B13670   3.170  11.773   7.231 -0.1304 -0.0718 -0.2979
  932YOPE   NH313671  11.538   2.425   5.276  0.1213 -0.3831 -0.1259
  932YOPE   PO413672  12.011   2.439   5.369 -0.2243  0.0964  0.0788
  932YOPE   GL113673  11.762   2.623   5.685  0.0113 -0.0072 -0.1046
  932YOPE   GL213674  12.096   2.714   5.794  0.2994 -0.3106  0.1227
  932YOPE   C1A13675  11.563   2.608   5.994  0.0816  0.1613  0.1952
  932YOPE   D2A13676  11.353   2.323   6.262 -0.0033 -0.1481  0.3143
  932YOPE   C3A13677  11.304   2.191   6.626 -0.0524  0.1164 -0.0262
  932YOPE   C4A13678  10.873   2.024   6.715  0.1250 -0.0172  0.4266
  932YOPE   C1B13679  11.966   2.786   6.222 -0.0218 -0.1132 -0.0223
  932YOPE   C2B13680  11.507   2.717   6.535  0.0361 -0.2774  0.1385
  932YOPE   D3B13681  11.267   3.004   6.648 -0.0808 -0.0929 -0.1668
  932YOPE   C4B13682  11.005   2.943   6.956 -0.2247  0.0488 -0.2150
  933YOPE   NH313683   2.114   6.760   4.585 -0.0104  0.1857 -0.1709
  933YOPE   PO413684   1.829   6.901   4.941  0.0726  0.0230 -0.0224
  933YOPE   GL113685   1.953   6.837   5.411  0.0764  0.0426 -0.0700
  933YOPE   GL213686   1.728   6.852   5.572 -0.2507  0.0239 -0.2597
  933YOPE   C1A13687   2.171   6.742   5.708  0.0036 -0.0955  0.0646
  933YOPE   D2A13688   2.550   6.716   5.914 -0.2197  0.0731  0.0445
  933YOPE   C3A13689   2.502   6.945   6.306  0.4675  0.1882  0.0980
  933YOPE   C4A13690   2.394   6.846   6.744 -0.5298 -0.0953  0.1180
  933YOPE   C1B13691   1.827   7.073   5.958 -0.1427  0.1376  0.0335
  933YOPE   C2B13692   2.051   7.219   6.310  0.1114  0.1561 -0.0972
  933YOPE   D3B13693   2.291   7.334   6.728 -0.0102 -0.1230 -0.0465
  933YOPE   C4B13694   2.766   7.385   6.519 -0.0315  0.0789  0.0313
  934YOPE   NH313695  18.067   3.651   4.713 -0.1012  0.0226  0.0112
  934YOPE   PO413696  17.843   3.592   5.096 -0.2034  0.2157 -0.0204
  934YOPE   GL113697  17.806   3.291   5.459  0.0977 -0.2866  0.1155
  934YOPE   GL213698  17.570   3.452   5.751  0.1965  0.0657  0.2069
  934YOPE   C1A13699  18.058   3.128   5.777  0.1043 -0.0162 -0.4089
  934YOPE   D2A13700  18.359   3.112   6.168 -0.1992  0.0521 -0.1401
  934YOPE   C3A13701  18.277   3.279   6.618 -0.1774  0.2848 -0.3402
  934YOPE   C4A13702  18.177   3.123   7.077 -0.1730  0.3387 -0.1749
  934YOPE   C1B13703  17.545   3.361   6.211 -0.2046  0.1220  0.0561
  934YOPE   C2B13704  17.397   2.897   6.429  0.1425 -0.3034 -0.2035
  934YOPE   D3B13705  17.310   2.664   6.787  0.0940  0.1059  0.2042
  934YOPE   C4B13706  17.455   2.922   7.095 -0.2446  0.2999  0.2905
  935YOPE   NH313707  12.127  13.878   5.411 -0.0740 -0.3354  0.0977
  935YOPE   PO413708  11.770  13.690   5.221  0.0335 -0.1607  0.0853
  935YOPE   GL113709  11.619  13.537   5.660 -0.3975 -0.1644 -0.0165
  935YOPE   GL213710  11.922  13.550   5.801  0.1332 -0.0612  0.2958
  935YOPE   C1A13711  11.442  13.263   6.051  0.0320  0.3814 -0.0215
  935YOPE   D2A13712  11.471  13.395   6.518  0.0470 -0.4442 -0.0470
  935YOPE   C3A13713  11.199  13.702   6.691  0.0326 -0.4316  0.0831
  935YOPE   C4A13714  10.813  13.785   6.926  0.1725 -0.0127 -0.0855
  935YOPE   C1B13715  11.929  13.376   6.136 -0.0491 -0.0049 -0.0486
  935YOPE   C2B13716  12.030  13.404   6.568  0.1720  0.2243 -0.1176
  935YOPE   D3B13717  12.126  13.429   7.000 -0.0203  0.0832 -0.1051
  935YOPE   C4B13718  12.489  13.536   7.204 -0.3372 -0.0910 -0.2517
  936YOPE   NH313719  17.461  15.701   5.647  0.1337 -0.0074 -0.0366
  936YOPE   PO413720  17.806  15.948   5.511  0.1586 -0.0502 -0.1586
  936YOPE   GL113721  17.909  15.898   5.937  0.0867 -0.1894 -0.1613
  936YOPE   GL213722  17.779  15.596   6.037  0.1170  0.2810 -0.0252
  936YOPE   C1A13723  18.281  15.878   6.180 -0.1577 -0.1373  0.0448
  936YOPE   D2A13724  18.432  15.927   6.532  0.0286  0.3342 -0.3660
  936YOPE   C3A13725  18.201  16.296   6.846 -0.2131 -0.1017  0.1953
  936YOPE   C4A13726  17.878  16.495   7.013  0.0506  0.0938 -0.2275
  936YOPE   C1B13727  17.982  15.287   6.239 -0.0056 -0.3349 -0.2957
  936YOPE   C2B13728  18.015  15.351   6.733  0.0380  0.4228 -0.2648
  936YOPE   D3B13729  17.878  15.327   7.188 -0.1199  0.0709  0.2202
  936YOPE   C4B13730  17.922  15.121   7.613 -0.2737 -0.4243 -0.1796
  937YOPE   NH313731  14.873   4.360   5.474  0.1572 -0.1340 -0.1928
  937YOPE   PO413732  14.621   4.749   5.461  0.0884  0.1337  0.2901
  937YOPE   GL113733  14.644   4.551   5.822  0.2503 -0.1399  0.0471
  937YOPE   GL213734  14.359   4.384   5.831 -0.0132  0.4096 -0.1150
  937YOPE   C1A13735  14.877   4.697   6.123  0.3297 -0.2245  0.0175
  937YOPE   D2A13736  14.761   4.822   6.642 -0.0116  0.0042  0.0421
  937YOPE   C3A13737  14.756   5.084   6.884  0.0551 -0.2127 -0.1174
  937YOPE   C4A13738  15.245   5.248   6.966  0.1433  0.0449 -0.0657
  937YOPE   C1B13739  14.741   4.204   6.165  0.0727 -0.0501  0.1046
  937YOPE   C2B13740  15.146   3.856   6.169  0.4025 -0.0466 -0.4574
  937YOPE   D3B13741  15.374   3.538   6.141  0.2852 -0.0566  0.0240
  937YOPE   C4B13742  15.825   3.529   6.033 -0.1890 -0.2082 -0.4235
  938YOPE   NH313743   1.376   7.826   5.177  0.0220 -0.0761  0.3132
  938YOPE   PO413744   1.375   7.899   5.630  0.1722 -0.0825  0.1476
  938YOPE   GL113745   1.516   7.878   6.022 -0.3387  0.4299  0.1892
  938YOPE   GL213746   1.757   7.529   6.122 -0.0759 -0.0675  0.1935
  938YOPE   C1A13747   1.401   8.008   6.442 -0.2004 -0.1336 -0.4723
  938YOPE   D2A13748   1.293   8.217   6.832 -0.1443 -0.0948  0.0653
  938YOPE   C3A13749   1.091   8.263   7.234  0.1674  0.1126 -0.1200
  938YOPE   C4A13750   0.763   7.991   7.430 -0.1015 -0.0599 -0.4554
  938YOPE   C1B13751   1.855   7.633   6.548  0.0395  0.1064 -0.0749
  938YOPE   C2B13752   1.929   7.665   6.978  0.0097 -0.0266 -0.0843
  938YOPE   D3B13753   1.752   7.552   7.384 -0.0190  0.1109 -0.1481
  938YOPE   C4B13754   1.420   7.576   7.668 -0.2588  0.3619 -0.0898
  939YOPE   NH313755  13.942   2.823   5.443  0.0102 -0.1728  0.0579
  939YOPE   PO413756  13.663   3.134   5.311  0.0914 -0.1589  0.0248
  939YOPE   GL113757  13.760   3.273   5.652  0.0591 -0.1277 -0.2610
  939YOPE   GL213758  13.693   3.508   5.919 -0.3481 -0.2462 -0.0968
  939YOPE   C1A13759  14.198   3.445   5.883 -0.4241  0.4112  0.0166
  939YOPE   D2A13760  14.238   3.651   6.338  0.1795 -0.0754  0.0396
  939YOPE   C3A13761  14.544   3.925   6.474  0.2558  0.2787 -0.1026
  939YOPE   C4A13762  15.059   3.726   6.626  0.1529 -0.2894 -0.0194
  939YOPE   C1B13763  13.741   3.744   6.185  0.0159 -0.0237  0.1370
  939YOPE   C2B13764  13.758   3.714   6.620 -0.0060 -0.2170 -0.0002
  939YOPE   D3B13765  13.619   3.519   6.825  0.1559 -0.1446  0.0601
  939YOPE   C4B13766  13.711   3.392   7.209 -0.0099 -0.2732  0.2046
  940YOPE   NH313767  19.251  13.459   5.739  0.4416  0.2368 -0.0085
  940YOPE   PO413768  19.646  13.452   5.807 -0.2409  0.1789  0.2332
  940YOPE   GL113769  19.553  13.110   6.045 -0.1005  0.5049 -0.1597
  940YOPE   GL213770  19.439  13.267   6.333 -0.2335 -0.1447  0.1006
  940YOPE   C1A13771  19.366  12.789   6.263  0.1487 -0.3663  0.0307
  940YOPE   D2A13772  19.385  12.285   6.236 -0.0050  0.1561 -0.1492
  940YOPE   C3A13773  19.059  12.030   6.399 -0.2404 -0.0870 -0.0527
  940YOPE   C4A13774  18.756  12.110   6.699  0.2600 -0.3173 -0.0368
  940YOPE   C1B13775  19.327  13.154   6.741 -0.1594 -0.0093  0.1845
  940YOPE   C2B13776  19.393  12.996   7.135 -0.1543 -0.1278 -0.0244
  940YOPE   D3B13777  19.548  12.959   7.541 -0.3906 -0.1657 -0.0554
  940YOPE   C4B13778  19.614  12.892   7.911 -0.0499 -0.1573 -0.0750
  941POPC   NC313779   1.443   8.322   5.374 -0.0823 -0.0428  0.1260
  941POPC   PO413780   1.125   8.506   5.678  0.1348 -0.1903  0.1923
  941POPC   GL113781   1.155   8.317   6.014 -0.1496  0.2260 -0.2323
  941POPC   GL213782   0.790   8.192   6.148 -0.1712 -0.1200 -0.1249
  941POPC   C1A13783   1.106   8.445   6.421 -0.1136  0.0368 -0.1154
  941POPC   D2A13784   0.781   8.497   6.636  0.0595 -0.0136  0.2559
  941POPC   C3A13785   0.387   8.390   6.503 -0.2788 -0.1449 -0.0439
  941POPC   C4A13786   0.250   8.070   6.315 -0.2973 -0.1655 -0.0498
  941POPC   C1B13787   0.917   7.821   6.530  0.0071  0.0569  0.0879
  941POPC   C2B13788   1.001   7.830   6.958 -0.1407 -0.1201 -0.1861
  941POPC   C3B13789   1.041   7.605   7.322 -0.1974  0.1959  0.2687
  941POPC   C4B13790   1.053   7.239   7.484 -0.0494 -0.1282 -0.3750
  942POPC   NC313791   7.518  15.259   5.715 -0.1005  0.0909 -0.0607
  942POPC   PO413792   7.681  14.930   5.792  0.2163 -0.2054  0.2651
  942POPC   GL113793   7.538  14.889   6.200  0.0617 -0.2799 -0.0690
  942POPC   GL213794   7.494  15.158   6.376 -0.1358  0.1099  0.1331
  942POPC   C1A13795   7.514  14.725   6.579 -0.0397  0.2092 -0.1457
  942POPC   D2A13796   7.751  14.558   6.980 -0.0194  0.2273 -0.3467
  942POPC   C3A13797   7.668  14.559   7.415  0.1225 -0.0950  0.1788
  942POPC   C4A13798   7.469  14.821   7.665  0.0373 -0.1585 -0.2467
  942POPC   C1B13799   7.374  15.124   6.811 -0.3199 -0.0008 -0.1327
  942POPC   C2B13800   7.377  14.890   7.179  0.3364 -0.1961 -0.1719
  942POPC   C3B13801   7.182  14.574   7.272 -0.1206 -0.0220 -0.3975
  942POPC   C4B13802   6.956  14.591   7.637  0.1192  0.2310 -0.1482
  943POPC   NC313803   6.832   8.255   4.721 -0.0689  0.0496  0.2062
  943POPC   PO413804   6.595   8.380   5.054  0.0085 -0.0277 -0.1843
  943POPC   GL113805   6.273   8.223   5.292 -0.0307 -0.4669  0.0214
  943POPC   GL213806   6.355   7.947   5.281 -0.2509 -0.1012  0.1191
  943POPC   C1A13807   6.230   8.344   5.817  0.0136  0.0375 -0.0018
  943POPC   D2A13808   5.982   8.468   6.230 -0.3066 -0.2465  0.1043
  943POPC   C3A13809   5.573   8.675   6.248 -0.1102 -0.0239  0.0670
  943POPC   C4A13810   5.389   9.090   6.254 -0.2552  0.3071 -0.0666
  943POPC   C1B13811   6.292   7.858   5.664  0.2838  0.1521 -0.1372
  943POPC   C2B13812   6.586   7.925   5.946  0.2407 -0.0812 -0.0995
  943POPC   C3B13813   7.023   7.834   5.945  0.0626  0.2905 -0.0968
  943POPC   C4B13814   7.260   8.005   5.568  0.3456 -0.0166  0.0241
  944POPC   NC313815   9.203   6.859   5.000 -0.1454 -0.2540  0.0347
  944POPC   PO413816   9.541   6.629   4.924 -0.0078  0.0377 -0.0060
  944POPC   GL113817   9.384   6.457   5.279 -0.1012 -0.1693  0.1368
  944POPC   GL213818   9.066   6.605   5.376  0.0174 -0.1719  0.0232
  944POPC   C1A13819   9.609   6.403   5.696  0.1952  0.1742  0.2972
  944POPC   D2A13820   9.886   6.383   6.019 -0.0005 -0.0317 -0.1416
  944POPC   C3A13821   9.915   6.615   6.411 -0.0403 -0.1290  0.1517
  944POPC   C4A13822  10.041   6.682   6.819 -0.0909 -0.2354 -0.0152
  944POPC   C1B13823   8.770   6.910   5.505  0.0016 -0.3102  0.0743
  944POPC   C2B13824   8.581   7.230   5.615  0.1829  0.1154 -0.0730
  944POPC   C3B13825   8.178   7.247   5.645  0.1266  0.1195 -0.1778
  944POPC   C4B13826   7.946   7.306   5.974 -0.1432  0.1775  0.1746
  945POPC   NC313827   7.442  11.593   5.332 -0.0293  0.0853 -0.1412
  945POPC   PO413828   7.002  11.545   5.185  0.2418  0.0857  0.0426
  945POPC   GL113829   6.978  11.605   5.562 -0.4025  0.1338 -0.3052
  945POPC   GL213830   7.253  11.838   5.777 -0.0519 -0.1155  0.2860
  945POPC   C1A13831   6.951  11.516   5.981 -0.1299  0.0004  0.1738
  945POPC   D2A13832   7.210  11.636   6.312 -0.0578 -0.2259 -0.3685
  945POPC   C3A13833   6.938  11.629   6.574  0.1248 -0.0767 -0.0454
  945POPC   C4A13834   6.910  11.519   7.038  0.1364 -0.1510  0.2512
  945POPC   C1B13835   7.430  12.077   6.150 -0.1836  0.2173 -0.2498
  945POPC   C2B13836   7.491  12.101   6.639 -0.1255  0.1761 -0.0438
  945POPC   C3B13837   7.794  12.057   6.971 -0.0724  0.1432  0.2532
  945POPC   C4B13838   8.215  12.164   7.104 -0.2097  0.1187  0.1639
  946POPC   NC313839  11.590  19.101   4.907 -0.0111 -0.0113 -0.1183
  946POPC   PO413840  11.172  18.796   5.044 -0.2704 -0.1572  0.1998
  946POPC   GL113841  11.239  19.084   5.229 -0.3859  0.1149 -0.3204
  946POPC   GL213842  11.433  18.992   5.583 -0.0778  0.0618 -0.0295
  946POPC   C1A13843  11.275  19.430   5.519  0.1654 -0.0727  0.1619
  946POPC   D2A13844  11.272  19.456   5.993  0.2636  0.0698  0.0252
  946POPC   C3A13845  10.995  19.666   6.277 -0.0855 -0.2261 -0.0605
  946POPC   C4A13846  10.861  19.697   6.735  0.1236 -0.2474  0.2603
  946POPC   C1B13847  11.213  18.961   5.984  0.0949 -0.1410 -0.2893
  946POPC   C2B13848  10.920  19.174   6.169  0.1001  0.3456  0.0584
  946POPC   C3B13849  10.603  19.478   6.061  0.0900 -0.0535  0.0652
  946POPC   C4B13850  10.515  19.896   6.192  0.0138  0.1134  0.1285
  947POPC   NC313851  14.726   0.369   5.278  0.1630 -0.0177 -0.1023
  947POPC   PO413852  14.847  -0.077   5.480 -0.1966 -0.1337  0.0861
  947POPC   GL113853  15.132  -0.047   5.799  0.0592 -0.0013  0.0633
  947POPC   GL213854  15.087  -0.182   6.090  0.4239 -0.0813 -0.1469
  947POPC   C1A13855  15.474   0.219   5.872 -0.0814  0.3079  0.0446
  947POPC   D2A13856  15.759   0.484   5.837 -0.1126 -0.2907  0.1876
  947POPC   C3A13857  15.948   0.807   6.115 -0.3075  0.3645  0.1333
  947POPC   C4A13858  15.962   0.949   6.561 -0.0382  0.1923 -0.5125
  947POPC   C1B13859  15.086   0.206   6.205 -0.0220 -0.0736 -0.1320
  947POPC   C2B13860  14.807   0.591   6.316 -0.2987  0.1194 -0.0045
  947POPC   C3B13861  14.576   0.765   6.578 -0.2345  0.0383  0.0725
  947POPC   C4B13862  14.763   0.732   6.856 -0.3325 -0.2527 -0.1063
  948POPC   NC313863  17.584   1.226   5.395  0.0348  0.1871 -0.3301
  948POPC   PO413864  17.502   1.603   5.480 -0.0631  0.2944 -0.0018
  948POPC   GL113865  17.567   1.774   5.921 -0.1186 -0.3371 -0.0080
  948POPC   GL213866  17.603   2.142   5.979 -0.0912 -0.0803 -0.1352
  948POPC   C1A13867  17.844   1.789   6.354  0.0143 -0.2530 -0.3127
  948POPC   D2A13868  18.059   1.576   6.730 -0.0211  0.1227 -0.2872
  948POPC   C3A13869  17.848   1.624   7.104 -0.0880 -0.3161  0.0112
  948POPC   C4A13870  17.508   1.868   7.187 -0.3333  0.1707 -0.0423
  948POPC   C1B13871  17.255   1.962   6.335 -0.2250 -0.0400 -0.0390
  948POPC   C2B13872  16.974   1.725   6.578  0.1748  0.0071  0.1476
  948POPC   C3B13873  16.638   1.635   6.801  0.2546  0.0123  0.1744
  948POPC   C4B13874  16.515   1.320   7.137  0.0131 -0.2030 -0.2984
  949POPC   NC313875   2.993   1.982   4.936 -0.1635  0.3702  0.0120
  949POPC   PO413876   3.026   1.532   4.860  0.3237  0.0161  0.0850
  949POPC   GL113877   3.224   1.350   5.149 -0.1541  0.1609 -0.0907
  949POPC   GL213878   3.109   1.281   5.394  0.4714 -0.1706 -0.1281
  949POPC   C1A13879   3.604   1.324   5.433  0.1533 -0.0027 -0.1009
  949POPC   D2A13880   3.546   1.388   5.809  0.2343 -0.0950 -0.1133
  949POPC   C3A13881   3.148   1.429   5.966 -0.3532 -0.1406  0.1557
  949POPC   C4A13882   2.725   1.645   6.048 -0.1226  0.2398 -0.1302
  949POPC   C1B13883   2.761   1.264   5.758 -0.0502  0.1393 -0.0508
  949POPC   C2B13884   2.703   1.193   6.192  0.0957 -0.1884  0.2879
  949POPC   C3B13885   2.969   1.338   6.493  0.2497  0.3474 -0.1682
  949POPC   C4B13886   3.185   1.157   6.827  0.4800  0.1106 -0.1269
  950POPC   NC313887  16.187   9.482   4.714 -0.1167  0.0648  0.0751
  950POPC   PO413888  16.245   9.611   5.208  0.3740 -0.4371  0.5164
  950POPC   GL113889  16.206   9.576   5.752 -0.0275  0.0359 -0.0307
  950POPC   GL213890  16.327   9.345   5.904 -0.1399 -0.1748  0.4554
  950POPC   C1A13891  16.148   9.818   6.163 -0.3709 -0.0291 -0.1293
  950POPC   D2A13892  16.408  10.217   6.168  0.2045  0.2342  0.0810
  950POPC   C3A13893  16.496  10.419   6.663 -0.0205 -0.1359  0.2833
  950POPC   C4A13894  16.326  10.499   6.968 -0.1521 -0.0527 -0.0917
  950POPC   C1B13895  16.424   9.388   6.296  0.1268  0.1385 -0.2292
  950POPC   C2B13896  16.537   9.400   6.722  0.1747 -0.1730 -0.4769
  950POPC   C3B13897  16.552   9.417   7.071 -0.1556  0.0748  0.2907
  950POPC   C4B13898  16.363   9.937   7.153  0.0948 -0.0481  0.0286
  951POPC   NC313899  18.037  12.729   5.755  0.0774  0.2908  0.3815
  951POPC   PO413900  17.613  12.933   5.765  0.1530 -0.0069  0.0021
  951POPC   GL113901  17.555  12.789   6.083 -0.2678  0.3988 -0.0949
  951POPC   GL213902  17.582  12.499   6.224  0.6113 -0.0316 -0.3460
  951POPC   C1A13903  17.480  13.026   6.470 -0.0665  0.0594 -0.3442
  951POPC   D2A13904  17.302  12.868   6.910  0.0350  0.0138  0.0379
  951POPC   C3A13905  16.960  12.866   7.131  0.1792  0.0928 -0.0429
  951POPC   C4A13906  16.956  12.795   7.540 -0.2090 -0.1102 -0.0103
  951POPC   C1B13907  17.416  12.457   6.697 -0.3724 -0.0410  0.1925
  951POPC   C2B13908  17.228  12.433   7.145 -0.2355 -0.1230  0.0365
  951POPC   C3B13909  17.220  12.201   7.540 -0.4162  0.5197 -0.3955
  951POPC   C4B13910  16.889  11.948   7.706 -0.0660 -0.1921 -0.1241
  952POPC   NC313911  11.598  15.064   4.936 -0.1383  0.1411 -0.0705
  952POPC   PO413912  11.817  15.216   5.381  0.2453  0.1177  0.1520
  952POPC   GL113913  11.908  15.180   5.799 -0.2194 -0.0672  0.1248
  952POPC   GL213914  11.663  15.030   6.045 -0.3386  0.0804 -0.3317
  952POPC   C1A13915  12.214  15.314   6.047  0.0931  0.0264  0.1702
  952POPC   D2A13916  12.401  15.359   6.396  0.1519  0.2975 -0.1226
  952POPC   C3A13917  12.454  15.389   6.894 -0.0761  0.0782 -0.0570
  952POPC   C4A13918  12.585  15.503   7.378 -0.4255  0.0125 -0.1404
  952POPC   C1B13919  11.566  14.607   6.021  0.0338  0.0834  0.0786
  952POPC   C2B13920  11.358  14.313   6.384 -0.0968  0.0640 -0.0067
  952POPC   C3B13921  11.414  14.161   6.818  0.1077  0.1011 -0.0622
  952POPC   C4B13922  11.177  13.959   7.293  0.2414 -0.0206 -0.0103
  953POPC   NC313923   5.907   6.207   4.543 -0.2515 -0.0059 -0.1269
  953POPC   PO413924   5.564   6.147   4.738 -0.0174  0.0912  0.1139
  953POPC   GL113925   5.746   5.847   5.066  0.1752 -0.1276  0.3723
  953POPC   GL213926   5.482   5.854   5.311  0.0271  0.1214  0.0844
  953POPC   C1A13927   6.133   5.768   5.274  0.2180 -0.0987 -0.1055
  953POPC   D2A13928   6.446   5.775   5.613  0.2234 -0.0380 -0.0693
  953POPC   C3A13929   6.484   5.868   6.099 -0.3309 -0.2018 -0.4302
  953POPC   C4A13930   6.640   6.014   6.557  0.0558  0.0902 -0.0072
  953POPC   C1B13931   5.422   5.953   5.695 -0.0732  0.2876 -0.2502
  953POPC   C2B13932   5.432   5.776   6.040  0.6083  0.0156 -0.2094
  953POPC   C3B13933   5.573   5.873   6.256 -0.2874  0.0797 -0.1641
  953POPC   C4B13934   5.551   5.732   6.715 -0.2234 -0.1547  0.1921
  954POPC   NC313935  18.640  18.130   5.409 -0.0528 -0.2048  0.1308
  954POPC   PO413936  18.847  18.388   5.656 -0.1427  0.1856 -0.1488
  954POPC   GL113937  18.779  18.515   6.077 -0.0585 -0.1248 -0.0643
  954POPC   GL213938  19.069  18.638   6.139  0.1436  0.0771 -0.2422
  954POPC   C1A13939  18.648  18.751   6.486  0.1377 -0.0680  0.0732
  954POPC   D2A13940  18.370  18.726   6.800  0.2944  0.0626  0.0830
  954POPC   C3A13941  18.357  18.371   6.940 -0.0325 -0.1137 -0.0352
  954POPC   C4A13942  18.388  18.018   7.000 -0.0800  0.3635  0.2086
  954POPC   C1B13943  19.044  18.992   6.364  0.0443  0.1496 -0.2724
  954POPC   C2B13944  18.828  19.081   6.867 -0.1643  0.2351  0.2528
  954POPC   C3B13945  18.761  18.908   7.279  0.1712 -0.1914 -0.1057
  954POPC   C4B13946  18.518  18.977   7.709 -0.0033 -0.0157  0.2682
  955POPC   NC313947  13.206  18.837   5.795 -0.0958  0.3132 -0.1730
  955POPC   PO413948  12.810  18.620   5.647 -0.3356 -0.4158 -0.3700
  955POPC   GL113949  12.835  18.493   6.007  0.1645 -0.3808  0.1436
  955POPC   GL213950  12.970  18.677   6.186 -0.0679 -0.1589  0.0018
  955POPC   C1A13951  12.520  18.429   6.322  0.1868 -0.0798  0.3949
  955POPC   D2A13952  12.224  18.117   6.284  0.1933 -0.1124 -0.0520
  955POPC   C3A13953  11.904  18.206   6.229 -0.1932  0.0453 -0.0236
  955POPC   C4A13954  11.521  17.979   6.108  0.0312 -0.1391  0.0842
  955POPC   C1B13955  13.210  18.650   6.568  0.1230  0.3824  0.2578
  955POPC   C2B13956  13.207  18.868   6.927 -0.1062 -0.1363 -0.0643
  955POPC   C3B13957  12.992  19.093   7.171  0.1461  0.1568 -0.0959
  955POPC   C4B13958  12.735  18.972   7.497  0.0090  0.1906 -0.1854
  956POPC   NC313959  10.107  16.999   5.236 -0.1340 -0.4142  0.2441
  956POPC   PO413960  10.489  17.021   5.034 -0.0599  0.0812 -0.0067
  956POPC   GL113961  10.403  16.963   5.644  0.1653 -0.0137  0.0563
  956POPC   GL213962  10.495  16.636   5.733  0.2071  0.1675 -0.3871
  956POPC   C1A13963  10.520  17.338   5.937  0.0128 -0.1773  0.2102
  956POPC   D2A13964  10.320  17.405   6.305 -0.1906 -0.0659 -0.1060
  956POPC   C3A13965   9.942  17.839   6.436  0.0385 -0.0045  0.0661
  956POPC   C4A13966   9.622  17.884   6.699  0.3248 -0.2326 -0.0860
  956POPC   C1B13967  10.298  16.808   6.141  0.3131  0.2433 -0.0154
  956POPC   C2B13968  10.306  16.917   6.528 -0.4020  0.2347  0.2210
  956POPC   C3B13969  10.096  17.295   6.692  0.1225  0.3220 -0.0027
  956POPC   C4B13970  10.256  17.610   6.957  0.0012  0.0897  0.3687
  957POPC   NC313971  10.906   1.879   4.947 -0.2268  0.4806  0.2101
  957POPC   PO413972  11.382   1.935   5.178 -0.3465 -0.0788 -0.0701
  957POPC   GL113973  11.057   2.145   5.429 -0.0865 -0.1521 -0.3337
  957POPC   GL213974  11.111   2.475   5.557  0.2871 -0.0122 -0.0079
  957POPC   C1A13975  10.732   2.123   5.745  0.0978 -0.0496  0.0357
  957POPC   D2A13976  10.362   1.796   5.992 -0.0905  0.0999  0.2477
  957POPC   C3A13977  10.168   1.794   6.375 -0.0408 -0.1650  0.3772
  957POPC   C4A13978  10.271   1.757   6.804  0.2346 -0.2137 -0.2281
  957POPC   C1B13979  11.074   2.395   5.916 -0.0247  0.1677 -0.0319
  957POPC   C2B13980  11.059   2.730   6.202  0.4036  0.2802  0.0389
  957POPC   C3B13981  10.771   2.949   6.456 -0.1612 -0.1123 -0.1310
  957POPC   C4B13982  10.535   3.107   6.737  0.2951 -0.3571  0.3298
  958POPC   NC313983  15.116  11.774   5.013 -0.0087  0.0647  0.0639
  958POPC   PO413984  15.266  12.211   5.036  0.0040 -0.2109  0.1521
  958POPC   GL113985  15.420  12.086   5.385 -0.0126 -0.2964  0.0626
  958POPC   GL213986  15.588  12.333   5.530  0.2914  0.0268  0.0010
  958POPC   C1A13987  15.514  11.860   5.739 -0.3364  0.0018  0.1515
  958POPC   D2A13988  15.720  11.703   5.973 -0.0018 -0.1145  0.0609
  958POPC   C3A13989  15.527  11.741   6.371 -0.0415  0.1954  0.1889
  958POPC   C4A13990  15.161  11.666   6.759  0.1344 -0.2024 -0.0369
  958POPC   C1B13991  15.905  12.189   5.760  0.0767 -0.0744 -0.2533
  958POPC   C2B13992  16.180  11.870   5.960  0.1821 -0.3032  0.1157
  958POPC   C3B13993  16.387  11.521   6.088 -0.0787 -0.3475  0.2277
  958POPC   C4B13994  16.739  11.294   6.241 -0.0996 -0.1192 -0.2284
  959POPC   NC313995  10.463   6.148   4.611  0.1259 -0.2088  0.0079
  959POPC   PO413996  10.001   6.065   4.546  0.0349 -0.0468  0.0973
  959POPC   GL113997  10.117   6.309   4.958  0.1199 -0.0693 -0.1781
  959POPC   GL213998  10.167   6.718   5.024  0.0561 -0.3163 -0.2585
  959POPC   C1A13999  10.377   6.211   5.438 -0.1713  0.1551 -0.0153
  959POPC   D2A14000  10.380   6.450   5.861 -0.3259 -0.1757 -0.0864
  959POPC   C3A14001  10.280   6.317   6.305 -0.1978 -0.2654 -0.2438
  959POPC   C4A14002  10.056   6.175   6.579 -0.2035 -0.1315 -0.1013
  959POPC   C1B14003  10.011   6.742   5.511  0.2828  0.2672  0.1890
  959POPC   C2B14004  10.022   6.854   5.899 -0.1724 -0.2788 -0.1116
  959POPC   C3B14005  10.055   7.083   6.298  0.0564 -0.2683 -0.0400
  959POPC   C4B14006  10.262   7.094   6.636 -0.2863 -0.2328 -0.1237
  960POPC   NC314007  15.173   8.354   5.300 -0.4407 -0.0013 -0.2630
  960POPC   PO414008  14.904   8.405   5.651 -0.0233 -0.0183 -0.1788
  960POPC   GL114009  14.921   8.300   6.018  0.3480 -0.1494 -0.0928
  960POPC   GL214010  14.770   8.342   6.339  0.0511 -0.0564  0.0403
  960POPC   C1A14011  15.270   8.578   6.283 -0.2822  0.0754 -0.1491
  960POPC   D2A14012  15.362   8.901   6.545  0.1386  0.0461 -0.0283
  960POPC   C3A14013  15.420   9.249   6.291 -0.1487  0.0917 -0.0636
  960POPC   C4A14014  15.492   9.651   6.378 -0.2114 -0.1094 -0.1092
  960POPC   C1B14015  14.776   8.675   6.629  0.4158 -0.0177 -0.1270
  960POPC   C2B14016  14.531   8.853   6.892  0.0606 -0.1598 -0.0281
  960POPC   C3B14017  14.776   8.835   7.238  0.0732 -0.0460 -0.2244
  960POPC   C4B14018  14.967   8.619   7.555 -0.2307 -0.0958  0.1617
  961POPC   NC314019  13.523  11.383   5.070 -0.0629 -0.1883 -0.1981
  961POPC   PO414020  13.106  11.301   4.863  0.1171  0.0527  0.1431
  961POPC   GL114021  13.024  11.395   5.310 -0.3438  0.1608 -0.1827
  961POPC   GL214022  12.874  11.075   5.386 -0.2625  0.1356 -0.3798
  961POPC   C1A14023  12.852  11.603   5.680  0.3327  0.1210 -0.1948
  961POPC   D2A14024  12.539  12.032   5.777 -0.2191  0.1241  0.0851
  961POPC   C3A14025  12.569  12.015   6.285  0.2524  0.0987 -0.1248
  961POPC   C4A14026  12.886  12.168   6.560  0.4742 -0.1413 -0.1296
  961POPC   C1B14027  12.799  11.108   5.765 -0.3804  0.1483  0.1947
  961POPC   C2B14028  12.821  11.205   6.277  0.1403 -0.2263  0.3807
  961POPC   C3B14029  12.913  11.591   6.511  0.1804 -0.0753  0.1983
  961POPC   C4B14030  12.651  11.714   6.874 -0.1150 -0.4269  0.3909
  962POPC   NC314031   1.190  13.280   5.968  0.1770 -0.2903 -0.3522
  962POPC   PO414032   1.433  13.672   5.756 -0.2611 -0.2791 -0.1507
  962POPC   GL114033   1.598  13.670   6.206 -0.0111  0.0271  0.0114
  962POPC   GL214034   1.777  13.456   6.086  0.1249 -0.1138  0.1140
  962POPC   C1A14035   1.728  13.708   6.585 -0.3667  0.3526 -0.4872
  962POPC   D2A14036   2.061  13.916   6.768  0.1284 -0.1441 -0.0017
  962POPC   C3A14037   2.073  14.011   7.307  0.4624 -0.0902  0.2282
  962POPC   C4A14038   2.421  14.248   7.518  0.3813 -0.0117 -0.1972
  962POPC   C1B14039   2.154  13.407   6.331 -0.1952 -0.0239 -0.0059
  962POPC   C2B14040   2.017  13.400   6.882  0.0261 -0.3947  0.1089
  962POPC   C3B14041   2.069  13.487   7.243  0.1900  0.2026  0.1295
  962POPC   C4B14042   2.448  13.459   7.424 -0.0727  0.0359 -0.2183
  963POPC   NC314043   4.453   4.984   5.083 -0.1476  0.0285  0.0233
  963POPC   PO414044   4.362   4.611   5.239 -0.1124 -0.1161 -0.0727
  963POPC   GL114045   4.543   4.477   5.605 -0.4475  0.1468 -0.0480
  963POPC   GL214046   4.683   4.178   5.612 -0.1588  0.4324 -0.0591
  963POPC   C1A14047   4.813   4.772   5.935 -0.0164  0.4419 -0.3014
  963POPC   D2A14048   5.225   4.768   5.971 -0.1823  0.1631 -0.0952
  963POPC   C3A14049   5.564   5.007   6.179  0.4286 -0.1453 -0.0736
  963POPC   C4A14050   5.655   5.406   6.300 -0.1893 -0.0946  0.0909
  963POPC   C1B14051   4.912   4.169   5.950  0.2583  0.1487 -0.1068
  963POPC   C2B14052   5.145   4.327   6.246  0.1409 -0.1546  0.4133
  963POPC   C3B14053   5.237   4.499   6.596 -0.1523  0.3922  0.2430
  963POPC   C4B14054   5.586   4.432   6.785 -0.0318  0.3019  0.2320
  964POPC   NC314055   0.289   4.070   5.287  0.0722 -0.0084 -0.0766
  964POPC   PO414056   0.703   4.260   5.238  0.2190 -0.0535  0.0340
  964POPC   GL114057   0.717   4.139   5.671  0.2124  0.0444  0.0650
  964POPC   GL214058   1.023   4.305   5.628 -0.0579  0.4666 -0.0242
  964POPC   C1A14059   0.704   4.348   6.018  0.0768  0.0354 -0.5454
  964POPC   D2A14060   0.867   4.729   6.244  0.0590  0.1006 -0.1152
  964POPC   C3A14061   0.804   4.887   6.638 -0.0811 -0.0259  0.0348
  964POPC   C4A14062   0.467   4.816   6.887 -0.1239 -0.0771  0.1546
  964POPC   C1B14063   1.219   4.447   6.006  0.1628  0.0547  0.2527
  964POPC   C2B14064   1.348   4.804   6.356 -0.0165 -0.0144 -0.4125
  964POPC   C3B14065   1.787   5.026   6.515  0.3332 -0.1097  0.1235
  964POPC   C4B14066   2.036   5.237   6.614 -0.0685  0.0038 -0.1112
  965POPC   NC314067  16.766  17.132   5.619  0.0590  0.0510 -0.2849
  965POPC   PO414068  16.551  16.853   5.746  0.0768 -0.1827  0.2548
  965POPC   GL114069  16.583  16.909   6.144  0.1499 -0.0767 -0.1052
  965POPC   GL214070  16.668  16.625   6.289 -0.0697  0.0408  0.2160
  965POPC   C1A14071  16.938  17.065   6.406 -0.0720 -0.0613  0.1185
  965POPC   D2A14072  16.976  17.191   6.773 -0.0164 -0.0361 -0.3050
  965POPC   C3A14073  16.954  17.087   7.131 -0.0578  0.0957  0.0079
  965POPC   C4A14074  17.138  16.849   7.430 -0.0019 -0.0303 -0.2848
  965POPC   C1B14075  16.739  16.715   6.670 -0.1594  0.1094 -0.2110
  965POPC   C2B14076  16.977  16.479   6.887 -0.0067 -0.0063  0.0692
  965POPC   C3B14077  17.217  16.421   7.237  0.2895  0.1622 -0.2446
  965POPC   C4B14078  16.791  16.297   7.514 -0.1870  0.0408  0.1512
  966POPC   NC314079   5.984   9.650   4.441 -0.0443 -0.0560  0.0413
  966POPC   PO414080   5.615   9.761   4.533  0.0394  0.3033  0.1860
  966POPC   GL114081   5.494   9.788   4.887  0.1002 -0.2560  0.1903
  966POPC   GL214082   5.404   9.597   5.097 -0.3200  0.0363 -0.0006
  966POPC   C1A14083   5.523  10.079   5.250  0.1222 -0.0760  0.0782
  966POPC   D2A14084   5.754   9.780   5.653 -0.2125 -0.0342  0.1016
  966POPC   C3A14085   6.145   9.625   5.782  0.4624  0.0995 -0.1282
  966POPC   C4A14086   6.312   9.265   5.800 -0.1356  0.0584 -0.0253
  966POPC   C1B14087   5.307   9.765   5.555  0.2346  0.0075  0.1085
  966POPC   C2B14088   5.118  10.020   5.840  0.1757  0.0341  0.2761
  966POPC   C3B14089   4.941  10.010   6.192 -0.3363  0.1796 -0.3967
  966POPC   C4B14090   4.725   9.599   6.390  0.1731 -0.1271  0.1803
  967POPC   NC314091  16.756  19.060   5.357 -0.3798  0.1705 -0.0594
  967POPC   PO414092  16.583  19.374   5.400 -0.1624  0.1343  0.1000
  967POPC   GL114093  16.424  19.358   5.860  0.2245  0.2330 -0.1027
  967POPC   GL214094  16.313  19.025   5.944  0.0884 -0.3126 -0.2168
  967POPC   C1A14095  16.442  19.596   6.277 -0.2799  0.1034  0.0264
  967POPC   D2A14096  16.149  19.890   6.563  0.2281  0.2772 -0.0683
  967POPC   C3A14097  16.380  19.972   7.010 -0.0019  0.0235  0.0199
  967POPC   C4A14098  16.338  20.258   7.400  0.1094  0.3958 -0.0613
  967POPC   C1B14099  16.665  19.050   6.394  0.0640  0.2095  0.0874
  967POPC   C2B14100  16.601  18.979   6.871  0.2401 -0.0852 -0.3768
  967POPC   C3B14101  16.311  19.101   7.118 -0.0064  0.2688 -0.0560
  967POPC   C4B14102  16.496  19.219   7.457  0.1156 -0.0552  0.2859
  968POPC   NC314103   0.385  16.492   5.225 -0.1218 -0.0258  0.1429
  968POPC   PO414104   0.434  16.082   5.319 -0.0620 -0.1646  0.0434
  968POPC   GL114105   0.501  16.189   5.740 -0.1907 -0.4681  0.1635
  968POPC   GL214106   0.803  16.109   5.735 -0.3663 -0.3110  0.0072
  968POPC   C1A14107   0.138  16.393   6.055  0.1001  0.1872  0.4672
  968POPC   D2A14108   0.172  16.536   6.543 -0.2686 -0.3308  0.2739
  968POPC   C3A14109   0.315  16.363   6.809  0.0131 -0.1741 -0.3697
  968POPC   C4A14110   0.206  16.296   7.269 -0.1512  0.0884 -0.2052
  968POPC   C1B14111   0.854  16.483   6.014 -0.1706  0.0477 -0.1386
  968POPC   C2B14112   1.104  16.726   6.330 -0.0821 -0.5141  0.0101
  968POPC   C3B14113   1.153  16.686   6.718 -0.0275  0.1158 -0.2046
  968POPC   C4B14114   1.280  16.962   7.130 -0.1394  0.1230 -0.0715
  969POPC   NC314115   8.969  12.703   4.959  0.1195 -0.1158 -0.1130
  969POPC   PO414116   9.360  12.469   5.035  0.1984  0.1436 -0.0391
  969POPC   GL114117   9.018  12.164   5.264 -0.0542 -0.2022 -0.1570
  969POPC   GL214118   8.678  12.114   5.262  0.0233 -0.1755 -0.0095
  969POPC   C1A14119   9.054  11.741   5.489  0.1534 -0.2487 -0.0395
  969POPC   D2A14120   8.994  11.385   5.668  0.3015  0.1686  0.1881
  969POPC   C3A14121   9.061  11.164   6.115 -0.0152  0.0249  0.2080
  969POPC   C4A14122   9.037  11.167   6.468 -0.0445  0.0200 -0.3230
  969POPC   C1B14123   8.668  12.307   5.611  0.1825  0.2030 -0.1509
  969POPC   C2B14124   8.530  12.789   5.758 -0.1687  0.2196  0.1631
  969POPC   C3B14125   8.470  13.016   5.998 -0.4051  0.1188 -0.2416
  969POPC   C4B14126   8.683  13.244   6.205 -0.1055 -0.0972 -0.1443
  970POPC   NC314127  13.901   5.661   5.399  0.0072 -0.1775 -0.1034
  970POPC   PO414128  13.474   5.500   5.310  0.2217  0.1493 -0.1876
  970POPC   GL114129  13.442   5.476   5.776 -0.0437  0.0815  0.1482
  970POPC   GL214130  13.113   5.530   5.746 -0.0409  0.1822 -0.0457
  970POPC   C1A14131  13.777   5.654   6.094  0.4322 -0.0130  0.1867
  970POPC   D2A14132  13.772   6.025   6.466  0.2119 -0.1198  0.0910
  970POPC   C3A14133  13.509   6.281   6.632 -0.2575 -0.2364 -0.2499
  970POPC   C4A14134  13.280   6.127   6.996 -0.2526  0.1798 -0.0206
  970POPC   C1B14135  13.261   5.395   6.227  0.1045 -0.1624  0.0330
  970POPC   C2B14136  13.301   5.392   6.620 -0.1336  0.1469  0.1739
  970POPC   C3B14137  13.186   5.424   7.035 -0.0356  0.1555  0.2599
  970POPC   C4B14138  13.392   5.361   7.527 -0.1401 -0.0998 -0.1964
  971POPC   NC314139  18.492   7.358   5.460 -0.4520  0.1925  0.2561
  971POPC   PO414140  18.656   7.624   5.809  0.0596 -0.0338  0.0444
  971POPC   GL114141  18.935   7.422   6.081 -0.0444  0.3752  0.0045
  971POPC   GL214142  19.127   7.220   5.911  0.0047  0.0191  0.0909
  971POPC   C1A14143  19.233   7.542   6.340 -0.1047  0.1744  0.1359
  971POPC   D2A14144  19.208   7.496   6.852 -0.0435 -0.0578  0.1112
  971POPC   C3A14145  19.210   7.387   7.222  0.3007  0.1333  0.0181
  971POPC   C4A14146  19.094   7.488   7.669 -0.2289  0.1688  0.1890
  971POPC   C1B14147  19.467   7.018   6.116 -0.2061  0.3181 -0.0011
  971POPC   C2B14148  19.702   7.046   6.524  0.2177 -0.0724  0.2504
  971POPC   C3B14149  19.857   6.993   7.017 -0.0339  0.0981 -0.2621
  971POPC   C4B14150  20.308   6.747   7.190  0.1751 -0.1184 -0.0596
  972POPC   NC314151  14.377  16.194   4.999 -0.3168  0.0960  0.1035
  972POPC   PO414152  14.481  15.871   5.344  0.0558  0.2749  0.2216
  972POPC   GL114153  14.258  15.727   5.811 -0.3969  0.0784 -0.1755
  972POPC   GL214154  14.096  15.956   6.027 -0.1391 -0.2565  0.1207
  972POPC   C1A14155  14.438  15.515   6.221  0.0897 -0.2032  0.1633
  972POPC   D2A14156  14.328  15.300   6.557  0.1359  0.2471  0.1859
  972POPC   C3A14157  14.496  15.357   6.956 -0.0937  0.0623  0.1992
  972POPC   C4A14158  14.261  15.509   7.315  0.0490  0.2140 -0.1703
  972POPC   C1B14159  14.486  16.103   6.098 -0.1913  0.3067  0.5408
  972POPC   C2B14160  14.857  15.850   6.243  0.2151  0.1608  0.0306
  972POPC   C3B14161  15.086  15.969   6.635  0.2223 -0.2357  0.0428
  972POPC   C4B14162  15.053  15.884   6.980  0.1059 -0.1083  0.4009
  973POPC   NC314163   8.104  12.764   5.006  0.2552  0.0520 -0.3363
  973POPC   PO414164   7.829  13.182   4.953  0.1489 -0.1621  0.0647
  973POPC   GL114165   7.821  13.183   5.443 -0.0187 -0.0184  0.2376
  973POPC   GL214166   7.464  13.201   5.628  0.0754 -0.0387 -0.0593
  973POPC   C1A14167   7.959  12.943   5.693  0.0596  0.5377  0.0891
  973POPC   D2A14168   8.054  12.581   5.863 -0.2683  0.1683 -0.1847
  973POPC   C3A14169   7.831  12.403   6.242  0.1753  0.0835 -0.0018
  973POPC   C4A14170   7.784  12.480   6.662  0.0819 -0.0275  0.1334
  973POPC   C1B14171   7.621  13.250   6.109 -0.1361 -0.0149 -0.4341
  973POPC   C2B14172   8.016  12.930   6.226 -0.1783 -0.0131  0.0007
  973POPC   C3B14173   8.308  12.516   6.285 -0.2446 -0.1216 -0.0220
  973POPC   C4B14174   8.541  12.156   6.155  0.2413  0.2510  0.2785
  974POPC   NC314175  16.033  17.371   5.236 -0.0141  0.3315 -0.2004
  974POPC   PO414176  15.798  16.897   5.347 -0.2124 -0.4110 -0.0485
  974POPC   GL114177  15.715  17.001   5.671  0.1779  0.2297  0.2798
  974POPC   GL214178  15.366  17.039   5.873 -0.1415  0.0991 -0.4373
  974POPC   C1A14179  15.819  17.211   6.164 -0.0336  0.3420 -0.1276
  974POPC   D2A14180  15.732  17.106   6.562 -0.1714  0.0302  0.0407
  974POPC   C3A14181  15.999  17.243   6.955 -0.0325  0.2412  0.4676
  974POPC   C4A14182  15.926  17.329   7.337  0.0644  0.1299 -0.0737
  974POPC   C1B14183  15.375  16.931   6.289  0.2301 -0.0124 -0.1322
  974POPC   C2B14184  15.335  16.737   6.702  0.2215  0.1792  0.1216
  974POPC   C3B14185  15.172  16.768   6.945 -0.0083  0.2383 -0.0600
  974POPC   C4B14186  15.181  16.796   7.331  0.2111 -0.1394 -0.0215
  975POPC   NC314187   8.759  18.613   4.941 -0.4053 -0.3475  0.2525
  975POPC   PO414188   8.791  19.106   5.124 -0.0583 -0.0569 -0.0542
  975POPC   GL114189   8.820  19.515   5.471 -0.0076  0.0866 -0.2250
  975POPC   GL214190   8.732  19.783   5.229 -0.4508  0.2267  0.0800
  975POPC   C1A14191   8.742  19.516   5.945  0.2351 -0.3426  0.1011
  975POPC   D2A14192   8.673  19.550   6.346  0.1684 -0.1145 -0.0562
  975POPC   C3A14193   8.285  19.427   6.675  0.0705 -0.2533  0.1578
  975POPC   C4A14194   8.255  19.174   7.124  0.0394 -0.0880  0.2285
  975POPC   C1B14195   8.712  20.004   5.632 -0.2791 -0.2652 -0.0383
  975POPC   C2B14196   8.572  20.116   6.136 -0.2288 -0.1451  0.2378
  975POPC   C3B14197   8.514  20.421   6.389  0.2806 -0.1295  0.2360
  975POPC   C4B14198   8.354  20.639   6.792 -0.0398 -0.2782 -0.1276
  976POPC   NC314199   1.055  10.706   4.874  0.0045 -0.2556  0.2239
  976POPC   PO414200   1.287  10.933   5.225  0.2977 -0.0509  0.1454
  976POPC   GL114201   1.279  10.988   5.586 -0.0518 -0.3312  0.2872
  976POPC   GL214202   1.046  10.740   5.696 -0.4250 -0.2980 -0.3540
  976POPC   C1A14203   1.243  10.992   6.122  0.2510 -0.1626  0.0074
  976POPC   D2A14204   1.264  10.984   6.556  0.0096 -0.0597  0.2653
  976POPC   C3A14205   1.119  10.574   6.507 -0.0441 -0.1013  0.2164
  976POPC   C4A14206   1.098  10.235   6.623  0.0284  0.2419  0.1225
  976POPC   C1B14207   1.340  10.551   5.949  0.4905  0.2269  0.2116
  976POPC   C2B14208   1.381  10.252   6.245 -0.2140  0.0026 -0.1271
  976POPC   C3B14209   1.581  10.098   6.638  0.1161  0.2404 -0.2223
  976POPC   C4B14210   1.383  10.016   7.027 -0.0526 -0.2015 -0.0903
  977POPC   NC314211  16.590  14.835   5.468 -0.0684  0.1739 -0.3176
  977POPC   PO414212  16.145  15.000   5.330 -0.0082  0.2852 -0.0351
  977POPC   GL114213  16.170  14.845   5.766  0.0381  0.0157 -0.0287
  977POPC   GL214214  15.963  14.778   6.044  0.3332 -0.0304  0.1403
  977POPC   C1A14215  16.402  14.921   6.175 -0.1344 -0.2619 -0.0452
  977POPC   D2A14216  16.854  14.990   6.248 -0.2114  0.2041 -0.0570
  977POPC   C3A14217  17.020  15.027   6.652  0.1792  0.1144  0.1393
  977POPC   C4A14218  16.945  15.185   6.995 -0.0524 -0.1792 -0.3061
  977POPC   C1B14219  16.073  14.639   6.464 -0.3430 -0.2192  0.0431
  977POPC   C2B14220  16.132  14.741   6.851 -0.1123 -0.1924  0.3951
  977POPC   C3B14221  15.786  14.654   7.146  0.3523  0.0913  0.0165
  977POPC   C4B14222  15.523  14.464   7.413 -0.1473  0.0879  0.0699
  978POPC   NC314223   6.731  13.034   5.410 -0.1121 -0.3440  0.0529
  978POPC   PO414224   7.022  13.346   5.380 -0.1024  0.0618  0.1038
  978POPC   GL114225   7.012  13.450   5.709 -0.2910  0.1202  0.1459
  978POPC   GL214226   6.903  13.728   5.663  0.1679  0.0955 -0.2187
  978POPC   C1A14227   6.973  13.476   6.215  0.3059  0.0451 -0.0657
  978POPC   D2A14228   6.742  13.471   6.566 -0.0220 -0.1951  0.1377
  978POPC   C3A14229   6.361  13.179   6.685  0.0722 -0.0343  0.0600
  978POPC   C4A14230   6.056  13.076   7.107 -0.0131 -0.1609  0.1916
  978POPC   C1B14231   7.366  13.725   6.046 -0.2454  0.4216  0.0568
  978POPC   C2B14232   7.454  13.616   6.530 -0.1385 -0.2041 -0.1269
  978POPC   C3B14233   7.820  13.578   6.764 -0.2821  0.3679 -0.0325
  978POPC   C4B14234   8.220  13.702   6.642  0.0327  0.2265  0.0592
  979POPC   NC314235   3.016   4.676   4.721  0.2446  0.2140  0.1183
  979POPC   PO414236   3.025   4.721   5.144 -0.1374  0.5370  0.2819
  979POPC   GL114237   3.217   4.676   5.562 -0.1302  0.0440  0.1087
  979POPC   GL214238   3.556   4.707   5.500  0.1897  0.4862  0.2718
  979POPC   C1A14239   3.360   4.725   6.006  0.5179 -0.1404 -0.0696
  979POPC   D2A14240   3.536   4.837   6.363  0.0178  0.1220  0.0159
  979POPC   C3A14241   3.423   4.516   6.701 -0.0966  0.1931 -0.2068
  979POPC   C4A14242   3.105   4.136   6.658 -0.4299  0.1639 -0.0944
  979POPC   C1B14243   3.707   4.383   5.823 -0.2444  0.0542 -0.0002
  979POPC   C2B14244   3.962   4.433   6.195  0.0748  0.1000  0.0375
  979POPC   C3B14245   4.179   4.509   6.612 -0.1820 -0.2105  0.0985
  979POPC   C4B14246   4.366   4.306   6.987 -0.1242  0.1641 -0.1520
  980POPC   NC314247   4.118   9.318   5.175  0.1138  0.1475 -0.1029
  980POPC   PO414248   3.815   9.102   5.481 -0.0396  0.1686 -0.1482
  980POPC   GL114249   3.926   8.819   5.831  0.1423  0.1750 -0.3861
  980POPC   GL214250   4.257   8.809   5.993 -0.3256 -0.1137 -0.0182
  980POPC   C1A14251   3.821   8.514   6.084 -0.1640 -0.0619 -0.3361
  980POPC   D2A14252   3.616   8.177   6.224  0.1973 -0.2420 -0.0622
  980POPC   C3A14253   3.769   8.220   6.667 -0.0184 -0.0274  0.0480
  980POPC   C4A14254   3.631   8.142   7.114  0.2246 -0.1593  0.0897
  980POPC   C1B14255   4.370   9.164   6.217 -0.1387  0.2099  0.0681
  980POPC   C2B14256   4.172   9.526   6.469  0.1046  0.1321  0.3255
  980POPC   C3B14257   3.987  10.024   6.442 -0.1463  0.0859 -0.1911
  980POPC   C4B14258   3.637  10.304   6.626 -0.1296  0.2412  0.2277
  981YOPC   NC314259  17.029   6.992   5.554 -0.2025 -0.0078 -0.0382
  981YOPC   PO414260  17.290   7.299   5.572  0.1470 -0.0377  0.2059
  981YOPC   GL114261  17.396   7.307   5.973 -0.2403  0.1125 -0.0048
  981YOPC   GL214262  17.235   7.454   6.062  0.0591 -0.2395  0.1704
  981YOPC   C1A14263  17.544   7.226   6.310 -0.2760  0.1297 -0.0544
  981YOPC   D2A14264  17.610   6.967   6.697  0.1347  0.1247 -0.3393
  981YOPC   C3A14265  17.226   6.913   7.004  0.0272 -0.2998 -0.0582
  981YOPC   C4A14266  16.885   6.756   7.164 -0.1754  0.1509 -0.0846
  981YOPC   C1B14267  16.976   7.674   6.375 -0.0259  0.3729  0.0695
  981YOPC   C2B14268  16.766   7.727   6.734  0.0152  0.1914 -0.2880
  981YOPC   D3B14269  16.692   8.194   6.765 -0.3532 -0.0460  0.1048
  981YOPC   C4B14270  16.826   8.615   6.787 -0.2444 -0.1764  0.3434
  982YOPC   NC314271  17.432  16.501   5.455 -0.0332  0.2231  0.3531
  982YOPC   PO414272  17.257  16.180   5.697 -0.1040  0.1306 -0.0378
  982YOPC   GL114273  17.414  16.029   6.124  0.0633 -0.0168  0.1969
  982YOPC   GL214274  17.152  15.940   6.175  0.2782  0.0086  0.2033
  982YOPC   C1A14275  17.658  15.912   6.394  0.1236 -0.0913  0.2089
  982YOPC   D2A14276  17.957  15.857   6.715  0.1033 -0.0728 -0.2133
  982YOPC   C3A14277  17.920  15.807   7.091 -0.2199 -0.4082  0.0969
  982YOPC   C4A14278  17.907  15.781   7.609 -0.1296  0.0867 -0.1758
  982YOPC   C1B14279  16.915  15.665   6.423 -0.2227 -0.2335  0.2669
  982YOPC   C2B14280  16.935  15.688   6.840  0.0579 -0.0931 -0.0710
  982YOPC   D3B14281  16.712  15.618   7.258  0.1178  0.1338 -0.0833
  982YOPC   C4B14282  16.995  15.427   7.524 -0.1535 -0.0130 -0.2641
  983YOPC   NC314283   0.698   0.225   5.085  0.0143  0.0200 -0.2877
  983YOPC   PO414284   0.443   0.470   5.350 -0.0124 -0.2047  0.0873
  983YOPC   GL114285   0.610   0.280   5.696 -0.1140 -0.1747 -0.0399
  983YOPC   GL214286   0.809   0.080   5.620 -0.0567 -0.0707  0.0933
  983YOPC   C1A14287   0.931   0.313   6.010 -0.1021 -0.1193 -0.1141
  983YOPC   D2A14288   1.076   0.513   6.265 -0.1487 -0.0357  0.0720
  983YOPC   C3A14289   1.375   0.375   6.604  0.0651 -0.3003 -0.2136
  983YOPC   C4A14290   1.505   0.215   6.970 -0.0841 -0.1353 -0.2313
  983YOPC   C1B14291   0.807  -0.190   5.905 -0.0951 -0.2333 -0.0047
  983YOPC   C2B14292   1.160  -0.190   6.107 -0.1523  0.3064 -0.0652
  983YOPC   D3B14293   1.446   0.145   6.183  0.1470  0.2780 -0.1123
  983YOPC   C4B14294   1.898   0.166   6.316  0.1432  0.1631  0.0147
  984YOPC   NC314295  15.960   8.143   5.521  0.0506  0.2717  0.3663
  984YOPC   PO414296  15.510   7.967   5.395  0.1516  0.0481 -0.1257
  984YOPC   GL114297  15.615   7.908   5.853 -0.1161  0.1191  0.0882
  984YOPC   GL214298  15.438   7.771   6.010  0.1215  0.0081 -0.0957
  984YOPC   C1A14299  15.730   8.181   6.242  0.0219  0.1306  0.0477
  984YOPC   D2A14300  15.780   8.316   6.608  0.1596  0.3712 -0.0329
  984YOPC   C3A14301  15.445   8.470   6.794 -0.0524 -0.0137 -0.2098
  984YOPC   C4A14302  15.169   8.732   6.955  0.4066  0.1449 -0.0769
  984YOPC   C1B14303  15.508   7.728   6.438  0.0979  0.0413 -0.0265
  984YOPC   C2B14304  15.550   7.891   6.725  0.0868 -0.1243  0.0847
  984YOPC   D3B14305  15.455   8.030   7.070 -0.1742  0.2568  0.3172
  984YOPC   C4B14306  15.436   8.367   7.306  0.1990  0.1479 -0.0661
  985YOPC   NC314307   5.577  13.816   5.379  0.1542 -0.1586  0.0865
  985YOPC   PO414308   5.480  13.563   5.651 -0.0342 -0.4510 -0.2744
  985YOPC   GL114309   5.623  13.696   6.026  0.1251  0.1543 -0.1418
  985YOPC   GL214310   5.836  13.447   6.252 -0.2767  0.0910 -0.2954
  985YOPC   C1A14311   5.630  13.860   6.484  0.0655 -0.1220 -0.0809
  985YOPC   D2A14312   5.655  13.958   6.907 -0.0178  0.1749  0.1238
  985YOPC   C3A14313   5.982  14.034   7.136 -0.2126 -0.2367  0.0953
  985YOPC   C4A14314   6.420  14.116   7.330 -0.1150  0.0149 -0.1642
  985YOPC   C1B14315   6.061  13.572   6.561  0.2333 -0.2999 -0.1731
  985YOPC   C2B14316   6.215  13.584   7.050 -0.2788 -0.3272  0.2044
  985YOPC   D3B14317   6.598  13.337   7.125 -0.3609  0.1331  0.1915
  985YOPC   C4B14318   6.909  13.180   7.305 -0.0994 -0.3799 -0.0641
  986YOPC   NC314319  17.916  13.368   5.533  0.3140  0.1030  0.1868
  986YOPC   PO414320  18.104  13.199   5.778 -0.0834  0.0642  0.0334
  986YOPC   GL114321  18.374  13.363   5.999 -0.0036 -0.1359 -0.2666
  986YOPC   GL214322  18.506  13.054   6.088 -0.1752 -0.2528 -0.2081
  986YOPC   C1A14323  18.442  13.730   6.308  0.1104 -0.1316 -0.0206
  986YOPC   D2A14324  18.579  14.213   6.274 -0.1935  0.0235 -0.0635
  986YOPC   C3A14325  18.471  14.385   6.660 -0.0905  0.0235 -0.2462
  986YOPC   C4A14326  18.413  14.521   7.180 -0.0291  0.0559 -0.1618
  986YOPC   C1B14327  18.487  13.305   6.494  0.2953 -0.0912 -0.2215
  986YOPC   C2B14328  18.560  13.175   6.837  0.0595 -0.2823  0.0933
  986YOPC   D3B14329  18.372  13.093   7.197  0.0370 -0.2507  0.0292
  986YOPC   C4B14330  18.061  12.852   7.389  0.0786  0.0236  0.3145
  987YOPC   NC314331   7.311   0.417   4.027  0.1644  0.0897 -0.0812
  987YOPC   PO414332   7.642   0.361   4.352 -0.2695 -0.1808  0.1586
  987YOPC   GL114333   7.795   0.243   4.781  0.0015 -0.0579 -0.3277
  987YOPC   GL214334   8.103   0.374   4.973 -0.0227 -0.1689 -0.1682
  987YOPC   C1A14335   7.815  -0.113   5.082 -0.0749  0.0630 -0.1602
  987YOPC   D2A14336   7.822  -0.340   5.506  0.0247 -0.2262  0.0758
  987YOPC   C3A14337   7.995  -0.215   5.806 -0.1834  0.1285 -0.0916
  987YOPC   C4A14338   8.286  -0.131   6.176  0.1573 -0.0664  0.0345
  987YOPC   C1B14339   7.710   0.379   5.267 -0.4172 -0.0177  0.0325
  987YOPC   C2B14340   7.646   0.110   5.542 -0.1198 -0.0201  0.1928
  987YOPC   D3B14341   7.530   0.249   5.959 -0.0929 -0.1376 -0.0097
  987YOPC   C4B14342   7.706   0.550   6.349 -0.1924 -0.3868  0.3778
  988YOPC   NC314343   0.093  10.579   5.444 -0.1748 -0.0967  0.0635
  988YOPC   PO414344  -0.021  11.052   5.586  0.2442  0.0980  0.4344
  988YOPC   GL114345   0.107  11.214   5.968  0.0845 -0.3846  0.0959
  988YOPC   GL214346  -0.058  11.041   6.097  0.1845  0.0861 -0.0956
  988YOPC   C1A14347   0.406  11.315   6.248  0.0498 -0.0794 -0.0471
  988YOPC   D2A14348   0.565  11.385   6.650 -0.1533  0.2421  0.0548
  988YOPC   C3A14349   0.312  11.775   7.011 -0.4373 -0.1538  0.0156
  988YOPC   C4A14350   0.193  12.057   7.418  0.1684 -0.1395 -0.0989
  988YOPC   C1B14351  -0.026  10.983   6.392  0.1802  0.1973  0.0274
  988YOPC   C2B14352   0.259  10.956   6.539  0.4377  0.0503  0.1263
  988YOPC   D3B14353   0.444  10.817   6.864 -0.0078 -0.1213 -0.0655
  988YOPC   C4B14354   0.893  10.896   6.830  0.1532  0.0542 -0.0658
  989YOPC   NC314355  10.970   7.928   4.839 -0.1638  0.0723 -0.3974
  989YOPC   PO414356  10.487   7.977   4.773  0.0984 -0.0643  0.1239
  989YOPC   GL114357  10.500   8.146   5.158 -0.0847  0.1436  0.0310
  989YOPC   GL214358  10.244   8.280   5.378 -0.1216  0.2811 -0.1046
  989YOPC   C1A14359  10.726   8.398   5.521  0.0793  0.1632 -0.2944
  989YOPC   D2A14360  10.489   8.632   5.879  0.2958  0.1623  0.0335
  989YOPC   C3A14361  10.561   8.866   6.310  0.0363  0.3475 -0.0514
  989YOPC   C4A14362  10.745   9.192   6.460  0.0197 -0.0387  0.0164
  989YOPC   C1B14363  10.204   8.254   5.817  0.1537 -0.0136  0.0725
  989YOPC   C2B14364  10.091   7.985   6.289 -0.4620  0.1080  0.0338
  989YOPC   D3B14365   9.742   8.174   6.332  0.1220  0.0239 -0.2119
  989YOPC   C4B14366   9.554   8.175   6.700 -0.1339  0.1062  0.3135
  990YOPC   NC314367  16.976   8.586   5.572 -0.0907  0.1048  0.0802
  990YOPC   PO414368  17.397   8.273   5.449  0.0359  0.0802  0.2039
  990YOPC   GL114369  17.426   8.382   5.893  0.1329 -0.1040 -0.3478
  990YOPC   GL214370  17.126   8.567   6.010  0.4583 -0.0937 -0.2558
  990YOPC   C1A14371  17.627   8.534   6.277 -0.2215  0.3192 -0.1131
  990YOPC   D2A14372  17.649   8.645   6.653 -0.0418  0.2358  0.1087
  990YOPC   C3A14373  17.712   8.555   7.026  0.0709 -0.0549  0.0838
  990YOPC   C4A14374  17.959   8.501   7.387 -0.0752  0.4585  0.1199
  990YOPC   C1B14375  17.367   8.972   6.042 -0.3368 -0.2057 -0.2217
  990YOPC   C2B14376  17.583   9.446   6.129  0.0545 -0.0902  0.0331
  990YOPC   D3B14377  17.742   9.608   6.489  0.1490  0.3172 -0.1679
  990YOPC   C4B14378  17.541   9.577   6.927 -0.0707  0.0940  0.0195
  991YOPC   NC314379   3.093  13.071   5.700  0.0530 -0.3092 -0.1381
  991YOPC   PO414380   2.702  12.942   5.794 -0.2072 -0.0142 -0.0546
  991YOPC   GL114381   2.486  13.010   6.132 -0.2297  0.0652  0.0264
  991YOPC   GL214382   2.263  12.737   6.119  0.3516  0.0945 -0.1960
  991YOPC   C1A14383   2.417  13.053   6.541  0.0850 -0.0975  0.1407
  991YOPC   D2A14384   2.457  13.133   7.036  0.0163  0.0004 -0.1099
  991YOPC   C3A14385   2.716  13.022   7.389 -0.0469  0.0646 -0.3220
  991YOPC   C4A14386   2.918  13.464   7.592 -0.3264  0.0079  0.2071
  991YOPC   C1B14387   2.265  12.499   6.473 -0.2619  0.3117  0.2438
  991YOPC   C2B14388   2.316  12.534   6.995  0.3091 -0.0454 -0.0408
  991YOPC   D3B14389   2.512  12.528   7.346  0.0538  0.1141 -0.2074
  991YOPC   C4B14390   2.789  12.577   7.680  0.5142 -0.0317  0.0230
  992YOPC   NC314391  16.727   4.565   5.493  0.0985  0.2940 -0.1206
  992YOPC   PO414392  17.063   4.709   5.543  0.1787  0.1387 -0.1037
  992YOPC   GL114393  16.924   4.524   5.960 -0.1629 -0.0519 -0.0905
  992YOPC   GL214394  16.958   4.279   6.188 -0.2590 -0.0992  0.0057
  992YOPC   C1A14395  16.520   4.575   6.257 -0.2244  0.0788 -0.1137
  992YOPC   D2A14396  16.396   4.577   6.486  0.4546 -0.4318  0.4134
  992YOPC   C3A14397  16.448   4.878   6.724 -0.1619  0.0607 -0.1172
  992YOPC   C4A14398  16.191   5.042   7.137 -0.2650  0.5005  0.3122
  992YOPC   C1B14399  16.992   4.422   6.553 -0.3027  0.4183 -0.2211
  992YOPC   C2B14400  16.754   4.488   7.013  0.1602  0.0706 -0.0376
  992YOPC   D3B14401  16.726   4.957   7.116 -0.1990 -0.0005 -0.4885
  992YOPC   C4B14402  16.633   5.287   7.249  0.3149 -0.1141  0.1241
  993YOPC   NC314403  11.818  16.970   5.603  0.1692 -0.2387  0.0954
  993YOPC   PO414404  12.200  16.796   5.494  0.0139  0.0668 -0.0146
  993YOPC   GL114405  12.350  16.950   5.886 -0.0419 -0.1322  0.0719
  993YOPC   GL214406  12.615  16.951   5.965 -0.0398 -0.0137 -0.1760
  993YOPC   C1A14407  12.253  16.986   6.379 -0.0210 -0.0335 -0.1653
  993YOPC   D2A14408  12.221  17.078   6.814 -0.1380  0.1827  0.2674
  993YOPC   C3A14409  12.100  17.305   7.078 -0.1293 -0.0374  0.0950
  993YOPC   C4A14410  12.006  17.174   7.590 -0.2288  0.1125 -0.1086
  993YOPC   C1B14411  12.740  16.854   6.394 -0.1046 -0.1758 -0.4683
  993YOPC   C2B14412  12.694  16.833   6.825  0.0763 -0.1400  0.1317
  993YOPC   D3B14413  12.863  16.411   6.929 -0.0197  0.1454  0.0462
  993YOPC   C4B14414  12.979  15.994   6.692  0.1121 -0.3063 -0.0356
  994YOPC   NC314415  15.290   9.505   5.603 -0.1219  0.2034 -0.0218
  994YOPC   PO414416  14.929   9.813   5.621  0.0291  0.2641  0.2343
  994YOPC   GL114417  15.192   9.991   5.851  0.1620 -0.0030  0.2183
  994YOPC   GL214418  15.128  10.323   5.831 -0.2607  0.0618 -0.2219
  994YOPC   C1A14419  15.096   9.976   6.302 -0.3818  0.0175 -0.0271
  994YOPC   D2A14420  15.155   9.854   6.672 -0.1172 -0.1248 -0.0655
  994YOPC   C3A14421  15.370   9.993   6.957 -0.0751 -0.0315 -0.0935
  994YOPC   C4A14422  15.575   9.683   7.250 -0.1465 -0.3256 -0.0631
  994YOPC   C1B14423  15.094  10.472   6.302  0.1597  0.3460  0.0492
  994YOPC   C2B14424  14.979  10.766   6.597 -0.0179  0.2005  0.0994
  994YOPC   D3B14425  14.848  10.744   7.033  0.3965 -0.2332 -0.1636
  994YOPC   C4B14426  14.971  10.584   7.359 -0.1756 -0.0527  0.0230
  995YOPC   NC314427   7.180  10.164   5.039  0.3108 -0.2661  0.1300
  995YOPC   PO414428   7.332  10.635   5.047  0.0035 -0.3190 -0.1948
  995YOPC   GL114429   7.164  10.544   5.335  0.0520 -0.0101 -0.1066
  995YOPC   GL214430   7.474  10.497   5.632 -0.3322 -0.0933 -0.0740
  995YOPC   C1A14431   6.841  10.663   5.664 -0.0069  0.3752  0.0424
  995YOPC   D2A14432   6.613  10.588   6.044  0.0928 -0.0465 -0.0232
  995YOPC   C3A14433   6.306  10.420   6.084 -0.1328 -0.0276  0.4672
  995YOPC   C4A14434   6.175  10.007   6.337  0.2456 -0.0694  0.1535
  995YOPC   C1B14435   7.652  10.551   5.864 -0.3126 -0.1437  0.2338
  995YOPC   C2B14436   7.755  10.634   6.251  0.1809 -0.0230 -0.3805
  995YOPC   D3B14437   7.522  10.831   6.481 -0.3150 -0.0217  0.2538
  995YOPC   C4B14438   7.332  11.253   6.655 -0.2202 -0.2039  0.0162
  996YOPC   NC314439  15.670   6.035   5.254  0.3078  0.0249  0.0535
  996YOPC   PO414440  15.873   5.686   5.393 -0.1582  0.0750  0.3139
  996YOPC   GL114441  15.939   5.284   5.645 -0.0003 -0.4208  0.1663
  996YOPC   GL214442  16.220   5.363   5.837 -0.0839  0.1106 -0.1179
  996YOPC   C1A14443  15.782   5.210   6.128  0.2491  0.1958 -0.0309
  996YOPC   D2A14444  15.582   5.274   6.517  0.0891  0.0884  0.2490
  996YOPC   C3A14445  15.474   5.700   6.589  0.1205  0.0202 -0.0778
  996YOPC   C4A14446  15.209   5.900   6.393  0.2756 -0.0254 -0.4351
  996YOPC   C1B14447  16.354   5.430   6.187 -0.0275  0.1115 -0.1258
  996YOPC   C2B14448  16.520   5.319   6.444 -0.2869 -0.1151 -0.0829
  996YOPC   D3B14449  16.367   5.413   6.792 -0.0774 -0.0258  0.0128
  996YOPC   C4B14450  16.247   5.585   7.145 -0.1670 -0.3137  0.1308
  997YOPC   NC314451  14.457  16.685   5.767  0.1813 -0.1952  0.1409
  997YOPC   PO414452  14.896  16.853   5.631  0.2102 -0.1179  0.2265
  997YOPC   GL114453  14.875  17.012   6.048  0.2893  0.1849 -0.0978
  997YOPC   GL214454  14.589  17.200   6.056 -0.0306 -0.0297 -0.2736
  997YOPC   C1A14455  14.861  16.966   6.531  0.0740 -0.0079  0.2818
  997YOPC   D2A14456  14.659  17.077   6.776 -0.0599 -0.2531  0.1060
  997YOPC   C3A14457  14.518  16.759   7.026  0.2466 -0.1955  0.2695
  997YOPC   C4A14458  14.483  16.705   7.454 -0.0824  0.1411 -0.2841
  997YOPC   C1B14459  14.473  16.740   6.341  0.0957  0.2296  0.1868
  997YOPC   C2B14460  14.313  16.378   6.490  0.4324  0.1778  0.1280
  997YOPC   D3B14461  14.212  16.292   6.843  0.0662 -0.0489  0.0562
  997YOPC   C4B14462  13.727  16.239   6.975  0.2124 -0.1895 -0.2243
  998YOPC   NC314463  16.103   1.593   5.334  0.3171 -0.1036 -0.0351
  998YOPC   PO414464  15.702   1.288   5.308  0.0024 -0.0565  0.0877
  998YOPC   GL114465  15.618   1.039   5.757  0.1662  0.2298 -0.2851
  998YOPC   GL214466  15.442   0.818   5.596  0.0405 -0.1937 -0.1554
  998YOPC   C1A14467  15.410   1.058   6.256  0.0624  0.1154  0.3178
  998YOPC   D2A14468  15.233   0.774   6.479  0.0610  0.0096  0.0123
  998YOPC   C3A14469  15.184   0.442   6.711  0.0576  0.1590 -0.2055
  998YOPC   C4A14470  15.211   0.083   6.681 -0.0718  0.2265  0.1275
  998YOPC   C1B14471  15.303   0.622   6.017 -0.2962  0.3128 -0.0893
  998YOPC   C2B14472  15.648   0.426   6.312  0.2091 -0.0693 -0.1026
  998YOPC   D3B14473  15.573  -0.060   6.343 -0.2763  0.2083  0.0468
  998YOPC   C4B14474  15.514  -0.336   6.648 -0.1255 -0.0050 -0.0381
  999YOPC   NC314475   8.517   9.643   5.051  0.0840  0.0395 -0.0031
  999YOPC   PO414476   8.838   9.905   5.021  0.2621 -0.2498  0.1634
  999YOPC   GL114477   8.729   9.822   5.462 -0.1130  0.2048 -0.0312
  999YOPC   GL214478   8.477   9.999   5.540 -0.1963  0.0843 -0.2067
  999YOPC   C1A14479   8.724   9.662   5.939 -0.1438 -0.0640  0.0340
  999YOPC   D2A14480   8.813   9.640   6.330  0.1741 -0.1528 -0.0972
  999YOPC   C3A14481   8.683   9.265   6.368 -0.1451  0.1054  0.1214
  999YOPC   C4A14482   8.373   9.093   6.486  0.1150  0.0204 -0.1469
  999YOPC   C1B14483   8.241   9.856   5.847 -0.0007 -0.1453 -0.0411
  999YOPC   C2B14484   7.814   9.937   5.945  0.1507  0.1094 -0.1843
  999YOPC   D3B14485   7.579  10.126   6.164 -0.0340 -0.2083 -0.0178
  999YOPC   C4B14486   7.331  10.408   6.457 -0.2270  0.1566 -0.0024
 1000YOPC   NC314487   9.697  14.021   5.223  0.0334 -0.0102  0.0256
 1000YOPC   PO414488   9.335  14.228   5.048  0.1793  0.0128 -0.1219
 1000YOPC   GL114489   9.191  14.169   5.474 -0.4286  0.3349  0.1471
 1000YOPC   GL214490   9.084  13.861   5.451 -0.1129  0.0047 -0.1180
 1000YOPC   C1A14491   9.220  14.117   5.920 -0.0909  0.0567 -0.0100
 1000YOPC   D2A14492   9.182  14.276   6.262  0.2826  0.1662  0.0108
 1000YOPC   C3A14493   9.147  14.760   6.424  0.3693 -0.1982  0.1043
 1000YOPC   C4A14494   9.347  14.978   6.810  0.2243 -0.1460 -0.0959
 1000YOPC   C1B14495   9.298  13.655   5.678  0.3781  0.1312  0.0874
 1000YOPC   C2B14496   9.194  13.377   6.100 -0.1667 -0.0609  0.0546
 1000YOPC   D3B14497   9.220  13.312   6.506 -0.1630 -0.2538 -0.1572
 1000YOPC   C4B14498   9.254  13.533   6.798  0.1385  0.1430  0.0295
 1001YOPC   NC314499   6.710   7.248   4.445 -0.1611  0.0838 -0.3269
 1001YOPC   PO414500   6.520   7.477   4.832 -0.3133  0.3404 -0.0706
 1001YOPC   GL114501   6.521   7.479   5.239  0.0812 -0.1613  0.3419
 1001YOPC   GL214502   6.857   7.210   5.283  0.0869 -0.1501 -0.4798
 1001YOPC   C1A14503   6.759   7.697   5.515  0.1295  0.1030  0.0895
 1001YOPC   D2A14504   6.797   8.158   5.537 -0.1028 -0.0450 -0.0770
 1001YOPC   C3A14505   6.681   8.417   5.915  0.4288  0.2565 -0.0415
 1001YOPC   C4A14506   6.478   8.537   6.304 -0.0512 -0.1323 -0.0167
 1001YOPC   C1B14507   7.318   7.122   5.389  0.0904 -0.1738  0.0985
 1001YOPC   C2B14508   7.423   6.978   5.739 -0.1986  0.2636  0.1332
 1001YOPC   D3B14509   7.388   7.123   6.114  0.0322 -0.1493 -0.0900
 1001YOPC   C4B14510   7.057   7.379   6.310  0.0568 -0.0235 -0.0226
 1002YOPC   NC314511   4.730  16.083   5.075  0.1267  0.0763  0.2181
 1002YOPC   PO414512   4.525  15.742   5.332 -0.3025 -0.2074 -0.2674
 1002YOPC   GL114513   4.581  16.085   5.647 -0.0542  0.1334  0.0702
 1002YOPC   GL214514   4.243  16.184   5.764 -0.0889 -0.1334 -0.0871
 1002YOPC   C1A14515   4.644  16.079   6.125  0.4119  0.1964 -0.0948
 1002YOPC   D2A14516   4.945  15.843   6.427  0.1399 -0.3705 -0.2064
 1002YOPC   C3A14517   4.950  15.886   6.828 -0.1280 -0.1134  0.0169
 1002YOPC   C4A14518   4.820  15.706   7.206 -0.1690  0.0065 -0.0159
 1002YOPC   C1B14519   3.932  16.049   6.043  0.1007 -0.0021 -0.1228
 1002YOPC   C2B14520   4.148  15.803   6.344 -0.1536  0.0076 -0.0403
 1002YOPC   D3B14521   4.438  15.984   6.604 -0.3201 -0.2718 -0.2555
 1002YOPC   C4B14522   4.742  16.280   6.552 -0.0526  0.1064 -0.0375
 1003YOPC   NC314523   2.097   8.362   5.020 -0.2365 -0.0496  0.1016
 1003YOPC   PO414524   1.774   8.058   5.031  0.3434  0.1545 -0.0994
 1003YOPC   GL114525   1.905   7.897   5.330  0.1008 -0.4608  0.2353
 1003YOPC   GL214526   1.867   8.023   5.620  0.1131  0.0260 -0.1571
 1003YOPC   C1A14527   2.048   7.553   5.699  0.1029 -0.0567  0.3022
 1003YOPC   D2A14528   2.327   7.194   5.871  0.2883  0.2242  0.0792
 1003YOPC   C3A14529   2.698   7.390   6.050  0.3601 -0.2444  0.3604
 1003YOPC   C4A14530   3.177   7.457   5.979 -0.0782 -0.1866 -0.0421
 1003YOPC   C1B14531   2.018   8.013   5.994 -0.0703 -0.3059  0.0956
 1003YOPC   C2B14532   2.262   7.659   6.242 -0.2896  0.1068  0.3613
 1003YOPC   D3B14533   2.546   7.864   6.594  0.0184 -0.4030 -0.3826
 1003YOPC   C4B14534   2.751   8.248   6.916 -0.3652 -0.0078  0.1124
 1004YOPC   NC314535   7.953  11.766   5.204 -0.0556 -0.1555  0.3084
 1004YOPC   PO414536   7.872  11.339   5.140  0.1141  0.0661 -0.2914
 1004YOPC   GL114537   8.160  11.346   5.467 -0.0836 -0.0559 -0.0928
 1004YOPC   GL214538   7.926  11.528   5.621  0.2721  0.1245 -0.1175
 1004YOPC   C1A14539   8.404  11.350   5.893  0.1120 -0.0488  0.3912
 1004YOPC   D2A14540   8.722  11.497   6.176 -0.1464 -0.0271  0.0113
 1004YOPC   C3A14541   8.525  11.693   6.532 -0.1141  0.2205 -0.1946
 1004YOPC   C4A14542   8.092  12.059   6.544  0.1259  0.2314  0.0150
 1004YOPC   C1B14543   7.602  11.501   5.978  0.0254  0.1171  0.0349
 1004YOPC   C2B14544   7.713  11.636   6.483  0.2485  0.0530 -0.1833
 1004YOPC   D3B14545   7.836  11.406   6.883  0.0603 -0.0978 -0.0795
 1004YOPC   C4B14546   7.988  11.357   7.253  0.1517 -0.0055 -0.0417
 1005YOPC   NC314547   3.351  12.557   5.031  0.2135 -0.2023 -0.2773
 1005YOPC   PO414548   3.338  12.534   5.422 -0.1120 -0.0851  0.1929
 1005YOPC   GL114549   3.390  12.673   5.854  0.3642  0.0136 -0.3417
 1005YOPC   GL214550   3.111  12.565   6.049 -0.2299 -0.0872 -0.0751
 1005YOPC   C1A14551   3.350  12.852   6.360 -0.1021  0.1962  0.2186
 1005YOPC   D2A14552   3.515  13.161   6.670  0.2472  0.0387 -0.0932
 1005YOPC   C3A14553   3.388  13.267   7.044  0.3658  0.0425  0.1330
 1005YOPC   C4A14554   3.253  13.721   7.191  0.2339  0.0763 -0.0502
 1005YOPC   C1B14555   3.057  12.441   6.518 -0.0987  0.0544  0.1475
 1005YOPC   C2B14556   3.226  12.076   6.847 -0.2275 -0.0420  0.2043
 1005YOPC   D3B14557   3.588  12.083   6.971 -0.4777  0.0415 -0.1475
 1005YOPC   C4B14558   3.880  12.331   7.095 -0.0541 -0.1782  0.0548
 1006YOPC   NC314559  11.770   0.665   4.785  0.0983  0.3147 -0.0354
 1006YOPC   PO414560  11.877   0.516   5.087 -0.0543 -0.1634 -0.0125
 1006YOPC   GL114561  11.609   0.425   5.402 -0.2997  0.0641  0.3060
 1006YOPC   GL214562  11.373   0.530   5.138 -0.0114  0.0818 -0.2526
 1006YOPC   C1A14563  11.357   0.495   5.730 -0.2180 -0.1336 -0.0791
 1006YOPC   D2A14564  11.041   0.725   5.919  0.3138  0.1545  0.1118
 1006YOPC   C3A14565  10.712   0.964   5.713  0.1802 -0.2649 -0.1903
 1006YOPC   C4A14566  10.694   1.297   5.755  0.1196 -0.1598 -0.0153
 1006YOPC   C1B14567  11.100   0.623   5.353 -0.0301  0.0211 -0.0284
 1006YOPC   C2B14568  10.823   0.538   5.510 -0.2945  0.2680 -0.1954
 1006YOPC   D3B14569  10.886   0.252   5.726 -0.2353 -0.3417 -0.3664
 1006YOPC   C4B14570  10.805  -0.177   5.652  0.1259  0.0814  0.1886
 1007YOPC   NC314571   9.310  15.480   5.927 -0.0597  0.1041  0.1142
 1007YOPC   PO414572   9.782  15.439   5.906 -0.1542 -0.0806  0.2198
 1007YOPC   GL114573  10.055  15.641   6.140 -0.0016 -0.1705  0.0938
 1007YOPC   GL214574  10.358  15.756   6.037  0.1271 -0.0498 -0.0363
 1007YOPC   C1A14575  10.273  15.625   6.529  0.0622  0.0109  0.0425
 1007YOPC   D2A14576  10.285  15.591   6.893 -0.1322 -0.0362  0.1881
 1007YOPC   C3A14577  10.342  15.699   7.196  0.0765  0.0923 -0.0703
 1007YOPC   C4A14578  10.340  16.233   7.202 -0.2041 -0.1297  0.0027
 1007YOPC   C1B14579  10.735  15.956   6.006  0.2714 -0.2486  0.2263
 1007YOPC   C2B14580  11.076  16.051   6.191 -0.0798 -0.2581  0.2964
 1007YOPC   D3B14581  11.102  16.030   6.599  0.1754 -0.2072  0.0283
 1007YOPC   C4B14582  11.382  16.158   6.826 -0.2554 -0.0373 -0.0966
 1008YOPC   NC314583  13.452  16.922   5.417  0.1633  0.0301  0.4129
 1008YOPC   PO414584  13.168  16.634   5.617 -0.1145 -0.2351 -0.1807
 1008YOPC   GL114585  13.083  16.662   5.998 -0.1989  0.4528 -0.0517
 1008YOPC   GL214586  13.378  16.686   6.238 -0.1153 -0.0963 -0.0902
 1008YOPC   C1A14587  13.011  16.399   6.397  0.0701 -0.2492  0.1650
 1008YOPC   D2A14588  13.350  16.328   6.650 -0.0490 -0.0421 -0.3255
 1008YOPC   C3A14589  13.280  16.022   7.127  0.0669 -0.0774  0.1947
 1008YOPC   C4A14590  13.553  15.850   7.371 -0.0925 -0.3127  0.1497
 1008YOPC   C1B14591  13.185  16.851   6.637 -0.1407  0.0862 -0.1483
 1008YOPC   C2B14592  13.123  17.031   7.051 -0.0367  0.0542  0.0999
 1008YOPC   D3B14593  13.059  16.719   7.343 -0.1727 -0.0321 -0.2124
 1008YOPC   C4B14594  13.001  16.321   7.444 -0.1694  0.0197 -0.1183
 1009YOPC   NC314595   3.587  16.925   5.055  0.2210  0.1170 -0.0420
 1009YOPC   PO414596   3.348  17.298   5.106 -0.0901  0.0893 -0.0904
 1009YOPC   GL114597   3.388  17.175   5.509 -0.1573  0.0037 -0.1852
 1009YOPC   GL214598   3.292  16.838   5.470 -0.0570  0.2436  0.1758
 1009YOPC   C1A14599   3.402  17.315   5.996  0.4352 -0.0019  0.1551
 1009YOPC   D2A14600   3.144  17.024   6.273  0.1454 -0.0590 -0.1698
 1009YOPC   C3A14601   3.402  17.117   6.702 -0.1280 -0.2308  0.0342
 1009YOPC   C4A14602   3.333  17.033   7.089  0.1505  0.0942 -0.0938
 1009YOPC   C1B14603   3.508  16.850   5.919  0.0819 -0.0649 -0.0435
 1009YOPC   C2B14604   3.716  16.882   6.305  0.2926 -0.0856  0.1661
 1009YOPC   D3B14605   4.174  16.858   6.499  0.2389  0.0151 -0.2819
 1009YOPC   C4B14606   4.406  17.158   6.884 -0.0100  0.0898  0.2473
 1010YOPC   NC314607  11.605   7.469   4.973  0.2287 -0.1827 -0.2999
 1010YOPC   PO414608  11.351   7.134   5.012  0.1880 -0.0332 -0.1719
 1010YOPC   GL114609  11.327   7.204   5.495  0.0020 -0.1954 -0.4495
 1010YOPC   GL214610  11.515   6.950   5.674  0.1745 -0.1237  0.0913
 1010YOPC   C1A14611  11.199   7.575   5.738  0.2944  0.0100  0.2290
 1010YOPC   D2A14612  11.059   7.849   6.078  0.2115  0.1561 -0.2566
 1010YOPC   C3A14613  11.126   7.856   6.576 -0.0560 -0.1265  0.5196
 1010YOPC   C4A14614  10.877   8.008   6.861  0.1883  0.0312  0.1654
 1010YOPC   C1B14615  11.441   7.221   6.060  0.1814  0.1986  0.1496
 1010YOPC   C2B14616  11.275   7.421   6.264  0.0281 -0.0833  0.0464
 1010YOPC   D3B14617  11.140   7.378   6.747  0.2409  0.3605  0.1649
 1010YOPC   C4B14618  11.274   7.692   7.054 -0.1568 -0.2947  0.0609
 1011YOPC   NC314619   7.082   4.079   4.419  0.2492  0.0110  0.0791
 1011YOPC   PO414620   7.318   4.024   4.863 -0.0178  0.0639  0.3463
 1011YOPC   GL114621   7.419   4.073   5.319 -0.1898 -0.1475 -0.1235
 1011YOPC   GL214622   7.661   4.023   5.264 -0.3098 -0.0858 -0.3537
 1011YOPC   C1A14623   7.412   4.126   5.716 -0.3120 -0.0011  0.0329
 1011YOPC   D2A14624   7.125   4.224   6.116  0.4656  0.0324  0.0430
 1011YOPC   C3A14625   7.323   4.204   6.518  0.0551  0.2365 -0.4206
 1011YOPC   C4A14626   7.494   4.098   6.971  0.0346  0.0718 -0.0064
 1011YOPC   C1B14627   8.045   3.875   5.415  0.0632 -0.1054 -0.1539
 1011YOPC   C2B14628   8.025   3.657   5.658 -0.0802  0.0206 -0.1396
 1011YOPC   D3B14629   7.809   3.830   6.025 -0.0002  0.0014 -0.0330
 1011YOPC   C4B14630   7.659   4.265   6.150  0.0370  0.1048  0.0162
 1012YOPC   NC314631   2.421  18.872   5.269  0.0345  0.2178 -0.3352
 1012YOPC   PO414632   1.963  18.986   5.217  0.1467 -0.5429 -0.2886
 1012YOPC   GL114633   2.013  18.963   5.666  0.6002 -0.0900 -0.1366
 1012YOPC   GL214634   1.731  18.693   5.803  0.1952  0.0993 -0.3017
 1012YOPC   C1A14635   1.922  19.190   6.020 -0.0484  0.1692 -0.3721
 1012YOPC   D2A14636   1.624  19.158   6.458 -0.3553  0.0963 -0.0677
 1012YOPC   C3A14637   1.272  19.296   6.670 -0.1009  0.1866  0.1563
 1012YOPC   C4A14638   0.956  19.527   6.665 -0.1678 -0.0016  0.2694
 1012YOPC   C1B14639   1.940  18.272   5.824 -0.2226 -0.0637  0.1164
 1012YOPC   C2B14640   2.232  18.076   6.118 -0.1593  0.0669 -0.1713
 1012YOPC   D3B14641   2.440  17.951   6.493 -0.0001 -0.2494  0.2559
 1012YOPC   C4B14642   2.372  18.263   6.839 -0.1296  0.0278 -0.3284
 1013YOPC   NC314643   5.688   3.212   4.672  0.1024 -0.3028  0.0029
 1013YOPC   PO414644   5.665   3.582   4.351 -0.1345  0.1813  0.1621
 1013YOPC   GL114645   5.720   3.727   4.764  0.3734 -0.0578  0.0903
 1013YOPC   GL214646   5.928   3.554   4.937 -0.4088  0.0893  0.0371
 1013YOPC   C1A14647   5.570   3.828   5.180  0.0884  0.0851  0.1619
 1013YOPC   D2A14648   5.661   3.990   5.647 -0.0097  0.2596  0.0219
 1013YOPC   C3A14649   5.461   4.185   5.914 -0.0825 -0.1855  0.1673
 1013YOPC   C4A14650   5.646   4.476   6.229 -0.2303  0.3218 -0.1505
 1013YOPC   C1B14651   5.955   3.542   5.428 -0.0592 -0.0746  0.2467
 1013YOPC   C2B14652   5.976   3.540   5.888 -0.2274 -0.1982  0.2632
 1013YOPC   D3B14653   5.852   3.831   6.100  0.0174 -0.0715 -0.1633
 1013YOPC   C4B14654   6.120   4.132   6.318  0.0203  0.0141  0.0954
 1014YOPC   NC314655   2.230  15.547   4.994  0.0658  0.1618  0.0743
 1014YOPC   PO414656   2.478  15.622   5.388  0.0858 -0.0113 -0.0823
 1014YOPC   GL114657   2.359  15.779   5.791  0.0852 -0.0231 -0.1359
 1014YOPC   GL214658   2.608  15.994   6.005  0.0142  0.2662  0.1937
 1014YOPC   C1A14659   2.137  15.876   6.276  0.1645 -0.3875  0.0029
 1014YOPC   D2A14660   2.124  16.066   6.702  0.0309 -0.1229  0.1661
 1014YOPC   C3A14661   2.207  16.126   7.092 -0.0994 -0.0838 -0.0876
 1014YOPC   C4A14662   2.442  16.093   7.548  0.1192 -0.1537  0.2635
 1014YOPC   C1B14663   2.627  15.669   6.191 -0.0536 -0.0609  0.0566
 1014YOPC   C2B14664   3.049  15.561   6.323  0.2843 -0.0442  0.0421
 1014YOPC   D3B14665   3.329  15.745   6.524  0.1874  0.0241 -0.0426
 1014YOPC   C4B14666   3.657  15.947   6.534  0.2441  0.2525  0.1335
 1015YOPC   NC314667  18.626   8.607   5.362  0.5111  0.1220  0.2029
 1015YOPC   PO414668  19.004   8.415   5.624  0.2133  0.0142 -0.0900
 1015YOPC   GL114669  19.205   8.197   5.927  0.2534 -0.3101  0.1745
 1015YOPC   GL214670  18.946   8.111   6.083  0.0475  0.2573  0.1511
 1015YOPC   C1A14671  19.300   8.400   6.285 -0.1185 -0.0995  0.1269
 1015YOPC   D2A14672  19.054   8.581   6.559  0.2246  0.2933 -0.1377
 1015YOPC   C3A14673  18.741   8.880   6.427  0.1428 -0.0930 -0.2843
 1015YOPC   C4A14674  18.468   9.105   6.590  0.0165 -0.1101  0.1649
 1015YOPC   C1B14675  18.996   8.063   6.527 -0.1303  0.3558 -0.0351
 1015YOPC   C2B14676  19.335   8.132   6.728 -0.3567  0.1542 -0.1517
 1015YOPC   D3B14677  19.377   8.505   6.900  0.0159 -0.0952  0.1189
 1015YOPC   C4B14678  19.446   8.857   7.265  0.0264 -0.2397 -0.0166
 1016YOPC   NC314679   4.911   9.704   4.859  0.2360 -0.3182 -0.0834
 1016YOPC   PO414680   4.876   9.286   4.821 -0.0450 -0.2147 -0.0895
 1016YOPC   GL114681   4.986   9.404   5.351 -0.0051 -0.0453  0.2215
 1016YOPC   GL214682   5.299   9.234   5.482  0.0697  0.3244 -0.2581
 1016YOPC   C1A14683   4.799   9.640   5.761 -0.3047 -0.0660  0.2534
 1016YOPC   D2A14684   4.337   9.625   6.028  0.1845 -0.0264  0.0083
 1016YOPC   C3A14685   3.913   9.761   5.974 -0.0322  0.2189  0.0679
 1016YOPC   C4A14686   3.489   9.827   6.022  0.2032  0.0483  0.2775
 1016YOPC   C1B14687   5.204   9.390   5.900 -0.2478  0.0536 -0.0525
 1016YOPC   C2B14688   5.223   9.612   6.305 -0.0838  0.0023 -0.0913
 1016YOPC   D3B14689   5.194   9.536   6.667 -0.1857 -0.2341  0.0956
 1016YOPC   C4B14690   5.122   9.722   7.069 -0.1649  0.1834 -0.1015
 1017YOPC   NC314691  11.402  12.301   5.178  0.1509  0.0749 -0.1584
 1017YOPC   PO414692  11.740  12.277   5.287  0.0579 -0.2108 -0.0532
 1017YOPC   GL114693  11.875  12.289   5.705  0.4401 -0.0387  0.0637
 1017YOPC   GL214694  12.148  12.420   5.834  0.1223  0.2060 -0.3249
 1017YOPC   C1A14695  11.687  12.345   6.149  0.1406 -0.1256 -0.0332
 1017YOPC   D2A14696  11.428  12.547   6.404  0.1291 -0.2616 -0.0177
 1017YOPC   C3A14697  11.021  12.462   6.372  0.2994  0.3201  0.0459
 1017YOPC   C4A14698  10.814  12.146   6.576  0.0110 -0.1148 -0.0101
 1017YOPC   C1B14699  12.219  12.454   6.240  0.1468  0.1169 -0.2006
 1017YOPC   C2B14700  12.102  12.470   6.585 -0.0511  0.1436  0.0555
 1017YOPC   D3B14701  12.095  12.547   7.034 -0.1197  0.1098  0.2682
 1017YOPC   C4B14702  12.489  12.650   7.206 -0.0455  0.0515  0.0110
 1018YOPC   NC314703   9.408  17.620   5.018  0.0275 -0.2164 -0.2917
 1018YOPC   PO414704   9.514  17.866   5.297  0.1150  0.0939  0.1451
 1018YOPC   GL114705   9.809  18.027   5.422  0.1209 -0.3506 -0.0342
 1018YOPC   GL214706  10.178  17.955   5.353 -0.0370  0.1354 -0.0642
 1018YOPC   C1A14707   9.991  18.120   5.881 -0.1085 -0.2850  0.0431
 1018YOPC   D2A14708  10.212  18.377   6.132 -0.2018  0.1068 -0.0154
 1018YOPC   C3A14709  10.115  18.302   6.557  0.0892 -0.3912  0.4252
 1018YOPC   C4A14710  10.114  18.102   7.084 -0.1328  0.1264  0.1598
 1018YOPC   C1B14711  10.042  17.632   5.650  0.0363  0.0304 -0.0656
 1018YOPC   C2B14712   9.581  17.518   5.666 -0.1004  0.1571  0.0961
 1018YOPC   D3B14713   9.477  17.121   5.834  0.2499  0.1281 -0.0975
 1018YOPC   C4B14714   9.301  16.864   6.127 -0.0407 -0.1384  0.3482
 1019YOPC   NC314715  16.298   2.251   5.610  0.1332 -0.4212 -0.2528
 1019YOPC   PO414716  15.938   2.050   5.511 -0.0639 -0.2247  0.1464
 1019YOPC   GL114717  15.901   2.115   5.977  0.1042  0.1618  0.0001
 1019YOPC   GL214718  16.148   1.950   6.110 -0.2315 -0.2070  0.2897
 1019YOPC   C1A14719  16.028   2.176   6.534 -0.1112 -0.0233  0.3561
 1019YOPC   D2A14720  16.179   1.929   6.922 -0.2081 -0.1560  0.1739
 1019YOPC   C3A14721  16.443   1.879   7.216 -0.0540  0.2123 -0.2210
 1019YOPC   C4A14722  16.551   1.690   7.697 -0.2955 -0.2696  0.1440
 1019YOPC   C1B14723  16.210   1.717   6.449  0.1696 -0.0798  0.1684
 1019YOPC   C2B14724  16.174   1.447   6.761 -0.3528 -0.0175 -0.0087
 1019YOPC   D3B14725  15.845   1.533   7.094 -0.3292 -0.1984  0.3729
 1019YOPC   C4B14726  16.005   1.870   7.441 -0.0332 -0.0430 -0.1707
 1020YOPC   NC314727   8.323   8.998   4.944  0.2137  0.0750 -0.1532
 1020YOPC   PO414728   8.056   8.609   5.029 -0.1484  0.0405  0.3636
 1020YOPC   GL114729   8.415   8.673   5.388 -0.0562 -0.0557  0.0897
 1020YOPC   GL214730   8.742   8.565   5.337 -0.0170  0.2010 -0.3004
 1020YOPC   C1A14731   8.383   8.337   5.733  0.0477 -0.3592  0.4623
 1020YOPC   D2A14732   8.382   8.397   6.154  0.0373  0.1385  0.1164
 1020YOPC   C3A14733   8.170   8.585   6.413  0.1892  0.0368 -0.2789
 1020YOPC   C4A14734   7.854   8.440   6.636 -0.0614 -0.2438  0.1874
 1020YOPC   C1B14735   8.990   8.231   5.552 -0.1143  0.1299 -0.1616
 1020YOPC   C2B14736   9.188   8.083   5.947 -0.2164  0.2148  0.1516
 1020YOPC   D3B14737   9.252   8.132   6.311 -0.2688 -0.0501  0.0096
 1020YOPC   C4B14738   9.135   8.452   6.430  0.0159 -0.1247 -0.1104
 1021YOPC   NC314739  17.222  12.842   5.504  0.0203  0.0360  0.1015
 1021YOPC   PO414740  17.073  12.342   5.467 -0.1789 -0.0024 -0.1933
 1021YOPC   GL114741  17.038  12.496   5.811 -0.0217 -0.2463  0.1362
 1021YOPC   GL214742  17.148  12.331   6.032  0.3732  0.0132 -0.1447
 1021YOPC   C1A14743  16.662  12.617   6.102  0.3022 -0.0612 -0.1540
 1021YOPC   D2A14744  16.406  12.828   6.413  0.2447  0.2666 -0.1900
 1021YOPC   C3A14745  16.518  12.942   6.851  0.0362  0.1900 -0.0877
 1021YOPC   C4A14746  16.530  13.032   7.263  0.1562  0.2269 -0.2981
 1021YOPC   C1B14747  17.144  12.150   6.452 -0.4343  0.3208  0.1209
 1021YOPC   C2B14748  17.048  11.981   6.798  0.2265  0.0874  0.2453
 1021YOPC   D3B14749  17.011  11.652   6.704 -0.1506  0.2312  0.2281
 1021YOPC   C4B14750  16.983  11.270   6.917  0.0244  0.1477  0.0327
 1022YOPC   NC314751   5.305   5.613   4.823  0.0524  0.1951 -0.0399
 1022YOPC   PO414752   4.798   5.548   4.830 -0.1945  0.2047 -0.1187
 1022YOPC   GL114753   4.694   5.474   5.276 -0.2591 -0.0993 -0.3588
 1022YOPC   GL214754   4.892   5.236   5.281 -0.1866 -0.0916  0.1173
 1022YOPC   C1A14755   4.574   5.807   5.564  0.0129  0.1408  0.0382
 1022YOPC   D2A14756   4.528   5.750   5.924  0.2808  0.0196 -0.2191
 1022YOPC   C3A14757   4.646   5.941   6.316  0.1076 -0.0452  0.2192
 1022YOPC   C4A14758   5.105   5.925   6.548 -0.1485  0.0769 -0.1228
 1022YOPC   C1B14759   5.187   4.989   5.515  0.0970 -0.1806  0.0692
 1022YOPC   C2B14760   5.591   4.902   5.610  0.3071  0.2217 -0.0333
 1022YOPC   D3B14761   5.750   4.458   5.687  0.2758 -0.1555  0.1188
 1022YOPC   C4B14762   6.047   4.206   5.842 -0.0253 -0.0753 -0.2053
 1023YOPC   NC314763   2.851   3.002   4.727  0.2038 -0.0501  0.0826
 1023YOPC   PO414764   2.600   2.707   4.896  0.1183  0.0277 -0.1367
 1023YOPC   GL114765   2.549   2.877   5.281 -0.2509 -0.0682  0.1586
 1023YOPC   GL214766   2.806   2.988   5.296 -0.0794 -0.0194  0.0479
 1023YOPC   C1A14767   2.552   2.621   5.660 -0.1874 -0.0988 -0.0946
 1023YOPC   D2A14768   2.545   2.848   6.048  0.3737  0.2485 -0.2396
 1023YOPC   C3A14769   2.635   2.735   6.414 -0.0450  0.1975  0.0232
 1023YOPC   C4A14770   2.542   2.535   6.768  0.0644 -0.0590  0.0860
 1023YOPC   C1B14771   2.974   2.979   5.755  0.0335 -0.0959  0.0242
 1023YOPC   C2B14772   2.983   3.119   6.147  0.0387 -0.0853 -0.1015
 1023YOPC   D3B14773   3.186   2.902   6.406 -0.3065 -0.3599  0.1748
 1023YOPC   C4B14774   3.001   2.640   6.820 -0.1484 -0.4533  0.0857
 1024YOPC   NC314775   1.508   4.550   5.385  0.0824  0.1812 -0.2051
 1024YOPC   PO414776   1.594   4.133   5.141 -0.0250 -0.1809  0.0798
 1024YOPC   GL114777   1.723   4.045   5.513  0.0943 -0.1253 -0.2362
 1024YOPC   GL214778   1.695   4.229   5.725  0.0435  0.2525  0.0586
 1024YOPC   C1A14779   1.770   3.684   5.844 -0.0205  0.1879 -0.0248
 1024YOPC   D2A14780   2.120   3.509   6.114 -0.3539  0.1854 -0.2167
 1024YOPC   C3A14781   2.070   3.082   6.342 -0.0730  0.1495  0.1729
 1024YOPC   C4A14782   2.115   2.701   6.169  0.1293 -0.2755  0.0894
 1024YOPC   C1B14783   1.568   4.082   6.167 -0.0735 -0.2509 -0.2941
 1024YOPC   C2B14784   1.790   3.832   6.451 -0.1983 -0.1021 -0.5524
 1024YOPC   D3B14785   1.798   4.059   6.940 -0.0199 -0.2048  0.1679
 1024YOPC   C4B14786   1.757   4.202   7.298  0.0231 -0.2757  0.5683
 1025YOPC   NC314787  16.717   1.054   5.019 -0.0705  0.2143  0.1430
 1025YOPC   PO414788  16.600   1.184   5.530  0.0117 -0.0213  0.1136
 1025YOPC   GL114789  16.746   1.162   5.938  0.2118  0.0948  0.0291
 1025YOPC   GL214790  16.396   0.901   5.895  0.1877  0.1355 -0.1632
 1025YOPC   C1A14791  16.970   0.854   6.197 -0.0919 -0.2730  0.1460
 1025YOPC   D2A14792  17.317   0.682   6.285 -0.2007  0.1705 -0.0661
 1025YOPC   C3A14793  17.488   0.870   6.602 -0.2364  0.0755  0.0736
 1025YOPC   C4A14794  17.408   0.796   7.005  0.2849  0.0611 -0.5112
 1025YOPC   C1B14795  16.494   0.713   6.297 -0.0430 -0.1739  0.2360
 1025YOPC   C2B14796  16.797   0.709   6.679  0.3024  0.3352 -0.1346
 1025YOPC   D3B14797  16.870   0.481   7.076 -0.2971 -0.2404 -0.1128
 1025YOPC   C4B14798  16.747   0.652   7.538  0.0920 -0.3765 -0.1980
 1026YOPC   NC314799  13.655   4.954   5.074  0.2671  0.0758 -0.0695
 1026YOPC   PO414800  13.691   5.025   5.551  0.1295 -0.3929 -0.0487
 1026YOPC   GL114801  13.753   4.961   5.954  0.2269  0.0026 -0.2017
 1026YOPC   GL214802  13.905   4.696   5.960 -0.1095  0.1658  0.2455
 1026YOPC   C1A14803  13.804   5.073   6.350 -0.0790  0.4053  0.0136
 1026YOPC   D2A14804  13.722   5.106   6.820 -0.3725 -0.0744  0.0793
 1026YOPC   C3A14805  13.730   5.445   7.087  0.0249  0.3972 -0.0297
 1026YOPC   C4A14806  13.514   5.759   7.284  0.2976  0.2351 -0.2386
 1026YOPC   C1B14807  13.929   4.575   6.438  0.2140 -0.0448 -0.1297
 1026YOPC   C2B14808  14.182   4.674   6.883 -0.5317  0.1716 -0.5479
 1026YOPC   D3B14809  14.268   4.300   7.142  0.2782  0.0595  0.0003
 1026YOPC   C4B14810  14.506   4.115   7.469 -0.0635 -0.1038  0.2427
 1027YOPC   NC314811   4.380  12.770   4.994 -0.2790 -0.0497  0.1665
 1027YOPC   PO414812   4.095  12.854   5.239  0.0614  0.1168 -0.1285
 1027YOPC   GL114813   4.102  12.883   5.567 -0.2682 -0.4708 -0.0948
 1027YOPC   GL214814   4.198  13.196   5.767 -0.0254 -0.0144  0.1901
 1027YOPC   C1A14815   3.823  12.848   5.862 -0.0508 -0.0213  0.1485
 1027YOPC   D2A14816   3.859  12.799   6.327 -0.3281  0.1346 -0.0949
 1027YOPC   C3A14817   4.035  12.934   6.618 -0.1721  0.1626 -0.0878
 1027YOPC   C4A14818   4.363  12.720   6.978 -0.0869  0.0891 -0.2908
 1027YOPC   C1B14819   3.937  13.299   6.128 -0.0798 -0.3377 -0.1140
 1027YOPC   C2B14820   3.794  13.565   6.490 -0.0112  0.1819  0.0755
 1027YOPC   D3B14821   3.927  13.435   6.902  0.0552 -0.1707 -0.0347
 1027YOPC   C4B14822   3.939  13.083   7.142  0.4175 -0.2586 -0.1366
 1028YOPC   NC314823   6.271  18.707   4.799  0.0131  0.0872  0.1753
 1028YOPC   PO414824   5.932  18.923   4.865 -0.1274  0.0573 -0.1397
 1028YOPC   GL114825   6.269  19.100   5.212 -0.1227  0.0571 -0.2463
 1028YOPC   GL214826   6.135  19.141   5.473  0.1686 -0.0064 -0.2024
 1028YOPC   C1A14827   6.413  19.545   5.432 -0.1310 -0.0097  0.0054
 1028YOPC   D2A14828   6.327  19.941   5.724 -0.1681  0.3197  0.1430
 1028YOPC   C3A14829   6.193  19.916   6.043 -0.1957 -0.1739 -0.0052
 1028YOPC   C4A14830   6.305  19.721   6.362 -0.0742  0.1527 -0.3030
 1028YOPC   C1B14831   6.145  19.356   5.850 -0.0260 -0.0039  0.0218
 1028YOPC   C2B14832   6.182  19.212   6.336 -0.0206  0.3922  0.1672
 1028YOPC   D3B14833   6.191  19.194   6.679 -0.3577  0.0061 -0.1392
 1028YOPC   C4B14834   6.078  18.899   6.908 -0.0203  0.0568 -0.2302
 1029YOPC   NC314835   5.051   8.301   5.023 -0.0837  0.1050 -0.1401
 1029YOPC   PO414836   5.435   8.540   4.842  0.0207 -0.0045  0.0224
 1029YOPC   GL114837   5.532   8.269   5.169  0.3550 -0.0737  0.0583
 1029YOPC   GL214838   5.341   8.328   5.403  0.0412  0.0274 -0.0601
 1029YOPC   C1A14839   5.850   8.182   5.527 -0.1699  0.0582 -0.2106
 1029YOPC   D2A14840   5.858   7.933   5.989 -0.1507  0.0634  0.2272
 1029YOPC   C3A14841   6.109   8.038   6.327  0.1723 -0.1575 -0.2709
 1029YOPC   C4A14842   6.273   8.236   6.746  0.0198  0.3756  0.1326
 1029YOPC   C1B14843   5.494   8.244   5.834  0.2477  0.1142 -0.0700
 1029YOPC   C2B14844   5.541   8.135   6.302 -0.1678  0.0557 -0.0387
 1029YOPC   D3B14845   5.785   8.269   6.670  0.0019  0.1942 -0.0704
 1029YOPC   C4B14846   5.859   8.253   7.116 -0.1344 -0.1960  0.0598
 1030YOPC   NC314847   2.956   0.103   5.074 -0.4101 -0.0472 -0.0948
 1030YOPC   PO414848   3.230   0.388   4.878 -0.0729  0.0133 -0.0571
 1030YOPC   GL114849   3.445   0.323   5.265  0.2651  0.1374  0.3514
 1030YOPC   GL214850   3.793   0.115   5.158 -0.2124  0.1568 -0.0984
 1030YOPC   C1A14851   3.530   0.321   5.679  0.2451 -0.1376 -0.4014
 1030YOPC   D2A14852   3.398   0.417   6.093  0.2932  0.4537  0.2075
 1030YOPC   C3A14853   3.550   0.741   6.388  0.0519 -0.0364 -0.1697
 1030YOPC   C4A14854   3.465   0.706   6.764 -0.2306 -0.1923 -0.0774
 1030YOPC   C1B14855   3.942   0.282   5.497  0.0233  0.1256  0.0649
 1030YOPC   C2B14856   3.955   0.619   5.818 -0.1103 -0.0209  0.0405
 1030YOPC   D3B14857   3.973   0.528   6.314  0.2539 -0.0897 -0.0881
 1030YOPC   C4B14858   4.084   0.687   6.776  0.2758  0.0067 -0.0157
 1031YOPC   NC314859   7.541  10.011   4.631  0.0544  0.1374  0.0369
 1031YOPC   PO414860   7.603   9.917   5.040 -0.0447 -0.4478 -0.0087
 1031YOPC   GL114861   7.534   9.942   5.507 -0.2273 -0.1019  0.1846
 1031YOPC   GL214862   7.101  10.070   5.555  0.1872  0.1248  0.0988
 1031YOPC   C1A14863   7.275   9.807   5.932  0.1251  0.0219 -0.2689
 1031YOPC   D2A14864   7.152   9.921   6.309  0.0578 -0.0155  0.0285
 1031YOPC   C3A14865   7.036  10.016   6.777 -0.0066 -0.0982 -0.0244
 1031YOPC   C4A14866   6.829  10.173   7.024 -0.0842  0.0186  0.1530
 1031YOPC   C1B14867   6.955   9.559   5.450 -0.3603 -0.0023 -0.0838
 1031YOPC   C2B14868   6.748   9.200   5.544  0.3280  0.1426  0.2102
 1031YOPC   D3B14869   6.991   8.803   5.695 -0.0624  0.2290 -0.2554
 1031YOPC   C4B14870   7.191   8.841   6.157  0.2246  0.0096 -0.1846
 1032YOPC   NC314871   9.533   5.793   4.590  0.1118 -0.1878  0.2847
 1032YOPC   PO414872   9.844   5.419   4.708 -0.0997 -0.0949  0.3195
 1032YOPC   GL114873   9.936   5.831   4.943 -0.0298  0.0001 -0.0083
 1032YOPC   GL214874   9.629   6.101   5.012 -0.1345  0.0158  0.0673
 1032YOPC   C1A14875   9.937   6.003   5.372 -0.1098  0.0122  0.0229
 1032YOPC   D2A14876  10.083   5.968   5.785  0.1450  0.1534 -0.0414
 1032YOPC   C3A14877   9.843   5.930   6.194 -0.1483 -0.1901 -0.0944
 1032YOPC   C4A14878  10.016   5.653   6.630  0.0878  0.2221 -0.1713
 1032YOPC   C1B14879   9.467   5.947   5.372  0.0174 -0.0528  0.0511
 1032YOPC   C2B14880   9.577   5.918   5.764 -0.2379 -0.0102 -0.0525
 1032YOPC   D3B14881   9.344   6.085   6.006  0.2375 -0.1365 -0.4370
 1032YOPC   C4B14882   9.542   6.266   6.362 -0.0899 -0.2699  0.0269
 1033YOPC   NC314883  17.940   3.711   5.643  0.0905 -0.2005 -0.0284
 1033YOPC   PO414884  17.573   3.925   5.806  0.2019  0.0047  0.1280
 1033YOPC   GL114885  17.442   4.174   6.079  0.0040 -0.2545  0.1159
 1033YOPC   GL214886  17.409   4.496   5.955  0.1555  0.1554 -0.2537
 1033YOPC   C1A14887  17.461   4.246   6.496  0.2893  0.0802 -0.1324
 1033YOPC   D2A14888  17.347   4.310   6.855 -0.2238 -0.1577  0.3748
 1033YOPC   C3A14889  17.225   4.655   7.032  0.4518  0.2004 -0.1364
 1033YOPC   C4A14890  17.177   4.934   7.401  0.1404  0.2452  0.0850
 1033YOPC   C1B14891  17.448   4.729   6.314  0.0052 -0.0232  0.1085
 1033YOPC   C2B14892  17.738   4.757   6.684  0.1479  0.0484  0.0964
 1033YOPC   D3B14893  17.702   4.604   7.016  0.2675  0.2819 -0.0170
 1033YOPC   C4B14894  18.053   4.608   7.362 -0.2676 -0.0135  0.1021
 1034YOPC   NC314895   1.189   2.960   5.229  0.1823  0.1585  0.0443
 1034YOPC   PO414896   1.126   3.407   5.242 -0.1855 -0.0389 -0.0971
 1034YOPC   GL114897   1.025   3.467   5.697  0.0256 -0.1932  0.0544
 1034YOPC   GL214898   1.042   3.790   5.781  0.3942 -0.0686 -0.0028
 1034YOPC   C1A14899   0.989   3.358   6.178 -0.0340 -0.1501 -0.2300
 1034YOPC   D2A14900   1.001   3.035   6.496  0.0682  0.1620  0.1179
 1034YOPC   C3A14901   1.226   2.832   6.703 -0.0083 -0.0585  0.1137
 1034YOPC   C4A14902   1.550   2.531   6.890  0.0390 -0.3398 -0.0611
 1034YOPC   C1B14903   1.247   3.718   6.079 -0.1658  0.1356 -0.3161
 1034YOPC   C2B14904   1.157   3.577   6.591  0.0703 -0.1598  0.3386
 1034YOPC   D3B14905   1.359   3.987   6.723  0.0885  0.0649  0.0335
 1034YOPC   C4B14906   1.569   4.505   6.864 -0.1041  0.0582 -0.0869
 1035YOPC   NC314907  16.477  14.160   5.295 -0.0301  0.0620 -0.2940
 1035YOPC   PO414908  16.574  14.303   5.629 -0.1478  0.0267  0.2550
 1035YOPC   GL114909  16.332  14.300   5.974 -0.0373  0.0498  0.5358
 1035YOPC   GL214910  16.350  14.485   6.065  0.1547  0.2183  0.0818
 1035YOPC   C1A14911  16.453  14.231   6.458 -0.0737  0.0463 -0.1262
 1035YOPC   D2A14912  16.406  14.321   6.893  0.2358  0.4453 -0.0369
 1035YOPC   C3A14913  16.323  14.040   7.314 -0.0532  0.1237  0.0734
 1035YOPC   C4A14914  16.183  14.214   7.682  0.0992  0.0416  0.0671
 1035YOPC   C1B14915  16.564  14.693   6.569 -0.0478 -0.2930 -0.1351
 1035YOPC   C2B14916  16.629  14.746   6.975 -0.2178 -0.0200 -0.5298
 1035YOPC   D3B14917  16.776  14.317   7.307  0.1502  0.4312  0.3929
 1035YOPC   C4B14918  16.758  13.986   7.560 -0.3160  0.0870 -0.0181
 1036YOPC   NC314919  11.622   8.697   4.541 -0.2330 -0.0318  0.0310
 1036YOPC   PO414920  11.764   8.601   4.993  0.0528 -0.0767 -0.1472
 1036YOPC   GL114921  11.789   8.869   5.338  0.2065  0.0394  0.1841
 1036YOPC   GL214922  11.731   9.205   5.355  0.1498  0.2633 -0.0806
 1036YOPC   C1A14923  11.921   8.840   5.894 -0.2407  0.1262  0.0418
 1036YOPC   D2A14924  12.335   8.997   6.175  0.1348  0.0546 -0.4459
 1036YOPC   C3A14925  12.623   9.123   5.972  0.1681 -0.2594  0.1700
 1036YOPC   C4A14926  12.820   9.532   5.943 -0.1132  0.0534 -0.0074
 1036YOPC   C1B14927  11.829   9.291   5.785  0.3285 -0.0912  0.0777
 1036YOPC   C2B14928  12.221   9.512   6.016 -0.0661  0.0098 -0.1230
 1036YOPC   D3B14929  12.185   9.439   6.410 -0.1725  0.0787  0.1321
 1036YOPC   C4B14930  12.203   9.255   6.721  0.3284 -0.1186  0.3202
 1037YOPC   NC314931   4.570  10.719   5.063 -0.0364  0.3559 -0.1668
 1037YOPC   PO414932   4.878  10.411   5.420 -0.1050 -0.2822  0.3805
 1037YOPC   GL114933   4.951  10.740   5.736 -0.1085  0.0130 -0.0005
 1037YOPC   GL214934   5.233  10.951   5.674 -0.1114 -0.2527 -0.1959
 1037YOPC   C1A14935   5.355  10.647   6.050 -0.1195 -0.1343 -0.0561
 1037YOPC   D2A14936   5.760  10.720   6.270 -0.1492  0.1039 -0.3094
 1037YOPC   C3A14937   5.916  10.368   6.485 -0.1142 -0.0079  0.2290
 1037YOPC   C4A14938   5.859  10.137   6.813 -0.2743  0.4139  0.2264
 1037YOPC   C1B14939   5.143  11.365   5.900  0.3704  0.0118  0.1742
 1037YOPC   C2B14940   4.807  11.596   6.019  0.0802  0.3120  0.2133
 1037YOPC   D3B14941   4.956  11.702   6.404  0.1999 -0.0597  0.0725
 1037YOPC   C4B14942   5.089  11.673   6.810  0.0307  0.2908  0.0055
 1038YOPC   NC314943  14.432  19.261   5.759  0.2589  0.0122  0.0480
 1038YOPC   PO414944  14.370  19.549   5.545 -0.0586 -0.2339 -0.0507
 1038YOPC   GL114945  14.238  19.739   5.953 -0.0836 -0.0662 -0.2157
 1038YOPC   GL214946  13.851  19.773   6.168  0.0661 -0.2422  0.1775
 1038YOPC   C1A14947  14.239  19.781   6.448  0.1609 -0.0956  0.1245
 1038YOPC   D2A14948  14.245  19.959   6.921 -0.0802 -0.1945  0.0073
 1038YOPC   C3A14949  14.232  19.898   7.301 -0.0926  0.1079 -0.2986
 1038YOPC   C4A14950  14.245  20.206   7.759  0.0368 -0.2438  0.0525
 1038YOPC   C1B14951  13.440  20.155   6.261 -0.1746  0.1763  0.0707
 1038YOPC   C2B14952  13.038  20.333   6.365 -0.1994  0.3184 -0.1237
 1038YOPC   D3B14953  12.830  20.372   6.829 -0.0481 -0.1235 -0.1666
 1038YOPC   C4B14954  12.618  20.689   7.088  0.1447 -0.2497 -0.1029
 1039YOPC   NC314955  18.271  16.144   4.938 -0.1249 -0.3810 -0.0477
 1039YOPC   PO414956  18.521  15.998   5.284  0.2403 -0.1146  0.1047
 1039YOPC   GL114957  18.711  16.164   5.652 -0.1953  0.4379  0.0749
 1039YOPC   GL214958  18.972  16.130   5.678  0.3635  0.1869  0.0344
 1039YOPC   C1A14959  18.694  16.337   6.072 -0.0887 -0.1786  0.0558
 1039YOPC   D2A14960  18.863  16.245   6.372  0.2608  0.0495  0.0048
 1039YOPC   C3A14961  19.154  16.261   6.593  0.1222 -0.1667 -0.4510
 1039YOPC   C4A14962  19.233  16.481   7.004  0.1028  0.4108 -0.0742
 1039YOPC   C1B14963  19.227  15.982   6.095  0.0931 -0.0380  0.0973
 1039YOPC   C2B14964  19.602  16.055   6.373 -0.2376  0.0375  0.0101
 1039YOPC   D3B14965  19.436  15.888   6.760 -0.1387 -0.0213  0.0076
 1039YOPC   C4B14966  19.398  15.511   7.015 -0.0766  0.1827 -0.1182
 1040YOPC   NC314967   7.324  16.352   5.642 -0.0868 -0.0301  0.0129
 1040YOPC   PO414968   7.082  16.601   5.329  0.0921 -0.0119  0.1014
 1040YOPC   GL114969   6.733  16.813   5.506  0.1176  0.4049  0.1971
 1040YOPC   GL214970   6.761  16.581   5.764  0.0207 -0.1121 -0.2200
 1040YOPC   C1A14971   6.786  17.128   5.857 -0.0666  0.0670  0.0023
 1040YOPC   D2A14972   7.040  17.335   6.116  0.3435  0.1338 -0.2759
 1040YOPC   C3A14973   6.752  17.664   6.412 -0.0844  0.2940  0.1387
 1040YOPC   C4A14974   6.551  17.716   6.795  0.0982  0.0928  0.4519
 1040YOPC   C1B14975   6.946  16.737   6.142 -0.3781 -0.3843 -0.0129
 1040YOPC   C2B14976   6.980  16.649   6.600  0.2475 -0.0807 -0.0356
 1040YOPC   D3B14977   6.678  16.816   6.929 -0.2282  0.1502 -0.2586
 1040YOPC   C4B14978   6.386  16.999   7.180  0.4226  0.0093 -0.0892
 1041YOPC   NC314979  13.756   7.972   5.400 -0.0521 -0.4328 -0.0701
 1041YOPC   PO414980  13.363   7.680   5.533  0.0169 -0.1236 -0.0846
 1041YOPC   GL114981  13.431   7.815   5.918  0.2501 -0.2613  0.2904
 1041YOPC   GL214982  13.702   8.065   5.954  0.2406  0.0956  0.0719
 1041YOPC   C1A14983  13.640   7.585   6.302  0.1076  0.0042  0.0832
 1041YOPC   D2A14984  13.700   7.440   6.756 -0.2559 -0.0061  0.1929
 1041YOPC   C3A14985  13.413   7.398   7.063 -0.1337 -0.3575  0.2404
 1041YOPC   C4A14986  13.097   7.179   7.333 -0.0836 -0.5925  0.1571
 1041YOPC   C1B14987  13.806   8.535   6.091 -0.0796 -0.1450  0.1261
 1041YOPC   C2B14988  14.209   8.669   6.267  0.0466 -0.2656 -0.0673
 1041YOPC   D3B14989  14.394   9.053   6.502 -0.0052 -0.2454  0.1109
 1041YOPC   C4B14990  14.326   9.341   6.773 -0.1069  0.0957 -0.2319
 1042YOPC   NC314991   7.563  16.642   5.281 -0.0262  0.2073 -0.4769
 1042YOPC   PO414992   7.802  16.637   5.601 -0.2141 -0.0785 -0.0516
 1042YOPC   GL114993   7.911  16.957   5.735  0.2806  0.3514 -0.3092
 1042YOPC   GL214994   8.323  17.104   5.554  0.0418 -0.0345  0.0508
 1042YOPC   C1A14995   7.923  17.014   6.132 -0.0221  0.0570 -0.0854
 1042YOPC   D2A14996   7.932  17.093   6.587  0.0343  0.1339  0.3109
 1042YOPC   C3A14997   8.024  17.152   7.070  0.1843  0.0861 -0.0061
 1042YOPC   C4A14998   7.730  17.070   7.375 -0.0170  0.0389 -0.0226
 1042YOPC   C1B14999   8.276  17.274   5.859  0.2550  0.0054 -0.0644
 1042YOPC   C2B15000   8.163  17.402   6.260  0.0110  0.0355 -0.0193
 1042YOPC   D3B15001   8.202  17.563   6.740  0.0820  0.0422  0.0279
 1042YOPC   C4B15002   8.084  17.737   7.176  0.0247 -0.0256 -0.1872
 1043YOPC   NC315003   8.327  13.416   5.021  0.3274 -0.0446 -0.0571
 1043YOPC   PO415004   8.417  13.829   5.131  0.0048 -0.2639 -0.3032
 1043YOPC   GL115005   8.510  13.602   5.503  0.0899  0.1393 -0.0031
 1043YOPC   GL215006   8.808  13.437   5.584 -0.0271 -0.2390  0.3039
 1043YOPC   C1A15007   8.265  13.344   5.766 -0.2500  0.1445 -0.0314
 1043YOPC   D2A15008   8.139  13.379   6.125 -0.0073 -0.0083  0.3599
 1043YOPC   C3A15009   8.314  13.129   6.555  0.5428 -0.0134 -0.0451
 1043YOPC   C4A15010   8.177  12.794   6.785  0.2673  0.0151 -0.0416
 1043YOPC   C1B15011   8.839  13.747   5.942 -0.2748  0.3126 -0.1852
 1043YOPC   C2B15012   8.500  13.715   6.266  0.0248 -0.1018 -0.0844
 1043YOPC   D3B15013   8.742  13.551   6.579 -0.2051  0.0065  0.0226
 1043YOPC   C4B15014   8.849  13.609   7.075  0.0181 -0.2709 -0.0450
 1044YOPC   NC315015   3.355   6.235   5.166 -0.2307  0.0822  0.1490
 1044YOPC   PO415016   3.379   5.856   5.253 -0.2532  0.2217 -0.0029
 1044YOPC   GL115017   3.412   5.614   5.472 -0.2485 -0.0237  0.1909
 1044YOPC   GL215018   3.145   5.567   5.587  0.2332  0.2486 -0.2450
 1044YOPC   C1A15019   3.579   5.537   5.887  0.3774 -0.0045  0.1461
 1044YOPC   D2A15020   3.621   5.465   6.305  0.1081 -0.2915  0.0658
 1044YOPC   C3A15021   3.853   5.601   6.648  0.1948 -0.2215  0.1378
 1044YOPC   C4A15022   4.178   5.633   6.917 -0.0632 -0.0741 -0.0568
 1044YOPC   C1B15023   3.024   5.700   6.001  0.1766 -0.0858 -0.0401
 1044YOPC   C2B15024   3.262   5.886   6.309 -0.2687  0.1100 -0.0518
 1044YOPC   D3B15025   3.327   5.761   6.671 -0.0081  0.1344 -0.2541
 1044YOPC   C4B15026   3.351   5.795   7.149  0.0376 -0.0312  0.3179
 1045YOPC   NC315027   3.791   5.129   4.830  0.2352  0.2781 -0.1865
 1045YOPC   PO415028   3.922   4.981   5.286  0.1898  0.0485 -0.2174
 1045YOPC   GL115029   3.743   5.140   5.598 -0.0261 -0.0833 -0.1292
 1045YOPC   GL215030   3.400   5.144   5.772  0.0133  0.0033  0.2147
 1045YOPC   C1A15031   3.846   5.139   6.073 -0.0165  0.1821  0.2373
 1045YOPC   D2A15032   3.980   5.091   6.547  0.5026 -0.2184  0.0659
 1045YOPC   C3A15033   3.818   4.775   6.808  0.0009  0.0226  0.2667
 1045YOPC   C4A15034   3.548   4.701   7.162 -0.1626  0.0371  0.0115
 1045YOPC   C1B15035   3.217   5.171   6.195  0.2892 -0.2589  0.0090
 1045YOPC   C2B15036   2.937   5.407   6.451  0.0356 -0.2651  0.4411
 1045YOPC   D3B15037   2.891   5.558   6.796  0.0112 -0.1167 -0.0126
 1045YOPC   C4B15038   2.633   5.698   7.193 -0.4061 -0.0811  0.1484
 1046YOPC   NC315039   8.335   5.708   4.779  0.2820  0.0580 -0.2002
 1046YOPC   PO415040   7.942   5.684   5.023  0.2128 -0.1837 -0.1384
 1046YOPC   GL115041   7.944   5.756   5.458  0.1082 -0.0619  0.1128
 1046YOPC   GL215042   8.111   5.455   5.568 -0.3663  0.0671 -0.2285
 1046YOPC   C1A15043   8.000   5.874   5.759  0.3386  0.3710 -0.3553
 1046YOPC   D2A15044   8.035   5.942   6.168  0.3798 -0.1138  0.1428
 1046YOPC   C3A15045   8.311   5.705   6.411 -0.2217 -0.1601 -0.1755
 1046YOPC   C4A15046   8.571   5.749   6.735  0.0593  0.3108 -0.0985
 1046YOPC   C1B15047   8.309   5.336   5.822 -0.0130 -0.1631 -0.1502
 1046YOPC   C2B15048   8.347   5.288   6.198  0.0145 -0.0000 -0.3819
 1046YOPC   D3B15049   8.151   5.024   6.436 -0.3452 -0.0885  0.1382
 1046YOPC   C4B15050   8.304   4.642   6.739  0.2243 -0.1231  0.1601
 1047YOPC   NC315051  14.784  17.430   5.623 -0.0096  0.0654 -0.3775
 1047YOPC   PO415052  15.231  17.524   5.646  0.0401 -0.3076 -0.0990
 1047YOPC   GL115053  15.440  17.851   5.996 -0.2223  0.1258 -0.2064
 1047YOPC   GL215054  15.284  18.089   5.884 -0.0272  0.2086 -0.1708
 1047YOPC   C1A15055  15.508  17.696   6.322  0.1242 -0.3727 -0.2984
 1047YOPC   D2A15056  15.727  17.625   6.688  0.1311 -0.0860  0.0028
 1047YOPC   C3A15057  15.554  17.664   7.000  0.2649 -0.2581  0.1551
 1047YOPC   C4A15058  15.504  17.778   7.485 -0.1750 -0.2687  0.0794
 1047YOPC   C1B15059  15.345  18.391   6.160 -0.0181  0.0141 -0.1530
 1047YOPC   C2B15060  15.442  18.534   6.577 -0.1692  0.2098  0.1532
 1047YOPC   D3B15061  15.741  18.527   6.956 -0.2370 -0.1542 -0.4058
 1047YOPC   C4B15062  15.863  18.490   7.500  0.0252  0.1158 -0.1019
 1048YOPC   NC315063   0.558  15.153   5.503 -0.0016  0.0219 -0.1306
 1048YOPC   PO415064   1.012  15.394   5.390 -0.1523  0.0667  0.1438
 1048YOPC   GL115065   1.153  15.710   5.752 -0.2626 -0.3807 -0.2122
 1048YOPC   GL215066   1.364  15.584   6.026 -0.0133  0.1132  0.0485
 1048YOPC   C1A15067   1.035  15.896   6.142 -0.2309  0.0534 -0.2995
 1048YOPC   D2A15068   0.701  15.912   6.243  0.0176 -0.0810 -0.2320
 1048YOPC   C3A15069   0.652  16.296   6.429 -0.2981 -0.3393 -0.1189
 1048YOPC   C4A15070   0.647  16.725   6.617 -0.2086 -0.1769  0.0063
 1048YOPC   C1B15071   1.617  15.643   6.371  0.2182 -0.1328  0.2186
 1048YOPC   C2B15072   1.800  15.621   6.778  0.1687 -0.2185 -0.2915
 1048YOPC   D3B15073   1.738  15.903   7.157  0.0192  0.0860 -0.1767
 1048YOPC   C4B15074   2.046  15.852   7.508  0.2807  0.2808 -0.2444
 1049YOPC   NC315075  18.749   1.206   5.277 -0.0876  0.2135 -0.0161
 1049YOPC   PO415076  18.415   1.235   5.535  0.1514  0.2217  0.3565
 1049YOPC   GL115077  18.393   1.242   6.038  0.0350  0.1363 -0.0421
 1049YOPC   GL215078  18.007   1.274   6.036  0.0303 -0.2127  0.2130
 1049YOPC   C1A15079  18.351   1.546   6.292 -0.1301 -0.0197 -0.1941
 1049YOPC   D2A15080  18.572   1.760   6.597  0.0295 -0.2073  0.1787
 1049YOPC   C3A15081  18.527   1.684   6.910  0.1549  0.1850 -0.2662
 1049YOPC   C4A15082  18.432   1.377   7.120 -0.2601  0.2273  0.0025
 1049YOPC   C1B15083  17.605   1.217   6.270  0.1894 -0.1539  0.0454
 1049YOPC   C2B15084  17.294   1.380   6.361 -0.3387 -0.2789  0.0286
 1049YOPC   D3B15085  17.085   1.203   6.822 -0.4484 -0.0477  0.0843
 1049YOPC   C4B15086  16.838   0.977   7.138  0.4136 -0.1651 -0.0994
 1050YOPC   NC315087  17.205   4.208   5.618 -0.2590  0.1223  0.1452
 1050YOPC   PO415088  16.785   4.085   5.730 -0.1106 -0.0647  0.0832
 1050YOPC   GL115089  16.480   4.128   6.026  0.3373  0.0001  0.3006
 1050YOPC   GL215090  16.283   4.371   5.825 -0.0857  0.0170  0.0797
 1050YOPC   C1A15091  16.542   4.114   6.510  0.1502  0.0544 -0.1048
 1050YOPC   D2A15092  16.399   4.158   6.836 -0.2385  0.3416 -0.1663
 1050YOPC   C3A15093  15.949   4.123   7.080  0.0735  0.0261 -0.2948
 1050YOPC   C4A15094  15.869   3.790   7.354  0.0061  0.0312  0.0115
 1050YOPC   C1B15095  16.026   4.322   6.156  0.2444 -0.3481  0.0799
 1050YOPC   C2B15096  15.971   4.296   6.580 -0.0957 -0.2483  0.0460
 1050YOPC   D3B15097  16.064   4.568   6.958  0.0032  0.1832  0.0078
 1050YOPC   C4B15098  16.341   4.552   7.359 -0.1213 -0.2060 -0.1069
 1051YOPC   NC315099   8.844   3.198   4.329  0.1545  0.0802 -0.1716
 1051YOPC   PO415100   9.236   2.951   4.293 -0.1251 -0.3027  0.0062
 1051YOPC   GL115101   9.128   2.680   4.575  0.1619 -0.0568  0.1568
 1051YOPC   GL215102   9.343   2.783   4.854  0.1021 -0.2865 -0.2995
 1051YOPC   C1A15103   9.199   2.354   4.910  0.2874  0.0126  0.1482
 1051YOPC   D2A15104   9.206   2.269   5.358 -0.1937 -0.0388  0.0459
 1051YOPC   C3A15105   8.875   2.539   5.551 -0.1645  0.0447  0.3035
 1051YOPC   C4A15106   8.412   2.721   5.594 -0.0836 -0.0844  0.2883
 1051YOPC   C1B15107   9.428   2.712   5.294  0.2009 -0.1329 -0.0799
 1051YOPC   C2B15108   9.625   2.823   5.646 -0.0637  0.0890 -0.1012
 1051YOPC   D3B15109   9.447   3.075   6.009 -0.1465  0.3506  0.1035
 1051YOPC   C4B15110   9.695   3.244   6.300  0.2237 -0.0014 -0.1108
 1052YOPC   NC315111   2.706  18.085   5.017  0.0281  0.1077  0.1746
 1052YOPC   PO415112   2.402  18.312   5.255 -0.2528  0.0478  0.0800
 1052YOPC   GL115113   2.361  18.503   5.677  0.1008 -0.1327 -0.1627
 1052YOPC   GL215114   2.685  18.629   5.659 -0.0084  0.0402  0.2132
 1052YOPC   C1A15115   2.228  18.693   6.009 -0.1440  0.1327 -0.2138
 1052YOPC   D2A15116   1.915  18.677   6.281  0.0652 -0.1745  0.3895
 1052YOPC   C3A15117   1.995  18.307   6.485 -0.1262 -0.0162  0.0245
 1052YOPC   C4A15118   1.937  17.902   6.633 -0.1530  0.2306  0.2050
 1052YOPC   C1B15119   2.674  18.974   5.841 -0.0009  0.1810  0.1572
 1052YOPC   C2B15120   2.440  19.159   6.155 -0.0243  0.2251  0.1851
 1052YOPC   D3B15121   2.694  19.120   6.416 -0.4162  0.4207 -0.1512
 1052YOPC   C4B15122   3.012  19.239   6.747 -0.2125 -0.0472  0.0433
 1053YOPC   NC315123   1.276   3.218   4.791  0.3141  0.2186 -0.3907
 1053YOPC   PO415124   1.616   3.121   5.071 -0.3055  0.1390 -0.3814
 1053YOPC   GL115125   1.692   2.712   5.281  0.0882 -0.2226 -0.2687
 1053YOPC   GL215126   1.391   2.526   5.277  0.0663  0.1305  0.0725
 1053YOPC   C1A15127   1.798   2.259   5.410  0.1514 -0.2141  0.1668
 1053YOPC   D2A15128   1.885   2.030   5.796 -0.1669 -0.2443 -0.2341
 1053YOPC   C3A15129   1.906   2.282   6.077 -0.1970 -0.0188  0.3183
 1053YOPC   C4A15130   1.985   2.553   6.617  0.4950  0.3335  0.1361
 1053YOPC   C1B15131   1.382   2.511   5.672  0.2061 -0.4146  0.1738
 1053YOPC   C2B15132   1.667   2.729   5.915  0.1193 -0.0419  0.0148
 1053YOPC   D3B15133   1.635   2.699   6.344 -0.0140  0.1596  0.3681
 1053YOPC   C4B15134   1.523   2.319   6.447 -0.0045  0.1068 -0.1034
 1054YOPC   NC315135   4.242  13.622   5.427 -0.0376 -0.0815  0.0484
 1054YOPC   PO415136   4.134  13.974   5.794  0.0866  0.1883  0.2162
 1054YOPC   GL115137   3.860  13.840   6.134  0.0816  0.2589  0.0598
 1054YOPC   GL215138   3.545  13.828   6.071  0.2734 -0.0437  0.0672
 1054YOPC   C1A15139   3.847  14.075   6.449  0.2205  0.1267  0.0739
 1054YOPC   D2A15140   3.558  14.347   6.673  0.0368 -0.1530 -0.2539
 1054YOPC   C3A15141   3.673  14.706   6.965 -0.0761  0.0204 -0.4049
 1054YOPC   C4A15142   3.927  15.138   6.937 -0.3422  0.2243  0.1392
 1054YOPC   C1B15143   3.377  14.284   6.226 -0.1256  0.1567  0.2271
 1054YOPC   C2B15144   3.165  14.637   6.219 -0.2597 -0.2637  0.1861
 1054YOPC   D3B15145   2.995  14.967   6.308  0.1416  0.1896  0.0431
 1054YOPC   C4B15146   2.716  15.174   6.403 -0.2541 -0.1393 -0.1182
 1055YOPC   NC315147  15.475  13.524   5.402  0.1270  0.1030  0.0776
 1055YOPC   PO415148  15.859  13.384   5.346  0.0613  0.0673 -0.0793
 1055YOPC   GL115149  15.926  13.457   5.699  0.1014  0.1392 -0.0123
 1055YOPC   GL215150  15.727  13.677   5.833 -0.1578  0.1201  0.2252
 1055YOPC   C1A15151  16.009  13.273   6.032  0.2140  0.2607  0.1147
 1055YOPC   D2A15152  16.061  13.213   6.414 -0.4206 -0.3662 -0.0946
 1055YOPC   C3A15153  15.913  13.514   6.582 -0.0964 -0.4543  0.1142
 1055YOPC   C4A15154  16.110  13.868   6.770 -0.0765  0.4391  0.0412
 1055YOPC   C1B15155  15.891  13.792   6.145 -0.4222 -0.2796 -0.3975
 1055YOPC   C2B15156  15.926  14.197   6.281 -0.2439  0.0427  0.1270
 1055YOPC   D3B15157  15.742  14.320   6.733 -0.0340 -0.0573 -0.3554
 1055YOPC   C4B15158  15.924  14.205   7.075 -0.0982  0.2030  0.1703
 1056YOPC   NC315159   0.810   9.006   5.544 -0.0611 -0.0849  0.1776
 1056YOPC   PO415160   1.079   9.367   5.693 -0.3384  0.0663  0.0033
 1056YOPC   GL115161   1.286   9.174   6.066  0.2288  0.1622  0.1254
 1056YOPC   GL215162   1.354   8.852   6.146  0.2944 -0.1727  0.0015
 1056YOPC   C1A15163   1.420   9.165   6.507  0.1027 -0.0368 -0.2281
 1056YOPC   D2A15164   1.526   9.137   6.955  0.1528  0.0661  0.0398
 1056YOPC   C3A15165   1.441   9.350   7.174  0.2060  0.1368  0.2330
 1056YOPC   C4A15166   1.381   9.627   7.441  0.0805 -0.2297  0.0032
 1056YOPC   C1B15167   1.492   8.701   6.616  0.0225  0.3871  0.3758
 1056YOPC   C2B15168   1.607   8.607   7.007  0.0911  0.0266  0.1946
 1056YOPC   D3B15169   1.970   8.620   7.179 -0.0615 -0.1029 -0.0200
 1056YOPC   C4B15170   1.944   8.554   7.594  0.0019 -0.1285 -0.0031
 1057YOPC   NC315171  16.204  12.905   4.570 -0.0303  0.0979  0.0425
 1057YOPC   PO415172  16.392  12.949   5.028  0.0960 -0.1182 -0.3880
 1057YOPC   GL115173  16.234  12.995   5.442  0.0515 -0.0830  0.1709
 1057YOPC   GL215174  16.339  13.292   5.519  0.0965 -0.4310 -0.1535
 1057YOPC   C1A15175  16.237  12.748   5.827 -0.2040  0.1508  0.2258
 1057YOPC   D2A15176  16.234  12.409   6.106  0.2085 -0.0078  0.2885
 1057YOPC   C3A15177  16.328  12.285   6.457 -0.0481 -0.0975 -0.0613
 1057YOPC   C4A15178  16.236  12.199   6.829  0.4838 -0.0420 -0.4192
 1057YOPC   C1B15179  16.497  13.214   5.875  0.1537 -0.0928 -0.7848
 1057YOPC   C2B15180  16.693  13.075   6.122 -0.2812 -0.1981  0.0216
 1057YOPC   D3B15181  16.888  13.187   6.563  0.0567  0.1744  0.1209
 1057YOPC   C4B15182  16.819  13.344   6.948  0.0749 -0.1154  0.1512
 1058YOPC   NC315183   8.088  10.256   5.131 -0.1201  0.0437  0.2128
 1058YOPC   PO415184   7.725  10.390   5.248  0.3884 -0.3204  0.2000
 1058YOPC   GL115185   7.976  10.224   5.623  0.1264  0.0425 -0.1168
 1058YOPC   GL215186   8.223  10.528   5.642 -0.0546  0.0705 -0.3089
 1058YOPC   C1A15187   8.113  10.331   6.051 -0.3464 -0.0683 -0.1903
 1058YOPC   D2A15188   7.948  10.279   6.509  0.2838 -0.0023 -0.3928
 1058YOPC   C3A15189   8.044   9.953   6.842  0.1445  0.1134 -0.1851
 1058YOPC   C4A15190   8.289   9.585   6.679  0.0533  0.1251  0.1351
 1058YOPC   C1B15191   8.311  10.838   5.986 -0.0670  0.2409 -0.1411
 1058YOPC   C2B15192   8.508  11.043   6.282  0.0333 -0.2609 -0.0946
 1058YOPC   D3B15193   8.705  10.906   6.704  0.1222 -0.2169 -0.2383
 1058YOPC   C4B15194   8.978  10.610   6.676 -0.0673 -0.0780 -0.1709
 1059YOPC   NC315195   3.181  14.004   5.310  0.0717 -0.3067 -0.0443
 1059YOPC   PO415196   3.227  13.662   5.483  0.0672  0.1353  0.2845
 1059YOPC   GL115197   3.095  13.604   5.876 -0.0414 -0.4084  0.0686
 1059YOPC   GL215198   2.835  13.472   5.959  0.1334 -0.0730  0.0559
 1059YOPC   C1A15199   3.116  13.728   6.301 -0.0581  0.1009  0.0118
 1059YOPC   D2A15200   3.282  13.578   6.641  0.4057  0.0349 -0.0190
 1059YOPC   C3A15201   3.562  13.899   6.832  0.0765  0.1058 -0.2260
 1059YOPC   C4A15202   3.434  14.245   7.123 -0.0941  0.2769  0.0301
 1059YOPC   C1B15203   3.000  13.214   6.333  0.1984  0.4104 -0.0033
 1059YOPC   C2B15204   2.920  12.973   6.703  0.0267  0.2894 -0.0216
 1059YOPC   D3B15205   3.055  12.867   7.117  0.0283  0.2209 -0.1010
 1059YOPC   C4B15206   3.158  12.438   7.282 -0.1522  0.0937  0.0999
 1060YOPC   NC315207   2.460   5.363   5.176 -0.1175 -0.1453  0.1078
 1060YOPC   PO415208   2.630   5.573   5.512 -0.0934  0.0674  0.2801
 1060YOPC   GL115209   2.685   5.332   5.896 -0.0591  0.0213  0.0194
 1060YOPC   GL215210   2.893   5.186   5.840 -0.1812 -0.2245  0.0712
 1060YOPC   C1A15211   2.461   5.466   6.370  0.0316 -0.3152 -0.2741
 1060YOPC   D2A15212   2.413   5.587   6.738 -0.1542 -0.0239  0.1186
 1060YOPC   C3A15213   2.287   5.291   7.147  0.3015 -0.4255  0.0423
 1060YOPC   C4A15214   2.148   5.417   7.553  0.1431  0.1935  0.0657
 1060YOPC   C1B15215   2.743   4.978   6.229  0.0104 -0.1457 -0.0283
 1060YOPC   C2B15216   2.547   5.093   6.694  0.0389  0.0853 -0.2677
 1060YOPC   D3B15217   2.778   5.161   7.046 -0.0827 -0.2224  0.1581
 1060YOPC   C4B15218   3.098   4.944   7.281  0.3510  0.1084 -0.0285
 1061YOPC   NC315219   6.927   2.154   4.566 -0.3161 -0.0210  0.1526
 1061YOPC   PO415220   6.849   2.410   4.922  0.0834  0.5511 -0.2467
 1061YOPC   GL115221   6.967   2.501   5.318 -0.1398  0.2510 -0.2746
 1061YOPC   GL215222   7.083   2.769   5.238  0.1058  0.1137 -0.0462
 1061YOPC   C1A15223   7.005   2.461   5.670  0.0504 -0.1287  0.3404
 1061YOPC   D2A15224   7.192   2.790   5.911  0.1330 -0.1135 -0.1807
 1061YOPC   C3A15225   7.144   2.876   6.303 -0.1240  0.0355 -0.1880
 1061YOPC   C4A15226   6.851   2.946   6.635  0.1389 -0.0469 -0.0656
 1061YOPC   C1B15227   7.398   3.157   5.327 -0.0629  0.2790  0.0956
 1061YOPC   C2B15228   7.761   3.201   5.640 -0.0941 -0.0549  0.1494
 1061YOPC   D3B15229   7.898   3.350   6.023  0.2272  0.2620 -0.0927
 1061YOPC   C4B15230   7.963   3.359   6.484  0.1496  0.1358 -0.1199
 1062YOPC   NC315231  13.348   6.432   5.162  0.3748 -0.0385  0.0778
 1062YOPC   PO415232  13.409   6.863   5.247 -0.0736 -0.3276  0.2196
 1062YOPC   GL115233  13.133   6.761   5.629 -0.2678  0.2065 -0.1274
 1062YOPC   GL215234  13.267   6.531   5.822 -0.0888  0.1136 -0.2659
 1062YOPC   C1A15235  13.005   6.892   6.013 -0.0015 -0.4366  0.2401
 1062YOPC   D2A15236  12.760   7.036   6.347 -0.1241  0.4860  0.0687
 1062YOPC   C3A15237  12.709   6.898   6.704  0.1187  0.1651  0.1449
 1062YOPC   C4A15238  12.358   6.720   7.003 -0.1232  0.1311  0.1678
 1062YOPC   C1B15239  13.602   6.333   6.044 -0.0577  0.2070 -0.4103
 1062YOPC   C2B15240  13.987   6.157   6.026 -0.0783 -0.1399  0.2876
 1062YOPC   D3B15241  14.406   6.325   5.862  0.2595 -0.1838  0.0264
 1062YOPC   C4B15242  14.814   6.215   6.110  0.0381  0.1517  0.3305
 1063YOPC   NC315243   7.530  13.906   5.045  0.0908 -0.1156 -0.2314
 1063YOPC   PO415244   7.691  14.072   5.320 -0.1756 -0.0907 -0.1814
 1063YOPC   GL115245   7.929  13.884   5.706 -0.1359 -0.0849  0.0813
 1063YOPC   GL215246   7.836  13.670   5.749  0.1334 -0.3982 -0.1367
 1063YOPC   C1A15247   8.316  13.867   5.886  0.0461 -0.0327 -0.3665
 1063YOPC   D2A15248   8.688  14.234   6.082 -0.0198  0.2344  0.0572
 1063YOPC   C3A15249   8.750  14.388   6.428 -0.1970  0.4140 -0.2155
 1063YOPC   C4A15250   9.111  14.415   6.828  0.3719  0.0326 -0.1993
 1063YOPC   C1B15251   7.878  13.760   6.243 -0.1870 -0.1552 -0.0945
 1063YOPC   C2B15252   7.767  14.078   6.596  0.2302  0.0267  0.2447
 1063YOPC   D3B15253   8.056  14.202   6.889  0.0189  0.0835 -0.0666
 1063YOPC   C4B15254   8.203  14.544   7.273  0.2977 -0.0247 -0.1252
 1064YOPC   NC315255   0.037   5.878   5.425  0.2673 -0.3077 -0.0765
 1064YOPC   PO415256  -0.062   5.427   5.446  0.0119 -0.2210  0.0806
 1064YOPC   GL115257  -0.165   5.260   5.779 -0.1192  0.1256 -0.0385
 1064YOPC   GL215258   0.164   5.214   5.986 -0.0634 -0.0350  0.1874
 1064YOPC   C1A15259  -0.544   5.148   6.083  0.2814  0.0756 -0.1034
 1064YOPC   D2A15260  -0.829   5.372   6.262 -0.0827  0.1248  0.0836
 1064YOPC   C3A15261  -0.977   5.174   6.704 -0.0664  0.2984  0.0097
 1064YOPC   C4A15262  -1.256   4.990   6.949  0.1620  0.0955 -0.2511
 1064YOPC   C1B15263   0.256   5.471   6.160 -0.1730  0.2005 -0.1990
 1064YOPC   C2B15264   0.448   5.527   6.635  0.2550 -0.2785 -0.2529
 1064YOPC   D3B15265   0.829   5.368   6.881 -0.0104  0.2431 -0.0137
 1064YOPC   C4B15266   0.857   5.001   7.119 -0.1467  0.2794 -0.0430
 1065YOPC   NC315267   1.059   5.866   5.168 -0.1995  0.0519 -0.1967
 1065YOPC   PO415268   1.457   6.042   5.241  0.0958 -0.0267  0.0310
 1065YOPC   GL115269   1.544   6.017   5.655 -0.3171  0.0705  0.1342
 1065YOPC   GL215270   1.904   5.922   5.695 -0.0854  0.1733  0.0804
 1065YOPC   C1A15271   1.549   5.826   6.078  0.2658 -0.1173  0.2137
 1065YOPC   D2A15272   1.606   5.492   6.337  0.0575 -0.0902  0.1483
 1065YOPC   C3A15273   1.654   5.531   6.804 -0.0779 -0.0810 -0.0300
 1065YOPC   C4A15274   1.530   5.773   7.143 -0.5883  0.0781 -0.0554
 1065YOPC   C1B15275   2.036   5.808   6.106  0.1201  0.4032 -0.0394
 1065YOPC   C2B15276   1.898   5.906   6.536 -0.1311  0.0263 -0.3403
 1065YOPC   D3B15277   1.521   5.946   6.633 -0.0260  0.0316  0.2727
 1065YOPC   C4B15278   1.191   5.699   6.813 -0.3656 -0.0479  0.2556
 1066YOPC   NC315279  10.173   5.133   4.954 -0.3633  0.0593  0.0849
 1066YOPC   PO415280   9.774   4.962   4.966  0.0488 -0.1235  0.1065
 1066YOPC   GL115281   9.752   5.177   5.242  0.0958  0.2598 -0.0818
 1066YOPC   GL215282   9.375   5.022   5.192 -0.0288  0.0813  0.1761
 1066YOPC   C1A15283   9.788   5.504   5.499  0.0635  0.2547 -0.3586
 1066YOPC   D2A15284   9.664   5.489   6.001  0.1095  0.2065 -0.1893
 1066YOPC   C3A15285   9.854   5.252   6.303 -0.0699  0.1490  0.2054
 1066YOPC   C4A15286   9.779   5.104   6.681 -0.1919 -0.0576 -0.0298
 1066YOPC   C1B15287   9.247   5.287   5.547  0.1820  0.0784 -0.0964
 1066YOPC   C2B15288   9.124   5.623   5.779  0.1716  0.2254  0.2522
 1066YOPC   D3B15289   9.259   5.643   6.161 -0.0177  0.2086  0.0573
 1066YOPC   C4B15290   9.501   5.563   6.447 -0.2736  0.0602 -0.1350
 1067YOPC   NC315291  13.896  10.550   5.020  0.3493  0.2506  0.0659
 1067YOPC   PO415292  13.631  10.599   5.325 -0.0643  0.1544  0.2675
 1067YOPC   GL115293  13.755  10.616   5.814 -0.0301  0.2524 -0.3229
 1067YOPC   GL215294  14.055  10.493   5.867  0.2439 -0.0267 -0.0173
 1067YOPC   C1A15295  13.610  10.623   6.231 -0.4339 -0.1921  0.0930
 1067YOPC   D2A15296  13.508  10.570   6.596 -0.0198  0.1235  0.0433
 1067YOPC   C3A15297  13.167  10.416   6.765  0.3005 -0.2331  0.3182
 1067YOPC   C4A15298  12.841  10.216   6.593  0.1223  0.1144  0.2180
 1067YOPC   C1B15299  14.237  10.910   5.917  0.0445  0.1932 -0.2590
 1067YOPC   C2B15300  14.249  11.316   6.032 -0.1160  0.0632  0.0511
 1067YOPC   D3B15301  14.283  11.633   5.863 -0.2935  0.0378 -0.2363
 1067YOPC   C4B15302  14.074  11.842   5.969  0.5423  0.0337  0.0314
 1068YOPC   NC315303   0.895  12.485   5.308  0.1489 -0.0408  0.1743
 1068YOPC   PO415304   1.000  12.294   5.649 -0.0733  0.0297 -0.2750
 1068YOPC   GL115305   1.150  12.192   6.089 -0.2565 -0.0572  0.2805
 1068YOPC   GL215306   1.280  11.853   5.961 -0.1194 -0.4911 -0.2643
 1068YOPC   C1A15307   1.238  12.278   6.551  0.0871  0.2008 -0.2798
 1068YOPC   D2A15308   1.286  12.432   7.074 -0.1143  0.0352  0.2748
 1068YOPC   C3A15309   0.984  12.408   7.344  0.0199 -0.1418  0.0336
 1068YOPC   C4A15310   0.503  12.502   7.507  0.0306  0.0372 -0.2460
 1068YOPC   C1B15311   1.077  11.729   6.399 -0.0746 -0.0802 -0.3426
 1068YOPC   C2B15312   1.057  11.887   6.808  0.1663  0.0695  0.1829
 1068YOPC   D3B15313   0.882  11.498   7.051 -0.0206 -0.1568  0.1685
 1068YOPC   C4B15314   0.874  11.022   7.316 -0.2867  0.0009  0.1170
 1069YOPC   NC315315  19.084  17.638   5.275  0.1294 -0.0386 -0.2273
 1069YOPC   PO415316  18.688  17.609   5.499  0.2779 -0.0517  0.0691
 1069YOPC   GL115317  18.606  17.719   5.870  0.1494  0.2349  0.2245
 1069YOPC   GL215318  18.610  18.066   5.954 -0.0156 -0.1656 -0.0683
 1069YOPC   C1A15319  18.641  17.540   6.252 -0.2046 -0.0544 -0.1301
 1069YOPC   D2A15320  18.738  17.307   6.582  0.3736  0.2018 -0.2898
 1069YOPC   C3A15321  18.694  17.462   6.973  0.3667  0.0231 -0.0189
 1069YOPC   C4A15322  18.307  17.493   7.214  0.0121  0.1346 -0.1778
 1069YOPC   C1B15323  18.616  18.153   6.336  0.1074  0.2973  0.0645
 1069YOPC   C2B15324  18.956  18.284   6.471 -0.1400  0.0280 -0.1725
 1069YOPC   D3B15325  19.365  18.270   6.127 -0.0229  0.1446 -0.1960
 1069YOPC   C4B15326  19.513  18.434   5.762 -0.3102  0.3665  0.0309
 1070YOPC   NC315327   1.506   6.571   5.174 -0.1178  0.1381 -0.3972
 1070YOPC   PO415328   1.029   6.330   5.075 -0.1418 -0.3066  0.0135
 1070YOPC   GL115329   0.990   6.192   5.504 -0.1038 -0.3856 -0.2302
 1070YOPC   GL215330   0.655   6.174   5.747  0.1841 -0.2725 -0.1764
 1070YOPC   C1A15331   1.072   6.003   5.931 -0.1842 -0.1665  0.0439
 1070YOPC   D2A15332   1.121   6.140   6.320 -0.0085  0.0654  0.1876
 1070YOPC   C3A15333   0.814   6.018   6.636 -0.2464 -0.1559  0.0736
 1070YOPC   C4A15334   0.528   5.906   6.930  0.3274 -0.4328  0.1193
 1070YOPC   C1B15335   0.693   6.267   6.092  0.3563 -0.1622  0.0333
 1070YOPC   C2B15336   0.602   6.621   6.350 -0.0620  0.1751 -0.4494
 1070YOPC   D3B15337   0.650   6.510   6.768 -0.3079 -0.0159 -0.0655
 1070YOPC   C4B15338   0.719   6.289   7.151  0.0772 -0.3743 -0.2154
 1071YOPC   NC315339   0.099  18.179   4.898  0.1408  0.0265  0.0358
 1071YOPC   PO415340  -0.216  18.153   5.233 -0.4084 -0.0085  0.0408
 1071YOPC   GL115341  -0.290  17.945   5.668 -0.0688  0.1977 -0.0637
 1071YOPC   GL215342   0.059  17.907   5.771  0.1805  0.0390  0.1629
 1071YOPC   C1A15343  -0.364  17.910   6.132  0.5194 -0.1408 -0.1746
 1071YOPC   D2A15344  -0.513  17.822   6.608 -0.1515 -0.1039  0.1134
 1071YOPC   C3A15345  -0.409  18.025   6.937 -0.0425 -0.1824  0.0117
 1071YOPC   C4A15346  -0.096  18.334   6.880  0.0796  0.0697  0.0064
 1071YOPC   C1B15347   0.169  17.783   6.158 -0.1989  0.2126 -0.1717
 1071YOPC   C2B15348  -0.020  17.988   6.540 -0.0458  0.1659 -0.1089
 1071YOPC   D3B15349   0.224  17.886   6.849 -0.2629 -0.3230  0.1901
 1071YOPC   C4B15350   0.412  17.467   6.686  0.1657 -0.2393 -0.1069
 1072YOPC   NC315351  18.759   6.927   5.080 -0.0352 -0.0472 -0.1868
 1072YOPC   PO415352  18.672   6.811   5.434  0.3131  0.1771  0.4325
 1072YOPC   GL115353  18.719   6.872   5.859 -0.4084 -0.1937  0.1416
 1072YOPC   GL215354  18.703   6.542   6.047 -0.0379 -0.0246 -0.1027
 1072YOPC   C1A15355  18.971   6.933   6.242 -0.1944 -0.3743 -0.0017
 1072YOPC   D2A15356  19.133   7.090   6.503  0.1686 -0.2558 -0.3607
 1072YOPC   C3A15357  19.350   6.986   6.882  0.1988  0.2458 -0.2107
 1072YOPC   C4A15358  19.406   6.935   7.264 -0.0560 -0.2178  0.2403
 1072YOPC   C1B15359  18.817   6.471   6.350 -0.0117 -0.0790 -0.0042
 1072YOPC   C2B15360  18.932   6.698   6.782  0.0371 -0.0239 -0.0951
 1072YOPC   D3B15361  18.898   6.468   7.188 -0.2389 -0.1277  0.0531
 1072YOPC   C4B15362  19.101   6.512   7.502 -0.2489  0.0743  0.1613
 1073YOPC   NC315363   8.159   7.696   5.054  0.0895  0.1097  0.1278
 1073YOPC   PO415364   7.885   8.119   5.064 -0.0910  0.1442 -0.0856
 1073YOPC   GL115365   7.766   8.284   5.441 -0.2337 -0.1354  0.1124
 1073YOPC   GL215366   7.962   8.515   5.535  0.0724 -0.0592 -0.2905
 1073YOPC   C1A15367   7.647   8.062   5.863  0.1253 -0.2937 -0.0524
 1073YOPC   D2A15368   7.643   8.047   6.364  0.0382  0.1544 -0.0630
 1073YOPC   C3A15369   7.306   7.765   6.526 -0.3198 -0.2757  0.0011
 1073YOPC   C4A15370   7.366   7.363   6.720 -0.1021 -0.0158 -0.5034
 1073YOPC   C1B15371   7.875   8.523   6.023 -0.1185  0.0563 -0.1376
 1073YOPC   C2B15372   7.613   8.563   6.226  0.0327 -0.0092 -0.0649
 1073YOPC   D3B15373   7.366   8.811   6.590 -0.2515  0.1284 -0.1819
 1073YOPC   C4B15374   7.162   8.854   6.920  0.1598  0.2596  0.1251
 1074YOPC   NC315375  14.696  14.929   5.388  0.0733 -0.3482  0.3979
 1074YOPC   PO415376  14.694  14.635   5.684  0.0242 -0.0690 -0.3029
 1074YOPC   GL115377  14.761  14.706   6.054  0.0320  0.3822  0.0161
 1074YOPC   GL215378  14.487  14.892   6.207  0.1812  0.1063  0.1705
 1074YOPC   C1A15379  15.001  14.752   6.338  0.0420  0.0268 -0.1473
 1074YOPC   D2A15380  15.131  14.762   6.740 -0.1781  0.3692  0.0052
 1074YOPC   C3A15381  15.319  14.467   6.963 -0.3051  0.2205 -0.0926
 1074YOPC   C4A15382  15.495  14.041   7.188 -0.0002 -0.0376  0.0758
 1074YOPC   C1B15383  14.621  14.919   6.656  0.0926  0.0684 -0.0631
 1074YOPC   C2B15384  14.835  14.999   7.069 -0.3009  0.2893  0.0441
 1074YOPC   D3B15385  14.609  15.134   7.424  0.0787 -0.1849  0.0805
 1074YOPC   C4B15386  14.706  15.325   7.912 -0.0022 -0.0926 -0.0182
 1075YOPC   NC315387  18.853  12.881   5.204 -0.1490  0.0580 -0.2386
 1075YOPC   PO415388  19.131  12.983   5.624  0.0190 -0.0191  0.1166
 1075YOPC   GL115389  19.028  12.865   5.903  0.0046 -0.0453  0.1738
 1075YOPC   GL215390  19.018  13.142   6.086  0.0569  0.0106  0.4859
 1075YOPC   C1A15391  19.000  12.538   6.091 -0.0439 -0.3036  0.2454
 1075YOPC   D2A15392  19.041  12.484   6.575  0.2725 -0.1199  0.4827
 1075YOPC   C3A15393  19.315  12.588   6.715  0.0907 -0.3466 -0.0943
 1075YOPC   C4A15394  19.595  12.482   7.052  0.2777  0.0214 -0.2268
 1075YOPC   C1B15395  18.845  12.980   6.452 -0.1651  0.2546 -0.2114
 1075YOPC   C2B15396  18.920  12.867   6.878  0.1231 -0.1961 -0.2415
 1075YOPC   D3B15397  18.778  12.784   7.346 -0.2728 -0.1074 -0.1414
 1075YOPC   C4B15398  18.553  12.876   7.637  0.0798 -0.1863  0.0206
 1076YOPC   NC315399   6.603  13.543   5.295 -0.2286  0.3503 -0.2378
 1076YOPC   PO415400   6.111  13.630   5.313 -0.0111 -0.3623  0.0576
 1076YOPC   GL115401   6.291  13.600   5.759  0.1137  0.3233 -0.6726
 1076YOPC   GL215402   6.085  13.862   5.936 -0.0839  0.0772  0.0077
 1076YOPC   C1A15403   6.507  13.733   6.059 -0.1883 -0.0412 -0.0421
 1076YOPC   D2A15404   6.455  13.855   6.604  0.2934  0.0508 -0.1651
 1076YOPC   C3A15405   6.651  13.866   6.930 -0.0623 -0.2116  0.1763
 1076YOPC   C4A15406   7.025  13.629   6.966 -0.0660  0.1277  0.1845
 1076YOPC   C1B15407   6.096  14.065   6.241 -0.0208  0.2250 -0.3384
 1076YOPC   C2B15408   5.925  14.241   6.665 -0.1200 -0.3183  0.1071
 1076YOPC   D3B15409   6.309  14.337   6.865 -0.0489 -0.0029  0.3126
 1076YOPC   C4B15410   6.645  14.573   7.252 -0.3121  0.0679 -0.0504
 1077YOPC   NC315411  11.875   8.172   4.878  0.1853 -0.1320  0.1315
 1077YOPC   PO415412  12.034   7.728   5.013 -0.3631 -0.0847 -0.5830
 1077YOPC   GL115413  12.142   7.560   5.467  0.1139  0.3050  0.0133
 1077YOPC   GL215414  11.867   7.277   5.363 -0.0094 -0.1435 -0.2096
 1077YOPC   C1A15415  12.160   7.830   5.815  0.4954 -0.0530  0.1512
 1077YOPC   D2A15416  12.337   7.862   6.262  0.1023  0.2412 -0.0224
 1077YOPC   C3A15417  12.106   7.737   6.546 -0.1599 -0.0543  0.1673
 1077YOPC   C4A15418  11.904   7.578   6.939  0.3420 -0.0001 -0.3421
 1077YOPC   C1B15419  11.988   7.180   5.693 -0.4510 -0.1046  0.2136
 1077YOPC   C2B15420  12.138   7.380   6.026 -0.1966  0.1931 -0.1175
 1077YOPC   D3B15421  11.848   7.364   6.323  0.3454  0.4193  0.1602
 1077YOPC   C4B15422  11.618   7.289   6.648 -0.1956  0.1545 -0.1508
 1078YOPC   NC315423   5.191   0.662   4.984 -0.0157 -0.0076 -0.0114
 1078YOPC   PO415424   4.862   0.426   4.794 -0.2658 -0.2093  0.0366
 1078YOPC   GL115425   4.862   0.316   5.239 -0.2265  0.4297 -0.0714
 1078YOPC   GL215426   4.831  -0.001   5.308  0.1813  0.1088 -0.0246
 1078YOPC   C1A15427   4.796   0.376   5.700  0.0610  0.2702 -0.1935
 1078YOPC   D2A15428   4.839   0.574   6.037  0.1751 -0.0781 -0.1380
 1078YOPC   C3A15429   4.513   0.623   6.325  0.0756  0.0937 -0.0424
 1078YOPC   C4A15430   4.557   0.564   6.739  0.1207  0.0135  0.3218
 1078YOPC   C1B15431   4.956  -0.145   5.720  0.3976 -0.1117  0.1192
 1078YOPC   C2B15432   5.272  -0.353   5.948 -0.1143  0.0513 -0.1649
 1078YOPC   D3B15433   5.288  -0.283   6.368  0.0581 -0.0989  0.3002
 1078YOPC   C4B15434   5.193  -0.137   6.653 -0.0762 -0.2639 -0.1775
 1079YOPC   NC315435  13.913   6.989   5.258 -0.2068 -0.0114  0.1893
 1079YOPC   PO415436  14.422   7.055   5.302  0.0689 -0.2850  0.2606
 1079YOPC   GL115437  14.534   6.923   5.703  0.2162  0.2853  0.2669
 1079YOPC   GL215438  14.810   7.034   5.803  0.2106  0.0286 -0.0821
 1079YOPC   C1A15439  14.670   6.693   6.135  0.1172 -0.1590 -0.1267
 1079YOPC   D2A15440  14.698   6.598   6.478  0.3070 -0.1122  0.0067
 1079YOPC   C3A15441  14.781   6.188   6.600  0.2692 -0.0280  0.3535
 1079YOPC   C4A15442  14.687   6.061   7.067 -0.1107 -0.1032 -0.1401
 1079YOPC   C1B15443  14.983   7.090   6.133  0.0355  0.1973  0.0498
 1079YOPC   C2B15444  15.004   7.043   6.605 -0.2901  0.0620 -0.0634
 1079YOPC   D3B15445  14.986   6.670   6.902  0.0533  0.0648  0.1346
 1079YOPC   C4B15446  15.142   6.485   7.277  0.0373  0.2384  0.1473
 1080YOPC   NC315447   8.717   0.443   4.352 -0.1388  0.1423  0.0602
 1080YOPC   PO415448   8.519   0.616   4.794 -0.2265  0.4046  0.1138
 1080YOPC   GL115449   8.298   0.752   5.175  0.1848 -0.0289  0.0273
 1080YOPC   GL215450   8.461   1.080   5.227 -0.0227 -0.2095 -0.1838
 1080YOPC   C1A15451   7.941   0.772   5.423 -0.1309  0.0314  0.1186
 1080YOPC   D2A15452   7.669   0.708   5.707  0.2016  0.5062  0.0503
 1080YOPC   C3A15453   7.247   0.444   5.541  0.0572 -0.1504 -0.4440
 1080YOPC   C4A15454   6.875   0.382   5.609  0.0310 -0.0218  0.1612
 1080YOPC   C1B15455   8.314   1.183   5.677 -0.0315  0.1882  0.0500
 1080YOPC   C2B15456   8.086   1.448   6.052 -0.0945  0.2507 -0.2090
 1080YOPC   D3B15457   8.346   1.604   6.427 -0.1666  0.1076  0.2386
 1080YOPC   C4B15458   8.582   1.654   6.835 -0.1127  0.0730  0.3680
 1081YOPC   NC315459   3.253  18.718   5.212  0.1888 -0.3995 -0.0554
 1081YOPC   PO415460   2.919  18.598   5.204  0.2299 -0.2211 -0.2722
 1081YOPC   GL115461   3.209  18.499   5.630 -0.0300 -0.1875 -0.0006
 1081YOPC   GL215462   3.246  18.729   5.711 -0.1349 -0.1706 -0.2362
 1081YOPC   C1A15463   3.347  18.223   5.900  0.0086  0.1686  0.2683
 1081YOPC   D2A15464   3.314  18.183   6.325 -0.1904 -0.0540  0.1315
 1081YOPC   C3A15465   2.892  17.918   6.334 -0.1455  0.0782  0.0521
 1081YOPC   C4A15466   2.639  17.639   6.037  0.6070 -0.2024 -0.1633
 1081YOPC   C1B15467   3.268  18.726   6.118  0.0665  0.2546 -0.3369
 1081YOPC   C2B15468   3.146  18.717   6.549 -0.0301 -0.0473 -0.1202
 1081YOPC   D3B15469   2.826  18.644   6.799  0.1243 -0.1656  0.1194
 1081YOPC   C4B15470   2.562  18.932   7.038  0.0605  0.0490  0.0584
 1082YOPC   NC315471   6.126  11.440   4.960  0.0034 -0.1148 -0.1825
 1082YOPC   PO415472   6.491  11.271   5.158  0.0820  0.2322  0.0882
 1082YOPC   GL115473   6.619  11.151   5.573 -0.0422  0.3069  0.0630
 1082YOPC   GL215474   6.410  11.321   5.734 -0.4603  0.0922 -0.1050
 1082YOPC   C1A15475   6.837  11.045   5.935  0.1061  0.1483  0.2511
 1082YOPC   D2A15476   6.947  10.926   6.341 -0.0100  0.2559 -0.1512
 1082YOPC   C3A15477   6.845  10.399   6.514 -0.1993  0.6938  0.1876
 1082YOPC   C4A15478   6.675  10.122   6.421 -0.3102  0.0939 -0.0214
 1082YOPC   C1B15479   6.419  11.484   6.098  0.1712 -0.1152  0.2382
 1082YOPC   C2B15480   6.610  11.248   6.547 -0.0418  0.3660  0.1306
 1082YOPC   D3B15481   6.761  11.045   6.908 -0.1526  0.1788  0.0379
 1082YOPC   C4B15482   6.656  10.655   7.155  0.1124 -0.0256 -0.1519
 1083YOPC   NC315483   4.967  13.863   5.710 -0.0656  0.1251 -0.0311
 1083YOPC   PO415484   4.642  14.030   5.495 -0.4146 -0.2979  0.1407
 1083YOPC   GL115485   4.572  14.122   5.990 -0.2111  0.0229 -0.3186
 1083YOPC   GL215486   4.858  14.074   6.208 -0.1990 -0.1185 -0.1202
 1083YOPC   C1A15487   4.364  14.071   6.407  0.5175 -0.2493 -0.1784
 1083YOPC   D2A15488   4.145  13.830   6.712  0.4420 -0.2854  0.0587
 1083YOPC   C3A15489   4.262  13.804   7.133 -0.0810  0.2195 -0.0409
 1083YOPC   C4A15490   4.200  13.963   7.536 -0.1103  0.2321  0.0079
 1083YOPC   C1B15491   5.114  13.877   6.467 -0.1376  0.2864 -0.2557
 1083YOPC   C2B15492   5.210  13.786   6.951 -0.1843  0.1956 -0.5827
 1083YOPC   D3B15493   5.125  13.885   7.382 -0.0796  0.0351  0.0109
 1083YOPC   C4B15494   4.701  13.995   7.529 -0.1417  0.0561 -0.0849
 1084YOPC   NC315495   3.088   9.817   5.433 -0.2050  0.2062  0.0801
 1084YOPC   PO415496   3.573  10.118   5.372 -0.2224 -0.1473 -0.0085
 1084YOPC   GL115497   3.453  10.251   5.755  0.0746  0.3354  0.1686
 1084YOPC   GL215498   3.043  10.137   5.801  0.2450  0.0047  0.0346
 1084YOPC   C1A15499   3.702  10.317   6.106  0.1462  0.1285  0.0448
 1084YOPC   D2A15500   4.026  10.485   6.357 -0.6196 -0.0518 -0.1867
 1084YOPC   C3A15501   4.165  10.437   6.776  0.1136 -0.0030 -0.1823
 1084YOPC   C4A15502   4.016  10.489   7.119  0.4054  0.0912 -0.2274
 1084YOPC   C1B15503   3.143  10.356   6.106  0.4165 -0.1603 -0.0971
 1084YOPC   C2B15504   3.222  10.563   6.450  0.1704  0.2993 -0.0458
 1084YOPC   D3B15505   3.148  10.409   6.874 -0.1198 -0.2146 -0.2920
 1084YOPC   C4B15506   3.105  10.014   7.111 -0.0640  0.3126  0.0260
 1085YOPC   NC315507  13.898   4.580   5.405  0.2778 -0.0868 -0.1664
 1085YOPC   PO415508  14.191   4.872   5.662  0.3048 -0.1634 -0.0301
 1085YOPC   GL115509  14.338   4.945   6.019 -0.1624  0.0522  0.1359
 1085YOPC   GL215510  14.369   4.706   6.179  0.1313 -0.2671 -0.0791
 1085YOPC   C1A15511  14.259   5.379   6.228 -0.5083 -0.0667 -0.5737
 1085YOPC   D2A15512  14.111   5.646   6.568  0.2954 -0.3429 -0.1778
 1085YOPC   C3A15513  13.926   5.788   6.863  0.3481  0.4529  0.0052
 1085YOPC   C4A15514  13.826   6.149   7.048  0.0554  0.0600 -0.0857
 1085YOPC   C1B15515  14.452   4.455   6.518  0.0219 -0.0680 -0.2024
 1085YOPC   C2B15516  14.700   4.390   6.896  0.2488 -0.1181  0.4147
 1085YOPC   D3B15517  14.652   4.610   7.200 -0.0428  0.1973 -0.0186
 1085YOPC   C4B15518  14.904   4.967   7.344 -0.2034  0.1337  0.1438
 1086YOPC   NC315519  13.694  13.245   5.539  0.1832  0.1885  0.3677
 1086YOPC   PO415520  13.324  13.166   5.204 -0.1979 -0.1568 -0.0921
 1086YOPC   GL115521  13.264  13.016   5.646  0.2008  0.0131  0.3719
 1086YOPC   GL215522  13.347  13.318   5.888  0.0938 -0.1106  0.1675
 1086YOPC   C1A15523  13.263  12.745   5.964  0.0874 -0.0825 -0.1615
 1086YOPC   D2A15524  13.227  12.350   5.913 -0.1597  0.4044 -0.3206
 1086YOPC   C3A15525  12.994  12.073   5.960  0.0162 -0.0715 -0.1098
 1086YOPC   C4A15526  13.153  11.627   6.048  0.0554 -0.3058 -0.1775
 1086YOPC   C1B15527  13.053  13.618   6.033  0.4999  0.0119 -0.1303
 1086YOPC   C2B15528  12.750  13.618   6.367 -0.5746 -0.0344  0.1138
 1086YOPC   D3B15529  12.756  13.754   6.801  0.1971  0.0421 -0.0530
 1086YOPC   C4B15530  12.599  13.997   7.184 -0.0829 -0.0822  0.0129
 1087YOPC   NC315531   0.935  18.270   5.551 -0.0348 -0.1120 -0.0208
 1087YOPC   PO415532   1.428  18.377   5.421  0.0792  0.0110 -0.1710
 1087YOPC   GL115533   1.420  18.152   5.825 -0.4515  0.1423  0.0116
 1087YOPC   GL215534   1.295  17.839   5.736 -0.0387 -0.0561 -0.1265
 1087YOPC   C1A15535   1.599  18.255   6.192  0.1332 -0.4438  0.0479
 1087YOPC   D2A15536   1.539  18.162   6.742  0.0558 -0.0870 -0.0764
 1087YOPC   C3A15537   1.929  18.291   6.987 -0.1682  0.0338  0.1005
 1087YOPC   C4A15538   2.106  18.689   7.033 -0.0036  0.1109 -0.2272
 1087YOPC   C1B15539   1.122  17.970   6.233 -0.2172 -0.1818  0.2690
 1087YOPC   C2B15540   1.045  18.395   6.291 -0.3246  0.1369  0.1064
 1087YOPC   D3B15541   0.979  18.482   6.687 -0.1069 -0.0259 -0.1591
 1087YOPC   C4B15542   0.838  18.617   7.100  0.2691 -0.1469 -0.0979
 1088YOPC   NC315543   0.184   0.065   5.226  0.1432  0.1401 -0.0720
 1088YOPC   PO415544   0.093  -0.337   5.177 -0.3140  0.0245  0.1611
 1088YOPC   GL115545   0.203  -0.292   5.590  0.3368 -0.0143 -0.0300
 1088YOPC   GL215546  -0.054  -0.367   5.733  0.1256 -0.1015 -0.5287
 1088YOPC   C1A15547   0.324  -0.068   5.960  0.2056 -0.1554  0.0258
 1088YOPC   D2A15548   0.595  -0.067   6.328  0.0478 -0.2184 -0.0498
 1088YOPC   C3A15549   0.443   0.110   6.721  0.1209  0.0654 -0.2021
 1088YOPC   C4A15550   0.346  -0.045   7.009 -0.1361  0.0857  0.1482
 1088YOPC   C1B15551   0.172  -0.535   6.097  0.2426  0.0267  0.0996
 1088YOPC   C2B15552   0.169  -0.763   6.443 -0.0351 -0.1021  0.2198
 1088YOPC   D3B15553   0.405  -1.060   6.640 -0.2014  0.1805  0.0500
 1088YOPC   C4B15554   0.607  -1.417   6.534 -0.0725 -0.0010 -0.3641
 1089YOPC   NC315555  14.911   5.707   5.598  0.1276 -0.2599 -0.0178
 1089YOPC   PO415556  14.937   5.363   5.386  0.2499 -0.2391 -0.1573
 1089YOPC   GL115557  15.016   5.278   5.780  0.2085  0.1032  0.1825
 1089YOPC   GL215558  14.855   5.085   5.803  0.1643 -0.0122 -0.1444
 1089YOPC   C1A15559  15.117   5.468   6.124  0.0350 -0.4073  0.1842
 1089YOPC   D2A15560  15.041   5.386   6.567  0.3072  0.0976  0.2797
 1089YOPC   C3A15561  15.016   5.720   6.849  0.0846 -0.2161 -0.0628
 1089YOPC   C4A15562  15.205   5.904   7.259 -0.1805  0.3649  0.1452
 1089YOPC   C1B15563  14.694   5.156   6.287 -0.5252  0.1112  0.0473
 1089YOPC   C2B15564  14.335   4.988   6.574  0.1158  0.0390 -0.1585
 1089YOPC   D3B15565  14.200   5.216   6.937  0.0454  0.0378 -0.1183
 1089YOPC   C4B15566  14.496   5.311   7.272  0.0509 -0.1364  0.2377
 1090YOPC   NC315567   9.413  16.682   5.164 -0.1682  0.0350  0.3458
 1090YOPC   PO415568   9.865  16.570   5.287  0.1925  0.0347 -0.0476
 1090YOPC   GL115569   9.954  16.740   5.665 -0.0333 -0.0692  0.0404
 1090YOPC   GL215570   9.775  16.615   5.869  0.0466 -0.2561 -0.2334
 1090YOPC   C1A15571  10.036  17.131   5.864 -0.0238  0.0827 -0.2704
 1090YOPC   D2A15572   9.887  17.525   6.085 -0.0139 -0.0039 -0.1157
 1090YOPC   C3A15573   9.500  17.651   6.161 -0.2459  0.2029  0.0263
 1090YOPC   C4A15574   9.179  17.525   6.012 -0.2707  0.3534  0.2286
 1090YOPC   C1B15575   9.770  16.948   6.239 -0.1379 -0.3725 -0.4047
 1090YOPC   C2B15576   9.616  17.272   6.480 -0.2042  0.1193 -0.1542
 1090YOPC   D3B15577   9.733  17.352   6.990 -0.0661  0.1044  0.3087
 1090YOPC   C4B15578   9.775  17.605   7.339 -0.2263  0.2213 -0.1969
 1091YOPC   NC315579   2.095  14.458   5.200 -0.1287 -0.0795  0.1212
 1091YOPC   PO415580   2.310  14.683   5.541 -0.1802 -0.2280 -0.1830
 1091YOPC   GL115581   2.263  14.778   5.964 -0.2245  0.0333 -0.2249
 1091YOPC   GL215582   2.300  15.108   6.100 -0.2712 -0.0128 -0.1326
 1091YOPC   C1A15583   2.236  14.814   6.438  0.2683  0.0548  0.0048
 1091YOPC   D2A15584   2.430  14.801   6.871  0.4019  0.1134  0.0234
 1091YOPC   C3A15585   2.636  14.463   7.104  0.0304  0.1200 -0.1023
 1091YOPC   C4A15586   2.977  14.228   7.421 -0.1050  0.1977 -0.1030
 1091YOPC   C1B15587   2.256  15.425   6.531 -0.4772 -0.1764 -0.0572
 1091YOPC   C2B15588   2.230  15.619   7.019 -0.0199  0.0479 -0.0694
 1091YOPC   D3B15589   2.627  15.797   7.166 -0.0388 -0.1046  0.2498
 1091YOPC   C4B15590   3.030  15.739   7.070  0.0435 -0.0416  0.0109
 1092YOPC   NC315591   0.957  14.575   5.368 -0.2131 -0.0096  0.0563
 1092YOPC   PO415592   0.552  14.671   5.512  0.0867  0.3379  0.0508
 1092YOPC   GL115593   0.345  14.732   5.985 -0.1459 -0.0905  0.1587
 1092YOPC   GL215594   0.336  15.039   5.974 -0.4043 -0.1786  0.2230
 1092YOPC   C1A15595   0.524  14.447   6.357 -0.3742  0.0137 -0.0585
 1092YOPC   D2A15596   0.422  14.383   6.743  0.2744  0.0279 -0.1082
 1092YOPC   C3A15597   0.759  14.116   6.842 -0.1062  0.1083 -0.0399
 1092YOPC   C4A15598   1.109  14.118   7.073 -0.0828  0.0104  0.2223
 1092YOPC   C1B15599   0.533  15.352   6.132  0.0781 -0.0681  0.4259
 1092YOPC   C2B15600   0.918  15.397   6.453 -0.3596 -0.2027  0.0203
 1092YOPC   D3B15601   0.850  15.340   6.815  0.0032 -0.0628 -0.0085
 1092YOPC   C4B15602   0.531  15.435   7.156 -0.1996 -0.1927 -0.1068
 1093YOPC   NC315603  11.544   3.034   5.131 -0.0182  0.0889 -0.5796
 1093YOPC   PO415604  11.329   3.261   4.944  0.0595  0.0147 -0.0626
 1093YOPC   GL115605  11.176   3.516   5.239 -0.0264 -0.1264  0.0473
 1093YOPC   GL215606  10.998   3.829   5.315  0.1020  0.1248 -0.1290
 1093YOPC   C1A15607  11.085   3.368   5.607 -0.2994 -0.0616  0.0306
 1093YOPC   D2A15608  10.894   3.673   6.032  0.1514  0.2046  0.1005
 1093YOPC   C3A15609  11.242   3.762   6.127 -0.0358  0.2107 -0.1017
 1093YOPC   C4A15610  11.577   3.982   5.966  0.1706 -0.2652  0.1167
 1093YOPC   C1B15611  10.688   3.879   5.661 -0.1703  0.2520 -0.2236
 1093YOPC   C2B15612  10.490   4.059   5.983 -0.4546  0.1998  0.0101
 1093YOPC   D3B15613  10.572   3.892   6.418 -0.0992  0.4250  0.0252
 1093YOPC   C4B15614  10.637   3.624   6.756  0.1668  0.1821  0.4954
 1094YOPC   NC315615  15.192   3.605   5.299 -0.0546  0.1288 -0.2781
 1094YOPC   PO415616  15.221   3.172   5.336 -0.2161 -0.0548 -0.1062
 1094YOPC   GL115617  15.353   3.233   5.721  0.2225 -0.0685 -0.0470
 1094YOPC   GL215618  15.618   3.123   5.871  0.0459 -0.0738  0.1374
 1094YOPC   C1A15619  15.090   3.144   6.071  0.0370  0.1574 -0.0277
 1094YOPC   D2A15620  15.064   3.194   6.521  0.2639  0.0729  0.1259
 1094YOPC   C3A15621  15.380   3.346   6.612 -0.1928 -0.0513  0.1205
 1094YOPC   C4A15622  15.798   3.336   6.511  0.2454  0.0324 -0.0202
 1094YOPC   C1B15623  15.528   2.969   6.385 -0.1607 -0.1840  0.2542
 1094YOPC   C2B15624  15.438   2.905   6.827 -0.3092 -0.2445  0.2415
 1094YOPC   D3B15625  15.530   2.430   6.873 -0.0255  0.0835 -0.3008
 1094YOPC   C4B15626  15.653   2.030   7.037 -0.0358  0.1183 -0.0122
 1095YOPC   NC315627  12.026   5.712   5.080  0.0741  0.0374  0.0011
 1095YOPC   PO415628  12.021   6.167   5.167  0.0033 -0.2492 -0.0182
 1095YOPC   GL115629  12.040   6.364   5.555 -0.2121 -0.3096  0.0779
 1095YOPC   GL215630  11.775   6.161   5.666  0.1590  0.2822  0.2115
 1095YOPC   C1A15631  11.998   6.677   5.767 -0.2909 -0.0949  0.1434
 1095YOPC   D2A15632  11.823   6.921   6.091 -0.0631  0.2240 -0.1923
 1095YOPC   C3A15633  11.715   6.680   6.369  0.1603 -0.2572  0.1625
 1095YOPC   C4A15634  12.047   6.539   6.639  0.1139  0.0257 -0.2182
 1095YOPC   C1B15635  11.705   6.224   6.150 -0.1870  0.3586  0.0709
 1095YOPC   C2B15636  11.598   6.202   6.660 -0.2300 -0.1161  0.0772
 1095YOPC   D3B15637  11.837   6.147   6.916  0.1936  0.2059 -0.0089
 1095YOPC   C4B15638  12.362   6.141   6.870 -0.0323 -0.0763  0.1315
 1096YOPC   NC315639   3.077   7.797   5.150 -0.0945 -0.0831 -0.0539
 1096YOPC   PO415640   2.938   8.264   5.109  0.0302 -0.0629 -0.1307
 1096YOPC   GL115641   2.861   8.260   5.451  0.1231 -0.2876  0.0017
 1096YOPC   GL215642   2.473   8.262   5.395 -0.4273 -0.1623 -0.0912
 1096YOPC   C1A15643   2.781   8.601   5.783 -0.0710  0.0211 -0.1595
 1096YOPC   D2A15644   2.827   8.960   5.803 -0.0996  0.0434  0.1059
 1096YOPC   C3A15645   2.788   9.250   6.212  0.1786 -0.0084 -0.0169
 1096YOPC   C4A15646   2.546   9.175   6.505  0.0766 -0.0228  0.1222
 1096YOPC   C1B15647   2.433   7.913   5.731  0.1519 -0.0010 -0.1145
 1096YOPC   C2B15648   2.825   7.926   5.909 -0.3150  0.0772  0.3170
 1096YOPC   D3B15649   3.095   7.806   6.337 -0.1414  0.4450 -0.0040
 1096YOPC   C4B15650   3.382   7.930   6.673 -0.1016  0.2483  0.2544
 1097YOPC   NC315651   4.914  19.269   4.863  0.1890 -0.0426  0.0365
 1097YOPC   PO415652   4.498  19.481   4.926  0.1554  0.1583 -0.1078
 1097YOPC   GL115653   4.302  19.312   5.317 -0.0718  0.0828  0.4463
 1097YOPC   GL215654   4.489  19.294   5.676 -0.0620  0.1788 -0.0259
 1097YOPC   C1A15655   4.132  18.957   5.647  0.2575 -0.0489 -0.1923
 1097YOPC   D2A15656   3.769  18.737   5.760  0.1366  0.0765 -0.0560
 1097YOPC   C3A15657   3.710  18.869   6.172 -0.1457  0.1876  0.1608
 1097YOPC   C4A15658   3.982  19.008   6.469  0.3403 -0.0041 -0.0776
 1097YOPC   C1B15659   4.348  19.126   6.090  0.1427  0.3005 -0.0616
 1097YOPC   C2B15660   4.436  19.096   6.582 -0.0606  0.0882  0.2615
 1097YOPC   D3B15661   4.673  19.230   6.954 -0.1161  0.1340  0.2335
 1097YOPC   C4B15662   4.700  19.325   7.311 -0.1326  0.1306 -0.1872
 1098YOPC   NC315663   7.131  18.594   4.865 -0.2722  0.0017  0.2539
 1098YOPC   PO415664   6.738  18.739   5.029 -0.0536  0.1877  0.2455
 1098YOPC   GL115665   6.936  18.450   5.321 -0.1330  0.1206  0.1755
 1098YOPC   GL215666   6.828  18.601   5.535  0.2803  0.0514 -0.0539
 1098YOPC   C1A15667   7.143  18.236   5.696  0.1051  0.0822  0.0208
 1098YOPC   D2A15668   7.271  18.395   6.082  0.1181  0.0101 -0.0903
 1098YOPC   C3A15669   7.094  18.601   6.431  0.0368 -0.0091 -0.0673
 1098YOPC   C4A15670   6.727  18.624   6.693  0.0498 -0.0676 -0.0142
 1098YOPC   C1B15671   6.953  18.750   5.960 -0.4465  0.1099 -0.1867
 1098YOPC   C2B15672   6.658  18.979   6.316  0.0264  0.1968 -0.0431
 1098YOPC   D3B15673   6.699  19.429   6.385  0.0374 -0.2081  0.2234
 1098YOPC   C4B15674   6.602  19.452   5.919 -0.1674 -0.0187 -0.2598
 1099YOPC   NC315675   5.002  12.906   5.531  0.0075 -0.1714  0.2124
 1099YOPC   PO415676   5.482  12.978   5.603  0.0968 -0.0385  0.2480
 1099YOPC   GL115677   5.464  13.116   6.087 -0.0665  0.3424 -0.2259
 1099YOPC   GL215678   5.763  12.991   6.247  0.2482  0.0031  0.2408
 1099YOPC   C1A15679   5.374  13.356   6.555 -0.2889  0.0282  0.2439
 1099YOPC   D2A15680   4.958  13.414   6.752 -0.0833 -0.0210 -0.2445
 1099YOPC   C3A15681   4.950  13.215   7.264 -0.2380  0.0516  0.1547
 1099YOPC   C4A15682   4.817  12.882   7.112  0.3728 -0.0700 -0.0349
 1099YOPC   C1B15683   5.842  13.061   6.649  0.4167 -0.1419 -0.1063
 1099YOPC   C2B15684   5.697  13.428   6.935 -0.0036  0.1907  0.3371
 1099YOPC   D3B15685   5.491  13.579   7.321  0.2251 -0.0703  0.0813
 1099YOPC   C4B15686   5.828  13.708   7.635  0.0895 -0.3540  0.1388
 1100YOPC   NC315687   3.457  16.261   5.477  0.3817 -0.2134  0.1107
 1100YOPC   PO415688   3.751  16.499   5.292 -0.1003  0.0641  0.2792
 1100YOPC   GL115689   3.887  16.739   5.626 -0.0690  0.0203  0.3707
 1100YOPC   GL215690   4.177  16.938   5.457 -0.0713  0.0325  0.0290
 1100YOPC   C1A15691   4.027  16.622   6.048  0.2621  0.0057  0.1497
 1100YOPC   D2A15692   4.027  16.362   6.396  0.0162  0.2156 -0.4336
 1100YOPC   C3A15693   4.085  16.377   6.815 -0.0434 -0.2527 -0.4195
 1100YOPC   C4A15694   4.445  16.630   6.888  0.1157 -0.0292 -0.1690
 1100YOPC   C1B15695   4.474  16.686   5.790  0.0071 -0.2409 -0.1859
 1100YOPC   C2B15696   4.556  16.658   6.246  0.1338  0.2242  0.2436
 1100YOPC   D3B15697   4.767  16.979   6.540 -0.1137 -0.0220 -0.0699
 1100YOPC   C4B15698   5.218  17.156   6.395  0.0203  0.0327 -0.0449
 1101YOPC   NC315699   6.262   1.647   4.963 -0.3067  0.0315  0.2030
 1101YOPC   PO415700   5.837   1.429   4.830  0.4677 -0.0239  0.0488
 1101YOPC   GL115701   5.819   1.686   5.237 -0.0197  0.1814  0.2772
 1101YOPC   GL215702   6.038   1.775   5.409  0.1957 -0.1658  0.1152
 1101YOPC   C1A15703   5.404   1.676   5.474  0.0756 -0.3021 -0.1544
 1101YOPC   D2A15704   5.206   1.730   5.847 -0.0677 -0.1302 -0.1140
 1101YOPC   C3A15705   5.101   2.118   5.849 -0.0306 -0.1253 -0.1991
 1101YOPC   C4A15706   4.799   2.291   6.129  0.0339  0.0846  0.2247
 1101YOPC   C1B15707   6.301   1.878   5.785  0.2025  0.1123 -0.3937
 1101YOPC   C2B15708   6.603   1.588   5.940  0.1712  0.2075  0.2387
 1101YOPC   D3B15709   6.491   1.424   6.295 -0.1274 -0.2340 -0.0961
 1101YOPC   C4B15710   6.295   1.248   6.641  0.3380  0.1151 -0.2496
 1102YOPC   NC315711   3.645   8.522   4.896 -0.1935 -0.2736 -0.3778
 1102YOPC   PO415712   3.860   8.239   5.141  0.3804 -0.0011  0.2409
 1102YOPC   GL115713   3.397   8.229   5.327  0.0546 -0.1727 -0.0447
 1102YOPC   GL215714   3.276   7.946   5.562 -0.0554 -0.0737 -0.0513
 1102YOPC   C1A15715   3.258   8.425   5.739  0.2534  0.0670 -0.3442
 1102YOPC   D2A15716   3.152   8.373   6.254  0.1059  0.0822 -0.3710
 1102YOPC   C3A15717   2.755   8.265   6.412  0.0292 -0.1754 -0.0239
 1102YOPC   C4A15718   2.346   8.230   6.303 -0.2408 -0.2150 -0.0959
 1102YOPC   C1B15719   3.581   7.940   5.789 -0.0611 -0.0638 -0.0259
 1102YOPC   C2B15720   3.639   7.670   6.162 -0.0321 -0.3012  0.3436
 1102YOPC   D3B15721   3.933   7.681   6.479 -0.0111 -0.1740  0.2192
 1102YOPC   C4B15722   3.986   7.726   6.901 -0.1377  0.4706 -0.2350
 1103YOPC   NC315723   4.424   3.741   5.021  0.0854  0.0196 -0.0152
 1103YOPC   PO415724   4.689   3.601   4.717  0.2164  0.2365  0.1590
 1103YOPC   GL115725   5.058   3.432   5.116  0.0995  0.1345  0.4519
 1103YOPC   GL215726   5.200   3.569   5.345 -0.0881  0.0884  0.2294
 1103YOPC   C1A15727   4.917   3.230   5.602 -0.1374  0.0968  0.0245
 1103YOPC   D2A15728   4.951   3.187   5.977 -0.0276 -0.2785 -0.2138
 1103YOPC   C3A15729   4.807   3.401   6.432 -0.0252 -0.2574 -0.1319
 1103YOPC   C4A15730   4.653   3.425   6.951 -0.1352 -0.1590 -0.1439
 1103YOPC   C1B15731   5.228   3.720   5.822  0.2803  0.2118  0.1037
 1103YOPC   C2B15732   5.256   3.821   6.230 -0.0665 -0.1783 -0.0074
 1103YOPC   D3B15733   5.142   3.951   6.648  0.4153  0.0022 -0.0083
 1103YOPC   C4B15734   4.871   3.822   7.152 -0.0471  0.0606 -0.1282
 1104YOPC   NC315735   4.683   8.988   5.137 -0.1143 -0.0808  0.0792
 1104YOPC   PO415736   4.479   8.808   5.569 -0.2584 -0.0802  0.1236
 1104YOPC   GL115737   4.927   8.991   5.646  0.2296  0.0178 -0.2868
 1104YOPC   GL215738   4.826   8.989   5.882 -0.2519 -0.0104 -0.4773
 1104YOPC   C1A15739   5.394   8.800   5.716  0.0158  0.1852  0.0485
 1104YOPC   D2A15740   5.944   8.823   5.788  0.0996  0.0919  0.0863
 1104YOPC   C3A15741   5.937   9.024   6.163  0.1568 -0.1516  0.0026
 1104YOPC   C4A15742   6.288   9.222   6.350  0.4475 -0.3475 -0.1146
 1104YOPC   C1B15743   4.841   9.108   6.236 -0.1585  0.0025 -0.0944
 1104YOPC   C2B15744   4.988   9.088   6.639  0.1849 -0.1299 -0.2369
 1104YOPC   D3B15745   4.996   9.147   6.994 -0.1469 -0.1783  0.1078
 1104YOPC   C4B15746   4.721   9.409   7.234 -0.0576 -0.1704  0.1254
 1105YOPC   NC315747   6.755   0.306   4.831 -0.1358 -0.0610  0.3202
 1105YOPC   PO415748   6.971  -0.112   4.872 -0.0507  0.0058 -0.1689
 1105YOPC   GL115749   6.912  -0.150   5.322  0.1500 -0.0186  0.1191
 1105YOPC   GL215750   7.327  -0.271   5.410  0.0955 -0.0262  0.0199
 1105YOPC   C1A15751   6.679  -0.321   5.646 -0.2776  0.1224 -0.1026
 1105YOPC   D2A15752   6.478  -0.491   5.869 -0.1093 -0.0387 -0.1284
 1105YOPC   C3A15753   6.060  -0.631   5.915 -0.2948  0.3726  0.0252
 1105YOPC   C4A15754   5.597  -0.686   5.848 -0.2455 -0.0278 -0.2525
 1105YOPC   C1B15755   7.180   0.026   5.725  0.1457 -0.0445  0.0268
 1105YOPC   C2B15756   7.098  -0.106   6.021 -0.2439 -0.3279 -0.1785
 1105YOPC   D3B15757   7.115  -0.127   6.411  0.1283  0.1840 -0.1969
 1105YOPC   C4B15758   7.338  -0.162   6.785 -0.0886 -0.0909  0.2438
 1106YOPC   NC315759  14.792   2.816   5.425  0.4332  0.1958  0.3912
 1106YOPC   PO415760  14.354   2.524   5.460 -0.2579  0.1623  0.1165
 1106YOPC   GL115761  14.238   2.704   5.820  0.0715 -0.1707 -0.4374
 1106YOPC   GL215762  14.463   3.026   5.851 -0.2266 -0.1014 -0.2363
 1106YOPC   C1A15763  14.262   2.617   6.336  0.2317 -0.0624 -0.1549
 1106YOPC   D2A15764  14.123   2.626   6.692  0.2113  0.0032  0.3643
 1106YOPC   C3A15765  14.345   2.658   7.015  0.0068 -0.0023 -0.1113
 1106YOPC   C4A15766  14.534   2.966   7.473 -0.0597 -0.0601  0.1851
 1106YOPC   C1B15767  14.541   3.076   6.217 -0.0175  0.2482 -0.0715
 1106YOPC   C2B15768  14.847   2.762   6.273  0.0613  0.2687  0.2672
 1106YOPC   D3B15769  14.622   2.889   6.665  0.2472  0.2881  0.1158
 1106YOPC   C4B15770  14.835   2.940   7.020  0.0062  0.0219 -0.1935
 1107YOPC   NC315771  14.511   2.155   5.768  0.0804 -0.2131  0.0421
 1107YOPC   PO415772  14.707   2.532   5.815  0.1534 -0.0027  0.1291
 1107YOPC   GL115773  15.030   2.209   6.001 -0.1082  0.1128  0.1087
 1107YOPC   GL215774  15.183   1.955   5.940 -0.0067 -0.1739  0.0916
 1107YOPC   C1A15775  14.984   2.066   6.439 -0.0148 -0.2251  0.1705
 1107YOPC   D2A15776  15.167   1.993   6.805 -0.1944  0.0244  0.1473
 1107YOPC   C3A15777  15.237   1.630   6.876  0.0422 -0.2956  0.3261
 1107YOPC   C4A15778  15.380   1.368   7.172 -0.0699 -0.0909  0.1863
 1107YOPC   C1B15779  15.450   2.013   6.402 -0.2255 -0.1123  0.0976
 1107YOPC   C2B15780  15.666   1.690   6.641  0.1094 -0.1468 -0.2855
 1107YOPC   D3B15781  15.597   1.252   6.729 -0.3084  0.0031 -0.1723
 1107YOPC   C4B15782  15.482   0.887   6.981  0.0726  0.4137 -0.0377
 1108YOPC   NC315783   7.293  15.043   5.291 -0.0983 -0.0941 -0.2641
 1108YOPC   PO415784   7.337  14.578   5.527  0.0331 -0.1602 -0.1402
 1108YOPC   GL115785   7.355  14.488   5.908  0.0348 -0.5148 -0.2197
 1108YOPC   GL215786   7.596  14.155   5.942 -0.2738 -0.0366 -0.1645
 1108YOPC   C1A15787   7.214  14.322   6.287  0.2179  0.4239 -0.4904
 1108YOPC   D2A15788   7.034  14.729   6.487  0.0564 -0.2116  0.4264
 1108YOPC   C3A15789   6.670  14.742   6.705  0.3652 -0.0276 -0.0477
 1108YOPC   C4A15790   6.250  14.920   7.003  0.3028 -0.0792 -0.0237
 1108YOPC   C1B15791   7.711  14.381   6.238  0.3626 -0.1420 -0.3723
 1108YOPC   C2B15792   8.101  14.617   6.589  0.1922  0.1563 -0.2963
 1108YOPC   D3B15793   8.401  14.491   6.714  0.0422 -0.3085  0.0222
 1108YOPC   C4B15794   8.635  14.497   7.025  0.3379  0.0911  0.0604
 1109YOPC   NC315795  18.359   9.491   5.700  0.0107  0.1551 -0.0895
 1109YOPC   PO415796  18.773   9.242   5.595  0.3621 -0.3037  0.0173
 1109YOPC   GL115797  18.509   8.926   5.753  0.4252  0.1678  0.0899
 1109YOPC   GL215798  18.576   8.565   5.956 -0.0516 -0.0911 -0.0690
 1109YOPC   C1A15799  18.207   8.884   6.047  0.0493  0.1351 -0.0317
 1109YOPC   D2A15800  17.925   9.154   6.380  0.1800 -0.0354  0.0355
 1109YOPC   C3A15801  18.084   9.331   6.814 -0.0574  0.0046 -0.2128
 1109YOPC   C4A15802  18.330   9.374   7.092 -0.1057  0.1318  0.1926
 1109YOPC   C1B15803  18.588   8.445   6.387 -0.2511  0.2355  0.4719
 1109YOPC   C2B15804  18.582   8.615   6.771 -0.1861  0.2481 -0.0701
 1109YOPC   D3B15805  18.675   8.992   7.042  0.2389 -0.1621 -0.0164
 1109YOPC   C4B15806  18.949   8.905   7.337  0.0472 -0.1414 -0.0170
 1110YOPC   NC315807  10.637   2.731   4.854  0.0896  0.0279  0.0212
 1110YOPC   PO415808  10.939   3.078   4.641 -0.2019  0.1801  0.0571
 1110YOPC   GL115809  10.771   3.237   5.061  0.3022 -0.1186 -0.2951
 1110YOPC   GL215810  10.678   3.484   5.014 -0.0850 -0.2390  0.0328
 1110YOPC   C1A15811  10.741   2.966   5.494  0.0030 -0.3444 -0.0689
 1110YOPC   D2A15812  10.615   2.919   5.939 -0.1422 -0.4648 -0.2192
 1110YOPC   C3A15813  10.610   2.526   6.106  0.0854 -0.0603  0.2448
 1110YOPC   C4A15814  10.624   2.142   6.295 -0.0970 -0.2253  0.0577
 1110YOPC   C1B15815  10.453   3.765   5.252  0.3551  0.4010  0.0309
 1110YOPC   C2B15816  10.127   3.822   5.534  0.0853 -0.1445 -0.1286
 1110YOPC   D3B15817  10.052   3.619   5.947 -0.0702  0.1145  0.0837
 1110YOPC   C4B15818   9.955   3.785   6.304  0.2609 -0.0872  0.1461
 1111YOPC   NC315819   9.815  10.686   4.904  0.1693 -0.3526  0.1677
 1111YOPC   PO415820   9.592  10.326   5.097 -0.0769  0.1850 -0.1937
 1111YOPC   GL115821   9.762  10.080   5.482  0.1436  0.1787 -0.1471
 1111YOPC   GL215822   9.924  10.224   5.772 -0.3116 -0.0392  0.2151
 1111YOPC   C1A15823   9.645   9.624   5.527  0.0930 -0.2252 -0.2066
 1111YOPC   D2A15824   9.757   9.308   5.561 -0.1991 -0.3373 -0.2254
 1111YOPC   C3A15825   9.713   9.227   5.958 -0.1116  0.1399 -0.5099
 1111YOPC   C4A15826   9.527   9.079   6.356 -0.0042 -0.1860  0.1343
 1111YOPC   C1B15827  10.048  10.020   6.237  0.0207 -0.0948 -0.0471
 1111YOPC   C2B15828  10.256  10.008   6.544 -0.4437  0.3012  0.2905
 1111YOPC   D3B15829  10.271  10.346   6.747 -0.1005 -0.0599  0.1452
 1111YOPC   C4B15830  10.063  10.611   7.043  0.1406 -0.1414  0.0400
 1112YOPC   NC315831   8.782   8.632   4.835 -0.2370  0.1671 -0.2844
 1112YOPC   PO415832   8.752   9.040   4.725 -0.2664  0.1555  0.0307
 1112YOPC   GL115833   8.720   9.227   5.106 -0.0124  0.0971 -0.0897
 1112YOPC   GL215834   8.927   9.353   5.076 -0.0770  0.2550  0.1722
 1112YOPC   C1A15835   8.757   9.026   5.452  0.4484 -0.0119 -0.0150
 1112YOPC   D2A15836   8.909   9.144   5.826 -0.2525  0.4844 -0.1960
 1112YOPC   C3A15837   8.919   8.876   6.244  0.0997  0.0359  0.0210
 1112YOPC   C4A15838   8.680   8.695   6.558  0.0325  0.0212  0.2852
 1112YOPC   C1B15839   9.123   9.481   5.496 -0.4173  0.3844  0.6919
 1112YOPC   C2B15840   9.300   9.456   5.859 -0.0356  0.2014  0.0953
 1112YOPC   D3B15841   9.276   9.525   6.217  0.1634  0.1238  0.0311
 1112YOPC   C4B15842   9.262   9.385   6.647  0.1239  0.0103  0.0348
 1113YOPC   NC315843   2.906  17.147   5.348  0.0625  0.0659  0.2440
 1113YOPC   PO415844   2.717  16.829   5.575 -0.3893 -0.0195  0.1018
 1113YOPC   GL115845   2.803  17.063   5.882  0.1230  0.1750  0.0606
 1113YOPC   GL215846   2.962  17.392   5.780  0.0602 -0.0698  0.1241
 1113YOPC   C1A15847   2.532  17.090   6.179  0.1991  0.2143  0.0200
 1113YOPC   D2A15848   2.390  16.915   6.465 -0.1032  0.4160 -0.2360
 1113YOPC   C3A15849   2.068  16.656   6.704 -0.0430  0.1193 -0.2014
 1113YOPC   C4A15850   1.737  16.493   6.481 -0.2232  0.0508 -0.1371
 1113YOPC   C1B15851   2.957  17.435   6.311 -0.3285 -0.0276  0.1610
 1113YOPC   C2B15852   2.886  17.195   6.680 -0.2062  0.1316  0.0417
 1113YOPC   D3B15853   2.675  17.354   7.085  0.1694  0.4023 -0.2146
 1113YOPC   C4B15854   2.535  17.421   7.383  0.1652 -0.0544 -0.0219
 1114YOPC   NC315855   2.267   1.982   4.529  0.0398  0.0409 -0.0005
 1114YOPC   PO415856   2.471   1.812   4.876  0.0370  0.1235 -0.0688
 1114YOPC   GL115857   2.477   1.544   5.305 -0.2054  0.2570  0.0005
 1114YOPC   GL215858   2.748   1.732   5.302  0.2578 -0.1513  0.1777
 1114YOPC   C1A15859   2.389   1.627   5.712  0.0232  0.3562 -0.0824
 1114YOPC   D2A15860   2.149   1.652   6.056  0.0870  0.1745  0.2151
 1114YOPC   C3A15861   2.358   1.549   6.407  0.0480 -0.1909  0.1192
 1114YOPC   C4A15862   2.449   1.658   6.693 -0.1113 -0.0333 -0.1139
 1114YOPC   C1B15863   3.036   1.800   5.668 -0.0270 -0.1909  0.4672
 1114YOPC   C2B15864   3.136   2.025   6.094  0.0618 -0.1277 -0.3542
 1114YOPC   D3B15865   3.271   1.732   6.345  0.0133 -0.1932  0.0791
 1114YOPC   C4B15866   3.481   1.277   6.341 -0.2170  0.0837  0.2341
 1115YOPC   NC315867   8.159   2.045   4.346 -0.1084 -0.0393 -0.1571
 1115YOPC   PO415868   7.774   2.076   4.564  0.0049  0.1726  0.0935
 1115YOPC   GL115869   7.925   2.231   5.006 -0.0801 -0.0416  0.1791
 1115YOPC   GL215870   7.790   2.006   5.224  0.0406  0.0380  0.0232
 1115YOPC   C1A15871   7.999   2.467   5.368 -0.1287  0.1280 -0.1941
 1115YOPC   D2A15872   7.961   2.423   5.758  0.1241 -0.1243  0.3791
 1115YOPC   C3A15873   8.091   2.802   5.907  0.0192 -0.1338  0.0347
 1115YOPC   C4A15874   8.217   3.209   5.536  0.1935  0.0809 -0.1415
 1115YOPC   C1B15875   7.912   1.911   5.572 -0.0752 -0.2882 -0.1796
 1115YOPC   C2B15876   8.006   1.983   5.982 -0.4306 -0.2005  0.0782
 1115YOPC   D3B15877   8.073   2.383   6.252  0.3886  0.0264  0.3263
 1115YOPC   C4B15878   8.150   2.832   6.496  0.0596  0.1570 -0.2334
 1116YOPC   NC315879   1.882  13.567   5.575  0.1661  0.0676  0.1208
 1116YOPC   PO415880   2.215  13.956   5.422 -0.3670  0.0110 -0.1575
 1116YOPC   GL115881   2.507  14.189   5.800  0.4392 -0.2996  0.3544
 1116YOPC   GL215882   2.726  14.493   5.794 -0.3133 -0.0368  0.3256
 1116YOPC   C1A15883   2.847  14.185   6.199 -0.1914  0.1247 -0.0410
 1116YOPC   D2A15884   3.065  14.176   6.574  0.2451  0.3183  0.0722
 1116YOPC   C3A15885   2.903  14.037   6.927 -0.1036  0.4118 -0.1793
 1116YOPC   C4A15886   2.527  13.908   7.108 -0.1689 -0.1098  0.0671
 1116YOPC   C1B15887   2.664  14.626   6.179  0.1403  0.4206 -0.2389
 1116YOPC   C2B15888   2.617  14.387   6.554  0.3371 -0.0923 -0.1655
 1116YOPC   D3B15889   2.283  14.353   6.721 -0.0138 -0.4043  0.1880
 1116YOPC   C4B15890   2.056  14.440   7.060 -0.0867  0.0564  0.1451
 1117YOPC   NC315891   1.655   9.135   5.126 -0.0413  0.3105 -0.4469
 1117YOPC   PO415892   1.657   8.703   5.168 -0.2390 -0.3180  0.3323
 1117YOPC   GL115893   1.773   8.613   5.692 -0.1989  0.3073 -0.2308
 1117YOPC   GL215894   1.585   8.409   5.835 -0.0408  0.0636 -0.3126
 1117YOPC   C1A15895   2.210   8.638   5.780  0.1470  0.0328 -0.1655
 1117YOPC   D2A15896   2.428   8.787   6.134 -0.0923 -0.1299 -0.0562
 1117YOPC   C3A15897   2.815   8.767   6.299 -0.2095 -0.0280  0.0616
 1117YOPC   C4A15898   3.104   9.071   6.554  0.1710 -0.1854  0.1645
 1117YOPC   C1B15899   1.802   8.416   6.253 -0.3550  0.1285  0.0114
 1117YOPC   C2B15900   1.962   8.570   6.643 -0.1687 -0.2790  0.1773
 1117YOPC   D3B15901   2.418   8.715   6.675  0.1795  0.0743 -0.1113
 1117YOPC   C4B15902   2.608   9.101   6.957  0.0678  0.3436  0.2648
 1118YOPC   NC315903  17.231  10.987   5.609 -0.0646  0.0391  0.3173
 1118YOPC   PO415904  17.269  10.507   5.440 -0.1298 -0.1960  0.0945
 1118YOPC   GL115905  17.291  10.524   5.911  0.3545  0.0573 -0.0711
 1118YOPC   GL215906  17.160  10.195   5.958  0.2573 -0.1298  0.0935
 1118YOPC   C1A15907  17.442  10.650   6.320  0.0977 -0.2029 -0.1131
 1118YOPC   D2A15908  17.772  10.441   6.619 -0.0388 -0.0117 -0.2332
 1118YOPC   C3A15909  17.751  10.480   7.092  0.0751 -0.1711 -0.4532
 1118YOPC   C4A15910  17.574  10.340   7.510  0.0793  0.3837  0.1136
 1118YOPC   C1B15911  16.993  10.156   6.375 -0.1689 -0.0011  0.2767
 1118YOPC   C2B15912  17.015  10.546   6.564 -0.0224 -0.0821  0.2495
 1118YOPC   D3B15913  16.948  10.658   6.962  0.0398 -0.0676 -0.0825
 1118YOPC   C4B15914  16.697  10.765   7.388  0.3414  0.2074  0.0450
 1119YOPC   NC315915  10.402  11.470   5.226 -0.0042  0.1293 -0.2107
 1119YOPC   PO415916  10.879  11.337   5.298 -0.0859  0.3567  0.1090
 1119YOPC   GL115917  10.642  11.199   5.602  0.0799  0.0250 -0.2606
 1119YOPC   GL215918  10.312  11.057   5.544 -0.1330  0.2613  0.0961
 1119YOPC   C1A15919  10.512  11.312   5.985 -0.2441  0.0828 -0.1625
 1119YOPC   D2A15920  10.481  11.283   6.375 -0.0968 -0.0708 -0.1506
 1119YOPC   C3A15921  10.141  11.525   6.712  0.0940  0.1899 -0.2051
 1119YOPC   C4A15922  10.159  11.795   7.053  0.1709  0.3016 -0.0330
 1119YOPC   C1B15923   9.843  11.021   5.738 -0.0536  0.0730  0.1001
 1119YOPC   C2B15924   9.623  11.024   6.099  0.2175  0.1947 -0.0693
 1119YOPC   D3B15925   9.358  10.694   6.358  0.3544 -0.0015 -0.1372
 1119YOPC   C4B15926   9.356  10.311   6.658  0.0072 -0.1737  0.2276
 1120YOPC   NC315927  13.739   3.642   5.324  0.3970  0.1253  0.0929
 1120YOPC   PO415928  14.035   3.943   5.190 -0.1191 -0.0120 -0.2211
 1120YOPC   GL115929  14.009   3.983   5.639  0.2061  0.2669  0.0051
 1120YOPC   GL215930  13.914   4.238   5.795  0.0631 -0.2310 -0.1769
 1120YOPC   C1A15931  14.457   3.865   5.901  0.1476 -0.0088  0.2052
 1120YOPC   D2A15932  14.714   3.554   6.213 -0.0771  0.2462  0.1378
 1120YOPC   C3A15933  14.654   3.438   6.682  0.3342  0.2021 -0.1150
 1120YOPC   C4A15934  14.944   3.447   6.976 -0.0012  0.3973  0.2131
 1120YOPC   C1B15935  14.112   4.138   6.206 -0.1137 -0.0901 -0.3670
 1120YOPC   C2B15936  14.076   4.141   6.690  0.3058 -0.2801  0.2725
 1120YOPC   D3B15937  14.221   3.775   6.849  0.2880  0.1474  0.1418
 1120YOPC   C4B15938  14.627   3.855   6.988 -0.2345 -0.0524 -0.0951
 1121YOPC   NC315939  17.991   2.860   5.244  0.0669 -0.0752  0.2577
 1121YOPC   PO415940  17.492   2.901   5.477  0.2418  0.1443 -0.0216
 1121YOPC   GL115941  17.563   2.947   5.932 -0.0781 -0.0309 -0.2754
 1121YOPC   GL215942  17.505   2.581   6.019  0.1803 -0.7244  0.0520
 1121YOPC   C1A15943  17.870   2.959   6.256 -0.2365  0.1749  0.0124
 1121YOPC   D2A15944  17.923   2.948   6.669  0.0477 -0.0036  0.0783
 1121YOPC   C3A15945  17.789   2.562   6.899 -0.3094  0.0937  0.2302
 1121YOPC   C4A15946  17.467   2.390   7.201  0.0174  0.1516  0.2562
 1121YOPC   C1B15947  17.698   2.289   6.419 -0.1471  0.1897  0.2295
 1121YOPC   C2B15948  17.726   2.091   6.778  0.0514  0.2468  0.0017
 1121YOPC   D3B15949  17.453   1.718   6.689  0.0609 -0.0104  0.0059
 1121YOPC   C4B15950  17.593   1.331   6.770 -0.5002  0.2153  0.1128
 1122YOPC   NC315951  19.038  14.858   5.743 -0.1245 -0.0811  0.1612
 1122YOPC   PO415952  18.770  15.235   5.541 -0.0458 -0.1262  0.0465
 1122YOPC   GL115953  18.644  15.122   5.933 -0.2793  0.2057  0.0865
 1122YOPC   GL215954  18.298  15.201   5.906  0.0907  0.2710 -0.1835
 1122YOPC   C1A15955  18.834  15.074   6.402 -0.0696 -0.0000 -0.1316
 1122YOPC   D2A15956  19.133  15.174   6.713 -0.3379 -0.2420 -0.1361
 1122YOPC   C3A15957  18.837  15.426   7.196 -0.0335  0.0308 -0.0782
 1122YOPC   C4A15958  18.468  15.518   7.475 -0.1381 -0.1691  0.2712
 1122YOPC   C1B15959  18.446  15.403   6.366 -0.1444 -0.3905  0.3799
 1122YOPC   C2B15960  18.572  15.368   6.714 -0.2560  0.1150 -0.0190
 1122YOPC   D3B15961  18.468  15.720   7.012 -0.4351  0.1033  0.1125
 1122YOPC   C4B15962  18.638  16.067   7.247  0.1136  0.0237  0.0384
 1123YOPC   NC315963   4.734  12.040   5.325 -0.1191  0.0165  0.0760
 1123YOPC   PO415964   5.124  11.778   5.373  0.3948  0.2110 -0.0025
 1123YOPC   GL115965   5.124  11.874   5.777  0.0233 -0.3088  0.1661
 1123YOPC   GL215966   4.901  12.076   5.780 -0.0536  0.2068 -0.2395
 1123YOPC   C1A15967   5.413  11.907   6.145 -0.3479 -0.0037  0.2573
 1123YOPC   D2A15968   5.498  12.187   6.505 -0.0341  0.2826 -0.0410
 1123YOPC   C3A15969   5.575  12.174   6.952  0.3662  0.2227 -0.2562
 1123YOPC   C4A15970   5.702  12.090   7.287  0.0377  0.0207 -0.0565
 1123YOPC   C1B15971   4.606  12.027   6.138 -0.0012 -0.2258 -0.2588
 1123YOPC   C2B15972   4.205  12.233   6.316 -0.0331 -0.1780  0.1952
 1123YOPC   D3B15973   4.380  12.573   6.541  0.2534 -0.0454 -0.1203
 1123YOPC   C4B15974   4.757  12.584   6.733  0.2665  0.0714  0.0101
 1124YOPC   NC315975  12.548  19.072   5.488  0.0756 -0.0589 -0.0135
 1124YOPC   PO415976  12.950  19.142   5.523  0.2045 -0.1838  0.0150
 1124YOPC   GL115977  12.880  19.458   5.807  0.1730  0.0189 -0.0041
 1124YOPC   GL215978  13.059  19.257   6.051 -0.4524  0.2828  0.0565
 1124YOPC   C1A15979  12.639  19.557   6.141  0.2040  0.0497  0.0255
 1124YOPC   D2A15980  12.535  19.586   6.576 -0.2646 -0.1718 -0.0588
 1124YOPC   C3A15981  12.456  19.808   7.005  0.0349 -0.1315 -0.3119
 1124YOPC   C4A15982  12.656  19.981   7.310  0.3170 -0.0569 -0.1518
 1124YOPC   C1B15983  13.362  19.459   6.201 -0.1422 -0.1805 -0.1003
 1124YOPC   C2B15984  13.419  19.687   6.605 -0.0841  0.0143 -0.1032
 1124YOPC   D3B15985  13.453  19.346   6.961 -0.1456  0.0017 -0.2606
 1124YOPC   C4B15986  13.681  19.079   7.174  0.0234 -0.0160 -0.0545
 1125YOPC   NC315987   0.611  17.363   5.410  0.0981  0.1351  0.5971
 1125YOPC   PO415988   0.922  17.700   5.415  0.0002  0.2857 -0.1283
 1125YOPC   GL115989   0.534  17.729   5.761  0.4680 -0.0629  0.2895
 1125YOPC   GL215990   0.834  17.579   5.989 -0.0372 -0.1919 -0.1344
 1125YOPC   C1A15991   0.553  18.098   6.036 -0.0409 -0.0256  0.1879
 1125YOPC   D2A15992   0.568  18.444   5.918  0.4563  0.1214 -0.0888
 1125YOPC   C3A15993   0.661  18.800   6.250 -0.1774  0.0062  0.0166
 1125YOPC   C4A15994   1.033  18.931   6.496 -0.0849 -0.2442  0.2338
 1125YOPC   C1B15995   0.861  17.591   6.425  0.3317 -0.0939  0.2652
 1125YOPC   C2B15996   0.995  17.786   6.771  0.3630  0.0077 -0.1643
 1125YOPC   D3B15997   0.774  17.627   7.033 -0.1487  0.0412 -0.0996
 1125YOPC   C4B15998   0.418  17.518   7.159 -0.0837 -0.3249  0.0560
 1126YOPC   NC315999  10.641  17.924   5.177 -0.2817 -0.1441  0.0118
 1126YOPC   PO416000  10.468  18.349   5.267 -0.2385 -0.2868 -0.0112
 1126YOPC   GL116001  10.210  18.453   5.594  0.1869 -0.1404 -0.1863
 1126YOPC   GL216002   9.989  18.568   5.517 -0.1710 -0.1035  0.1549
 1126YOPC   C1A16003  10.311  18.767   5.827  0.0690  0.2431  0.0436
 1126YOPC   D2A16004  10.484  18.815   6.330 -0.0331  0.3228  0.0862
 1126YOPC   C3A16005  10.633  18.528   6.726 -0.1087  0.0565 -0.0735
 1126YOPC   C4A16006  10.484  18.547   7.186  0.0012  0.4258  0.3532
 1126YOPC   C1B16007   9.769  18.578   5.941 -0.0396 -0.3016  0.2975
 1126YOPC   C2B16008   9.440  18.799   6.150 -0.0520  0.1869 -0.1119
 1126YOPC   D3B16009   9.526  18.900   6.600  0.0616 -0.1538 -0.0110
 1126YOPC   C4B16010   9.711  18.941   6.981 -0.0381 -0.2255  0.1391
 1127YOPC   NC316011   9.621  11.452   4.801 -0.0237  0.0024 -0.1169
 1127YOPC   PO416012  10.071  11.688   4.835  0.0153 -0.4173  0.1384
 1127YOPC   GL116013   9.844  11.664   5.174 -0.0549 -0.2098  0.1816
 1127YOPC   GL216014   9.737  11.405   5.340 -0.0247 -0.1566  0.0401
 1127YOPC   C1A16015   9.615  12.002   5.376  0.0490  0.0830 -0.0912
 1127YOPC   D2A16016   9.567  12.406   5.554 -0.1023 -0.3099 -0.0090
 1127YOPC   C3A16017   9.910  12.759   5.497 -0.1736  0.2440 -0.2401
 1127YOPC   C4A16018  10.105  13.092   5.735  0.0404 -0.0921  0.1033
 1127YOPC   C1B16019   9.610  11.645   5.753  0.1340 -0.1837  0.2574
 1127YOPC   C2B16020   9.328  11.992   5.830 -0.1583 -0.1347 -0.2870
 1127YOPC   D3B16021   8.938  11.902   6.004 -0.1307  0.1085 -0.1331
 1127YOPC   C4B16022   8.606  11.822   5.809 -0.1763  0.4857  0.0252
 1128YOPC   NC316023   5.596   5.505   4.242  0.0144 -0.2081  0.2130
 1128YOPC   PO416024   5.982   5.708   4.517  0.0848  0.2145  0.3295
 1128YOPC   GL116025   6.332   5.632   4.810 -0.0024 -0.1247 -0.3165
 1128YOPC   GL216026   6.485   5.374   4.951 -0.0636 -0.1018 -0.2549
 1128YOPC   C1A16027   6.590   5.865   5.108 -0.2345  0.0414 -0.3327
 1128YOPC   D2A16028   6.565   6.236   5.345 -0.2495 -0.2098 -0.3483
 1128YOPC   C3A16029   6.704   6.187   5.712  0.1685  0.1070  0.3678
 1128YOPC   C4A16030   6.885   6.168   6.037  0.2372  0.0152  0.1085
 1128YOPC   C1B16031   6.399   5.342   5.414  0.0304 -0.0573  0.3937
 1128YOPC   C2B16032   6.454   5.298   5.938  0.0261 -0.1559  0.2132
 1128YOPC   D3B16033   6.151   5.205   6.334 -0.1878  0.0468 -0.1068
 1128YOPC   C4B16034   5.877   4.884   6.562 -0.1542  0.1647 -0.2785
 1129YOPC   NC316035   2.859   6.770   5.228  0.2572 -0.1011 -0.0974
 1129YOPC   PO416036   2.821   6.359   5.178 -0.0144  0.0016  0.2093
 1129YOPC   GL116037   2.499   6.404   5.451 -0.3579  0.0079  0.0108
 1129YOPC   GL216038   2.437   6.063   5.471  0.1741  0.0288 -0.1069
 1129YOPC   C1A16039   2.310   6.302   5.931  0.2304 -0.2593  0.0539
 1129YOPC   D2A16040   2.498   6.426   6.339  0.1341 -0.1592  0.2384
 1129YOPC   C3A16041   2.195   6.316   6.688 -0.1182 -0.0046 -0.2390
 1129YOPC   C4A16042   2.244   6.080   7.031  0.0725 -0.1511 -0.1647
 1129YOPC   C1B16043   2.796   6.293   5.861 -0.0439  0.1271  0.2322
 1129YOPC   C2B16044   3.039   6.320   6.104  0.2319  0.0031  0.0070
 1129YOPC   D3B16045   3.425   6.417   6.070 -0.0585 -0.0597 -0.1948
 1129YOPC   C4B16046   3.688   6.083   6.109 -0.0853 -0.0049 -0.2801
 1130YOPC   NC316047  11.240  15.192   5.710  0.0097 -0.2220 -0.0207
 1130YOPC   PO416048  11.511  15.635   5.663  0.0042  0.1492 -0.1879
 1130YOPC   GL116049  11.305  15.673   6.005 -0.1404 -0.0486 -0.3137
 1130YOPC   GL216050  11.356  15.416   6.120 -0.0117 -0.2254  0.1821
 1130YOPC   C1A16051  11.366  15.664   6.521 -0.1887  0.1964  0.0868
 1130YOPC   D2A16052  11.426  15.691   6.960  0.2743  0.0024 -0.1794
 1130YOPC   C3A16053  11.510  15.331   7.234 -0.1345  0.1254 -0.1596
 1130YOPC   C4A16054  11.249  14.989   7.341 -0.2417  0.2210 -0.2602
 1130YOPC   C1B16055  11.342  15.147   6.457  0.0836 -0.1758 -0.2164
 1130YOPC   C2B16056  11.224  15.160   6.803 -0.0999  0.1212  0.0427
 1130YOPC   D3B16057  10.860  14.974   6.877  0.1554  0.3231 -0.0192
 1130YOPC   C4B16058  10.489  15.132   7.100 -0.1412 -0.3022  0.1873
 1131YOPC   NC316059  14.626   7.536   5.221  0.1660 -0.1239  0.1669
 1131YOPC   PO416060  14.837   7.554   5.591 -0.2936  0.0868 -0.0062
 1131YOPC   GL116061  14.841   7.564   6.010 -0.2726  0.1925 -0.1849
 1131YOPC   GL216062  14.646   7.799   6.297 -0.1421  0.1205 -0.0334
 1131YOPC   C1A16063  15.082   7.521   6.371 -0.1751  0.0525 -0.1012
 1131YOPC   D2A16064  14.923   7.600   6.748 -0.1414 -0.2108  0.1708
 1131YOPC   C3A16065  14.852   7.297   6.996  0.1795 -0.1076 -0.1744
 1131YOPC   C4A16066  14.528   7.323   7.394 -0.0896  0.0386  0.4891
 1131YOPC   C1B16067  14.466   8.018   6.676 -0.2906  0.1998  0.2355
 1131YOPC   C2B16068  14.493   8.330   6.860 -0.0842 -0.3564  0.2431
 1131YOPC   D3B16069  14.099   8.596   6.783  0.0224 -0.3440  0.3106
 1131YOPC   C4B16070  13.694   8.544   6.615  0.4006 -0.2337  0.0884
 1132YOPC   NC316071   3.783   2.604   4.981  0.1104 -0.1093  0.1354
 1132YOPC   PO416072   4.277   2.764   4.948 -0.0645 -0.1345  0.4077
 1132YOPC   GL116073   4.490   2.764   5.350  0.0090 -0.0621 -0.3319
 1132YOPC   GL216074   4.405   2.431   5.387  0.1121 -0.0480 -0.0149
 1132YOPC   C1A16075   4.590   2.717   5.795  0.0905 -0.0795  0.0369
 1132YOPC   D2A16076   4.387   2.704   6.075  0.0630 -0.0841  0.1151
 1132YOPC   C3A16077   4.389   2.364   6.418 -0.0230  0.0177 -0.2424
 1132YOPC   C4A16078   4.193   2.445   6.784  0.1348 -0.1512 -0.1643
 1132YOPC   C1B16079   4.089   2.472   5.793 -0.0253 -0.1128  0.1125
 1132YOPC   C2B16080   3.961   2.484   6.175  0.0309 -0.4425  0.0941
 1132YOPC   D3B16081   3.954   2.745   6.457 -0.3062 -0.1436 -0.0456
 1132YOPC   C4B16082   3.616   3.061   6.612 -0.2262 -0.2448 -0.0490
 1133YOPC   NC316083   0.936  13.806   5.438 -0.0448 -0.1542 -0.2855
 1133YOPC   PO416084   1.118  14.147   5.656  0.0954 -0.0405 -0.2313
 1133YOPC   GL116085   0.978  13.906   6.006 -0.0252 -0.3258 -0.0311
 1133YOPC   GL216086   1.037  13.710   6.303 -0.0321  0.0707  0.0879
 1133YOPC   C1A16087   0.575  13.971   6.307 -0.1218  0.1081 -0.1378
 1133YOPC   D2A16088   0.107  13.862   6.635 -0.1889  0.1993 -0.0251
 1133YOPC   C3A16089   0.067  13.818   7.140 -0.0200 -0.2139  0.1911
 1133YOPC   C4A16090   0.029  13.741   7.541 -0.0070 -0.1923 -0.0805
 1133YOPC   C1B16091   1.281  13.940   6.598 -0.0295 -0.0087  0.0594
 1133YOPC   C2B16092   1.607  14.174   6.811  0.3552 -0.0602  0.0282
 1133YOPC   D3B16093   1.615  14.246   7.197  0.1136 -0.0109  0.1381
 1133YOPC   C4B16094   1.462  14.072   7.615 -0.0113  0.1402 -0.1240
 1134YOPC   NC316095  17.433  14.137   5.478 -0.2478  0.0371 -0.0869
 1134YOPC   PO416096  17.472  13.710   5.698 -0.1951  0.2259 -0.2387
 1134YOPC   GL116097  17.083  13.711   5.858 -0.0470  0.0032  0.1318
 1134YOPC   GL216098  16.922  14.014   5.803 -0.0757  0.2104  0.0111
 1134YOPC   C1A16099  16.957  13.563   6.226 -0.1994  0.0147  0.0237
 1134YOPC   D2A16100  17.320  13.488   6.396 -0.1120  0.1650  0.3415
 1134YOPC   C3A16101  17.336  13.382   6.844  0.0132 -0.0777  0.1699
 1134YOPC   C4A16102  17.151  13.607   7.230  0.0421  0.1331  0.0224
 1134YOPC   C1B16103  16.891  14.082   6.272 -0.5194 -0.0776 -0.1007
 1134YOPC   C2B16104  16.929  13.849   6.653 -0.0214  0.0269 -0.0346
 1134YOPC   D3B16105  16.740  13.922   7.053 -0.2821 -0.0688  0.0590
 1134YOPC   C4B16106  16.521  13.589   7.280  0.0051 -0.2776 -0.0256
 1135YOPC   NC316107  13.083   0.193   5.402  0.0824 -0.1457  0.2772
 1135YOPC   PO416108  13.353   0.712   5.471  0.2119  0.0232  0.2096
 1135YOPC   GL116109  13.003   0.609   5.708  0.1968  0.3694 -0.0520
 1135YOPC   GL216110  12.730   0.730   5.716  0.1151 -0.1179 -0.0630
 1135YOPC   C1A16111  13.010   0.497   6.125 -0.1520 -0.1136 -0.1738
 1135YOPC   D2A16112  12.972   0.447   6.540  0.3159 -0.0335 -0.2661
 1135YOPC   C3A16113  13.275   0.737   6.738 -0.2148 -0.0069 -0.0372
 1135YOPC   C4A16114  13.596   0.909   6.960  0.1579 -0.1405  0.0871
 1135YOPC   C1B16115  12.547   0.670   6.169 -0.0780  0.0952 -0.4501
 1135YOPC   C2B16116  12.465   0.704   6.639 -0.0716 -0.3832  0.3921
 1135YOPC   D3B16117  12.228   1.032   6.863  0.0812  0.0971 -0.1206
 1135YOPC   C4B16118  11.851   1.282   6.688 -0.0084  0.2156  0.1797
 1136YOPC   NC316119  15.312  15.276   5.566  0.0618  0.4767  0.0382
 1136YOPC   PO416120  15.803  15.278   5.664 -0.0632  0.0234 -0.0632
 1136YOPC   GL116121  15.544  15.126   6.048  0.1029 -0.0354 -0.2078
 1136YOPC   GL216122  15.213  15.147   6.115  0.2407 -0.0391 -0.0259
 1136YOPC   C1A16123  15.509  14.922   6.411 -0.1103 -0.2153  0.1577
 1136YOPC   D2A16124  15.617  14.817   6.699  0.1199 -0.3193  0.0431
 1136YOPC   C3A16125  15.405  14.935   7.176 -0.1455  0.4254  0.1027
 1136YOPC   C4A16126  15.112  14.718   7.467  0.0265 -0.1088  0.0478
 1136YOPC   C1B16127  14.846  15.258   6.414 -0.0057  0.1923 -0.1816
 1136YOPC   C2B16128  14.765  15.561   6.628 -0.0790 -0.0340 -0.1894
 1136YOPC   D3B16129  14.352  15.877   6.544 -0.0054  0.1726 -0.0183
 1136YOPC   C4B16130  13.947  15.944   6.612  0.0609 -0.0365 -0.1108
 1137YOPC   NC316131   4.536   6.501   4.871  0.2808  0.0283  0.1201
 1137YOPC   PO416132   4.062   6.439   5.030 -0.1554 -0.1545  0.0286
 1137YOPC   GL116133   4.241   6.222   5.449  0.0145 -0.2083 -0.2199
 1137YOPC   GL216134   4.169   6.401   5.714  0.2287  0.2799  0.1754
 1137YOPC   C1A16135   4.561   6.200   5.804  0.1241  0.1617 -0.0286
 1137YOPC   D2A16136   4.946   6.004   5.966 -0.1396 -0.0301  0.1430
 1137YOPC   C3A16137   5.179   6.253   6.177 -0.2369 -0.0902 -0.3523
 1137YOPC   C4A16138   5.125   6.411   6.604  0.2104  0.3120 -0.1336
 1137YOPC   C1B16139   4.297   6.604   6.047 -0.1883  0.0940 -0.0743
 1137YOPC   C2B16140   4.286   6.521   6.409  0.0732  0.0926 -0.1208
 1137YOPC   D3B16141   4.389   6.838   6.709  0.2230  0.0551  0.1809
 1137YOPC   C4B16142   4.201   6.860   7.010 -0.1220  0.0937  0.0579
 1138YOPC   NC316143   6.379  15.456   5.500  0.0098  0.3294 -0.2855
 1138YOPC   PO416144   6.656  15.190   5.805  0.2868  0.1299 -0.1626
 1138YOPC   GL116145   6.646  15.307   6.128  0.1927 -0.0753 -0.4576
 1138YOPC   GL216146   6.936  15.274   6.237  0.2329  0.0569 -0.0934
 1138YOPC   C1A16147   6.485  15.468   6.499  0.1447 -0.2538 -0.2397
 1138YOPC   D2A16148   6.213  15.766   6.793  0.0845  0.1026 -0.0590
 1138YOPC   C3A16149   6.141  15.894   7.187  0.0260  0.3848 -0.0828
 1138YOPC   C4A16150   6.263  15.925   7.633  0.0451 -0.1054 -0.0325
 1138YOPC   C1B16151   6.906  15.170   6.636  0.1126 -0.4214 -0.3976
 1138YOPC   C2B16152   6.881  15.037   7.048  0.2846  0.1300  0.1679
 1138YOPC   D3B16153   7.124  15.338   7.220 -0.2470  0.1304 -0.2814
 1138YOPC   C4B16154   7.128  15.589   7.544  0.0238 -0.0241 -0.1556
 1139YOPC   NC316155  13.289   1.405   5.551 -0.1058  0.0297  0.2666
 1139YOPC   PO416156  13.688   1.305   5.491  0.1450  0.1564 -0.3960
 1139YOPC   GL116157  13.597   1.023   5.855 -0.1701 -0.0958 -0.3063
 1139YOPC   GL216158  13.190   1.102   5.928 -0.2455  0.0557  0.2560
 1139YOPC   C1A16159  13.766   1.230   6.138 -0.1320  0.0641 -0.0085
 1139YOPC   D2A16160  13.744   1.192   6.562  0.0401  0.4212 -0.0467
 1139YOPC   C3A16161  14.121   1.012   6.708 -0.1828 -0.2088  0.2118
 1139YOPC   C4A16162  14.543   1.244   6.784  0.3153  0.0889 -0.1871
 1139YOPC   C1B16163  12.916   1.458   6.185 -0.0385 -0.1967 -0.0322
 1139YOPC   C2B16164  12.735   1.420   6.607 -0.2533 -0.2795 -0.0221
 1139YOPC   D3B16165  12.315   1.441   6.629 -0.2118  0.1442 -0.1986
 1139YOPC   C4B16166  12.033   1.682   6.345 -0.2068 -0.2447 -0.0268
 1140YOPC   NC316167   3.771  17.993   5.232  0.2251  0.5267 -0.1861
 1140YOPC   PO416168   3.625  18.374   5.388  0.1880  0.0533 -0.0660
 1140YOPC   GL116169   3.892  18.269   5.793 -0.0119 -0.0167 -0.1388
 1140YOPC   GL216170   4.203  18.136   5.615  0.5978 -0.1731 -0.2471
 1140YOPC   C1A16171   3.855  18.370   6.282  0.0577 -0.2451 -0.3847
 1140YOPC   D2A16172   3.633  18.537   6.619  0.2915 -0.0535  0.1636
 1140YOPC   C3A16173   3.588  18.167   6.860 -0.2276 -0.2531 -0.1718
 1140YOPC   C4A16174   3.591  18.030   7.392 -0.1680 -0.2791  0.1458
 1140YOPC   C1B16175   4.246  18.522   5.975 -0.0471 -0.0759  0.1894
 1140YOPC   C2B16176   4.343  18.682   6.367  0.1280  0.2085  0.1746
 1140YOPC   D3B16177   4.629  18.492   6.394 -0.2621 -0.2793 -0.0888
 1140YOPC   C4B16178   4.734  18.126   6.295 -0.0618 -0.1179 -0.0874
 1141YOPC   NC316179  10.044  14.774   5.425 -0.0229  0.1630 -0.0071
 1141YOPC   PO416180  10.015  14.333   5.454  0.1040  0.1731 -0.1673
 1141YOPC   GL116181   9.997  14.510   5.843 -0.0213  0.1329  0.1362
 1141YOPC   GL216182   9.914  14.849   5.990  0.1892  0.1943 -0.1021
 1141YOPC   C1A16183  10.061  14.432   6.268 -0.0335 -0.4388 -0.2612
 1141YOPC   D2A16184  10.209  14.438   6.655 -0.0395 -0.0263  0.4003
 1141YOPC   C3A16185   9.952  14.285   6.982  0.1103  0.2399 -0.1615
 1141YOPC   C4A16186   9.912  14.002   7.290  0.0045 -0.0777  0.0680
 1141YOPC   C1B16187   9.546  14.660   6.182  0.0162  0.0132  0.1392
 1141YOPC   C2B16188   9.558  14.597   6.597 -0.0609 -0.0427 -0.1731
 1141YOPC   D3B16189   9.840  14.776   6.955 -0.3136  0.0761 -0.2302
 1141YOPC   C4B16190  10.264  14.726   7.000 -0.0919 -0.3094 -0.3164
 1142YOPC   NC316191  17.551   9.186   5.217  0.0876 -0.4035 -0.1107
 1142YOPC   PO416192  17.141   9.467   5.296 -0.4490  0.0829 -0.2608
 1142YOPC   GL116193  16.923   9.633   5.575 -0.1643 -0.1415  0.0304
 1142YOPC   GL216194  17.186   9.743   5.775  0.1480  0.0183 -0.0064
 1142YOPC   C1A16195  16.666   9.667   5.961  0.2897  0.1920 -0.0491
 1142YOPC   D2A16196  16.638   9.802   6.417  0.1538  0.0999  0.0970
 1142YOPC   C3A16197  16.296   9.866   6.643 -0.0027  0.1344  0.1485
 1142YOPC   C4A16198  15.824   9.889   6.762  0.2101 -0.2519 -0.2094
 1142YOPC   C1B16199  17.125   9.689   6.155  0.0006 -0.1534 -0.2352
 1142YOPC   C2B16200  17.247   9.641   6.529 -0.0103  0.0620  0.0202
 1142YOPC   D3B16201  16.965   9.682   6.871 -0.0562  0.0698  0.1215
 1142YOPC   C4B16202  16.781  10.027   6.913 -0.3583 -0.1123  0.1468
 1143ERGO   ROH16203   8.224  17.729   5.612  0.1089 -0.1686 -0.1185
 1143ERGO    R116204   8.104  17.893   5.810  0.1616 -0.0898 -0.1522
 1143ERGO    R216205   7.927  17.795   5.997  0.0244  0.0327 -0.2213
 1143ERGO    R316206   8.100  17.909   6.173  0.0451 -0.1035 -0.1515
 1143ERGO    R416207   7.851  17.874   6.325 -0.0216 -0.0074 -0.2220
 1143ERGO    R516208   7.964  18.059   6.301  0.0887 -0.0585 -0.1510
 1143ERGO    C116209   7.969  18.026   6.682 -0.0289 -0.1584 -0.1569
 1143ERGO    C216210   7.990  18.267   6.996 -0.2800 -0.0341 -0.2050
 1144ERGO   ROH16211  11.585   7.688   5.409  0.2483  0.2696  0.0256
 1144ERGO    R116212  11.702   7.756   5.658  0.1981  0.0114  0.1237
 1144ERGO    R216213  11.578   7.923   5.840  0.2866  0.0533  0.1486
 1144ERGO    R316214  11.618   7.715   6.010 -0.0282 -0.0842  0.0600
 1144ERGO    R416215  11.559   7.943   6.184  0.0954 -0.1199  0.1491
 1144ERGO    R516216  11.732   7.811   6.197 -0.0435 -0.3030  0.1852
 1144ERGO    C116217  11.585   7.758   6.544 -0.3115 -0.3499  0.0661
 1144ERGO    C216218  11.646   7.998   6.808  0.1409  0.0443 -0.0224
 1145ERGO   ROH16219   2.330   1.062   5.521 -0.0602 -0.2020  0.0869
 1145ERGO    R116220   2.243   1.123   5.783 -0.0244 -0.2333  0.1052
 1145ERGO    R216221   2.024   1.000   5.899 -0.0777 -0.1587  0.0728
 1145ERGO    R316222   2.202   0.943   6.097 -0.1046 -0.2997  0.0586
 1145ERGO    R416223   1.974   1.066   6.235  0.0924  0.1122  0.0489
 1145ERGO    R516224   2.183   1.127   6.249  0.1929 -0.1746 -0.0425
 1145ERGO    C116225   2.113   1.050   6.616  0.1663  0.1375  0.0217
 1145ERGO    C216226   2.112   1.339   6.898  0.3207  0.1706 -0.1520
 1146ERGO   ROH16227  17.117   3.749   5.921  0.2326  0.1609  0.0554
 1146ERGO    R116228  17.070   3.726   6.199  0.0266  0.1410  0.0210
 1146ERGO    R216229  17.267   3.774   6.388 -0.0322 -0.1487  0.1607
 1146ERGO    R316230  17.084   3.947   6.488  0.1114  0.0492  0.0879
 1146ERGO    R416231  17.189   3.808   6.722 -0.3067 -0.2501  0.1100
 1146ERGO    R516232  16.980   3.828   6.667 -0.2321  0.0784 -0.0832
 1146ERGO    C116233  16.972   3.991   7.012 -0.3318 -0.1236  0.0122
 1146ERGO    C216234  17.063   4.154   7.333 -0.0256  0.1076 -0.2821
 1147ERGO   ROH16235  11.796   5.613   5.664  0.0316  0.1016  0.0930
 1147ERGO    R116236  11.680   5.558   5.916  0.1244  0.0343  0.1238
 1147ERGO    R216237  11.759   5.687   6.148  0.1285  0.0638  0.1183
 1147ERGO    R316238  11.494   5.744   6.168  0.1084 -0.0601  0.1781
 1147ERGO    R416239  11.595   5.755   6.444  0.1520  0.0029  0.1434
 1147ERGO    R516240  11.427   5.637   6.372  0.1984 -0.0741  0.1921
 1147ERGO    C116241  11.250   5.848   6.636  0.1469 -0.1488  0.2143
 1147ERGO    C216242  11.282   5.839   6.986  0.2274 -0.1028  0.0620
 1148ERGO   ROH16243  17.274  15.378   5.993 -0.3055  0.2715 -0.0647
 1148ERGO    R116244  17.350  15.300   6.254 -0.2073  0.0748 -0.1516
 1148ERGO    R216245  17.521  15.450   6.411 -0.1272 -0.0580 -0.1130
 1148ERGO    R316246  17.318  15.433   6.591 -0.0546 -0.1642 -0.0388
 1148ERGO    R416247  17.548  15.525   6.747  0.0108 -0.2604 -0.0766
 1148ERGO    R516248  17.422  15.353   6.791  0.0273 -0.2864 -0.1284
 1148ERGO    C116249  17.373  15.553   7.112  0.1593 -0.4777  0.0143
 1148ERGO    C216250  17.490  15.697   7.407 -0.1769  0.2246  0.5339
 1149ERGO   ROH16251   8.590  16.185   5.941  0.0938 -0.1953 -0.0965
 1149ERGO    R116252   8.619  16.193   6.222  0.1047 -0.1025 -0.0997
 1149ERGO    R216253   8.472  16.363   6.382  0.0975 -0.0617 -0.1480
 1149ERGO    R316254   8.407  16.133   6.511  0.1207 -0.0261 -0.0722
 1149ERGO    R416255   8.370  16.344   6.712  0.0741  0.0370 -0.1492
 1149ERGO    R516256   8.491  16.163   6.734  0.0979  0.0629 -0.0763
 1149ERGO    C116257   8.248  16.116   7.025  0.0822  0.1281 -0.0787
 1149ERGO    C216258   7.993  16.302   7.271  0.1459 -0.1052  0.2402
 1150ERGO   ROH16259  16.421   5.766   5.789 -0.0032  0.1186 -0.0662
 1150ERGO    R116260  16.514   5.883   6.029 -0.1955  0.1922 -0.0251
 1150ERGO    R216261  16.343   5.986   6.220 -0.3718 -0.1277  0.0046
 1150ERGO    R316262  16.480   5.819   6.385 -0.1165  0.0238 -0.0493
 1150ERGO    R416263  16.389   6.037   6.559 -0.0195  0.0592 -0.0667
 1150ERGO    R516264  16.594   5.965   6.537 -0.0163  0.1453 -0.2476
 1150ERGO    C116265  16.544   5.910   6.911  0.4253  0.3104 -0.1589
 1150ERGO    C216266  16.304   6.076   7.167 -0.0897  0.1435  0.0229
 1151ERGO   ROH16267  13.305  11.190   5.762  0.1805  0.0571  0.0337
 1151ERGO    R116268  13.231  11.131   6.029  0.1515 -0.0645  0.0006
 1151ERGO    R216269  13.416  11.076   6.227  0.1458  0.0765  0.0524
 1151ERGO    R316270  13.288  11.277   6.357 -0.0906 -0.0675  0.0446
 1151ERGO    R416271  13.454  11.150   6.562  0.1364  0.2019  0.0256
 1151ERGO    R516272  13.240  11.186   6.574  0.0904 -0.0852  0.0757
 1151ERGO    C116273  13.356  11.381   6.880 -0.0909  0.1399  0.0025
 1151ERGO    C216274  13.350  11.323   7.171  0.3442 -0.1358  0.1635
 1152ERGO   ROH16275   9.555   6.937   5.470  0.0140 -0.1779  0.0993
 1152ERGO    R116276   9.389   6.882   5.693 -0.1465 -0.2594 -0.0375
 1152ERGO    R216277   9.341   7.067   5.893 -0.0586 -0.4245  0.1454
 1152ERGO    R316278   9.081   7.017   5.833 -0.0809 -0.1065 -0.0424
 1152ERGO    R416279   9.070   7.186   6.072 -0.0481 -0.2040  0.0177
 1152ERGO    R516280   8.974   6.992   6.045 -0.2485 -0.0823 -0.1269
 1152ERGO    C116281   8.668   7.207   6.119 -0.0628  0.2229 -0.2329
 1152ERGO    C216282   8.462   7.534   5.998 -0.1657 -0.1079 -0.2119
 1153ERGO   ROH16283   9.188   8.797   5.318 -0.1736  0.1627  0.2098
 1153ERGO    R116284   9.188   8.758   5.599  0.0106  0.0101  0.1916
 1153ERGO    R216285   9.297   8.533   5.718  0.1886 -0.0098  0.0091
 1153ERGO    R316286   9.438   8.717   5.860  0.1873 -0.0169  0.0183
 1153ERGO    R416287   9.432   8.481   6.032  0.1681 -0.0046  0.0181
 1153ERGO    R516288   9.371   8.682   6.087  0.1759 -0.0071  0.0118
 1153ERGO    C116289   9.643   8.623   6.347  0.1552 -0.0082  0.0320
 1153ERGO    C216290   9.837   8.587   6.633  0.1229  0.1589  0.0380
 1154ERGO   ROH16291   0.138   0.681   5.676 -0.0944  0.1666  0.0640
 1154ERGO    R116292   0.154   0.633   5.955 -0.0305  0.0839  0.0465
 1154ERGO    R216293   0.329   0.449   6.065  0.0380  0.0955 -0.0431
 1154ERGO    R316294   0.408   0.662   6.214  0.0097  0.0697  0.0089
 1154ERGO    R416295   0.545   0.432   6.334  0.0237  0.0534 -0.0342
 1154ERGO    R516296   0.419   0.577   6.437  0.0038  0.0196 -0.0090
 1154ERGO    C116297   0.745   0.622   6.631 -0.0112  0.0046  0.0198
 1154ERGO    C216298   0.850   0.661   6.792 -0.2657  0.0636 -0.1527
 1155ERGO   ROH16299  17.196   7.974   6.019  0.2112 -0.0625  0.1419
 1155ERGO    R116300  17.257   8.093   6.268 -0.0587  0.1192  0.1251
 1155ERGO    R216301  17.066   8.215   6.426 -0.3690 -0.3764  0.1516
 1155ERGO    R316302  17.160   8.044   6.616  0.1251 -0.1290  0.1449
 1155ERGO    R416303  17.179   8.310   6.738 -0.6891 -0.0595  0.1773
 1155ERGO    R516304  17.340   8.164   6.719 -0.2325  0.4121  0.1817
 1155ERGO    C116305  17.333   8.206   7.098 -0.4119  0.3572  0.1859
 1155ERGO    C216306  17.306   8.356   7.369  0.2502 -0.1920 -0.0336
 1156ERGO   ROH16307   5.540   5.346   5.331 -0.4512  0.2179  0.2020
 1156ERGO    R116308   5.762   5.389   5.501 -0.3126  0.2769  0.0070
 1156ERGO    R216309   5.812   5.631   5.622 -0.4718  0.1924  0.2276
 1156ERGO    R316310   5.815   5.482   5.849 -0.0378 -0.0686  0.0667
 1156ERGO    R416311   5.960   5.729   5.919 -0.5480  0.2020  0.2642
 1156ERGO    R516312   6.031   5.524   5.944 -0.0711  0.3141  0.0040
 1156ERGO    C116313   6.048   5.646   6.305 -0.1850 -0.0374  0.1344
 1156ERGO    C216314   6.059   5.707   6.547  0.1335  0.3253 -0.2616
 1157ERGO   ROH16315   4.877   8.436   5.605  0.1155 -0.1104 -0.0479
 1157ERGO    R116316   4.866   8.502   5.880  0.0310 -0.1315 -0.0470
 1157ERGO    R216317   4.990   8.351   6.074  0.0696 -0.0779 -0.0362
 1157ERGO    R316318   5.104   8.589   6.141 -0.0624 -0.0244  0.0053
 1157ERGO    R416319   5.134   8.420   6.380 -0.0051 -0.0439 -0.0077
 1157ERGO    R516320   5.044   8.619   6.372 -0.1103 -0.0854  0.0046
 1157ERGO    C116321   5.325   8.684   6.622 -0.1725  0.0261  0.0479
 1157ERGO    C216322   5.597   8.734   7.014  0.2095  0.0821 -0.2852
 1158ERGO   ROH16323  15.710  15.765   6.159  0.0133  0.0395 -0.1084
 1158ERGO    R116324  15.684  15.666   6.423  0.0587  0.0123 -0.1162
 1158ERGO    R216325  15.786  15.799   6.642  0.0050  0.0365 -0.1173
 1158ERGO    R316326  15.531  15.777   6.734  0.0176 -0.0762 -0.1015
 1158ERGO    R416327  15.693  15.831   6.974  0.0204  0.0312 -0.1108
 1158ERGO    R516328  15.554  15.665   6.945  0.0928 -0.0463 -0.0859
 1158ERGO    C116329  15.399  15.829   7.253  0.0412 -0.0776 -0.0922
 1158ERGO    C216330  15.204  15.828   7.467 -0.4327  0.0175  0.1420
 1159ERGO   ROH16331   2.775   2.190   5.649  0.0618 -0.0986  0.0523
 1159ERGO    R116332   2.683   2.126   5.909  0.0280 -0.3247 -0.0131
 1159ERGO    R216333   2.554   2.310   6.070  0.2539 -0.3790  0.2369
 1159ERGO    R316334   2.362   2.117   6.080  0.0395 -0.1838  0.0166
 1159ERGO    R416335   2.341   2.257   6.337  0.0401 -0.3068  0.0837
 1159ERGO    R516336   2.365   2.042   6.308 -0.1721 -0.3183 -0.0223
 1159ERGO    C116337   2.037   2.046   6.503 -0.2857 -0.0815 -0.2124
 1159ERGO    C216338   1.772   2.046   6.859 -0.0511 -0.2476 -0.1214
 1160ERGO   ROH16339  15.473  11.306   5.568  0.0218 -0.2630  0.0520
 1160ERGO    R116340  15.351  11.355   5.819 -0.0301 -0.2007  0.0161
 1160ERGO    R216341  15.195  11.167   5.948  0.0699 -0.2297  0.1065
 1160ERGO    R316342  15.368  11.212   6.153  0.0304 -0.0132  0.0931
 1160ERGO    R416343  15.121  11.124   6.283  0.1286 -0.2380  0.1177
 1160ERGO    R516344  15.232  11.306   6.326 -0.0565 -0.1180  0.0782
 1160ERGO    C116345  15.240  11.142   6.670  0.1257 -0.0396  0.1115
 1160ERGO    C216346  15.067  11.203   6.969 -0.0418  0.0628 -0.1017
 1161ERGO   ROH16347  13.552  10.116   5.827 -0.0124  0.0889 -0.0736
 1161ERGO    R116348  13.635  10.157   6.095  0.0492  0.0168 -0.0818
 1161ERGO    R216349  13.459  10.155   6.308  0.0686  0.1617 -0.0659
 1161ERGO    R316350  13.631   9.967   6.405 -0.0771  0.0172 -0.0820
 1161ERGO    R416351  13.424   9.993   6.611 -0.2038 -0.0298 -0.1950
 1161ERGO    R516352  13.639  10.011   6.640 -0.2101 -0.1449 -0.0430
 1161ERGO    C116353  13.564   9.724   6.879 -0.4992 -0.2768 -0.2852
 1161ERGO    C216354  13.440   9.698   7.133  0.0614  0.2903 -0.0550
 1162ERGO   ROH16355   7.480   1.592   5.396 -0.1014  0.1803 -0.0321
 1162ERGO    R116356   7.487   1.537   5.673 -0.0290  0.0887 -0.0519
 1162ERGO    R216357   7.665   1.659   5.845 -0.1467  0.2130 -0.0209
 1162ERGO    R316358   7.438   1.724   5.982 -0.2073 -0.0689  0.0190
 1162ERGO    R416359   7.641   1.680   6.190 -0.0180  0.4655 -0.0248
 1162ERGO    R516360   7.445   1.584   6.177  0.1330  0.1004  0.1412
 1162ERGO    C116361   7.414   1.752   6.518 -0.0000  0.3479  0.0104
 1162ERGO    C216362   7.350   1.726   6.774 -0.1639 -0.0804  0.2032
 1163ERGO   ROH16363  12.358  11.568   5.557  0.1991  0.1244  0.2401
 1163ERGO    R116364  12.406  11.447   5.809 -0.0111 -0.0617  0.1930
 1163ERGO    R216365  12.500  11.590   6.027  0.1657 -0.2942  0.2672
 1163ERGO    R316366  12.280  11.485   6.148 -0.0067 -0.0334  0.1924
 1163ERGO    R416367  12.451  11.571   6.369  0.0190 -0.2274  0.2522
 1163ERGO    R516368  12.365  11.373   6.341 -0.2064 -0.1316  0.2282
 1163ERGO    C116369  12.216  11.461   6.681 -0.2284  0.0564  0.1732
 1163ERGO    C216370  11.990  11.334   6.868 -0.0142  0.3407 -0.0868
 1164ERGO   ROH16371   9.625  14.022   5.717 -0.0520  0.0365 -0.0236
 1164ERGO    R116372   9.775  14.063   5.954 -0.1346  0.1269  0.0144
 1164ERGO    R216373   9.659  14.141   6.192 -0.2544 -0.0279  0.0099
 1164ERGO    R316374   9.785  13.920   6.288 -0.0696  0.0663 -0.0138
 1164ERGO    R416375   9.699  14.066   6.527 -0.1652 -0.0181  0.0013
 1164ERGO    R516376   9.901  13.998   6.483 -0.1146  0.1460 -0.0197
 1164ERGO    C116377   9.841  13.815   6.813  0.0603  0.0762 -0.0260
 1164ERGO    C216378   9.716  13.634   7.027 -0.0886  0.3152  0.0159
 1165ERGO   ROH16379   1.120  14.375   6.300 -0.0048  0.1225 -0.0479
 1165ERGO    R116380   1.023  14.411   6.563  0.0494  0.0507 -0.0180
 1165ERGO    R216381   1.149  14.575   6.747  0.0275  0.0824 -0.0332
 1165ERGO    R316382   0.903  14.689   6.766 -0.0164 -0.0240  0.0473
 1165ERGO    R416383   1.030  14.742   7.025  0.1052  0.1501 -0.0405
 1165ERGO    R516384   0.836  14.648   6.992  0.1275  0.0432  0.1054
 1165ERGO    C116385   0.729  14.947   7.204  0.1092  0.0895  0.0308
 1165ERGO    C216386   0.744  15.230   7.544 -0.1037  0.0822 -0.0208
 1166ERGO   ROH16387  18.473  12.568   6.147  0.1409  0.0702 -0.0441
 1166ERGO    R116388  18.531  12.596   6.422  0.1509 -0.0681 -0.0310
 1166ERGO    R216389  18.361  12.724   6.598  0.2289 -0.0169  0.0103
 1166ERGO    R316390  18.380  12.491   6.737  0.0693 -0.0822 -0.0752
 1166ERGO    R416391  18.382  12.700   6.942  0.1077 -0.1681  0.0081
 1166ERGO    R516392  18.530  12.542   6.917  0.0361 -0.2298 -0.0070
 1166ERGO    C116393  18.413  12.467   7.273 -0.1127 -0.3175 -0.0735
 1166ERGO    C216394  18.269  12.381   7.559  0.1481  0.0964 -0.0027
 1167ERGO   ROH16395  14.352  14.406   6.101 -0.2760  0.2038  0.1673
 1167ERGO    R116396  14.436  14.311   6.353 -0.2792  0.1134  0.1333
 1167ERGO    R216397  14.680  14.380   6.464 -0.2119 -0.0591  0.0853
 1167ERGO    R316398  14.525  14.456   6.675 -0.1115  0.0093  0.1368
 1167ERGO    R416399  14.792  14.417   6.789 -0.0755 -0.0771  0.0419
 1167ERGO    R516400  14.606  14.326   6.859 -0.0863 -0.0105  0.1162
 1167ERGO    C116401  14.712  14.509   7.176  0.0981 -0.0235  0.0650
 1167ERGO    C216402  14.437  14.642   7.469  0.2817  0.1267 -0.1333
 1168ERGO   ROH16403  10.220  16.239   5.877 -0.0473  0.2257 -0.1253
 1168ERGO    R116404  10.240  16.251   6.159 -0.0590  0.2285 -0.1247
 1168ERGO    R216405  10.041  16.358   6.318 -0.0758  0.2084 -0.1329
 1168ERGO    R316406  10.055  16.117   6.443 -0.0560  0.2102 -0.1311
 1168ERGO    R416407   9.975  16.305   6.653 -0.1943  0.1843 -0.1593
 1168ERGO    R516408  10.144  16.167   6.659 -0.1564  0.2327 -0.0942
 1168ERGO    C116409   9.951  16.048   6.965 -0.2447  0.1719 -0.1729
 1168ERGO    C216410   9.753  15.837   7.212  0.2060 -0.5750  0.0448
 1169ERGO   ROH16411  17.686  11.893   6.286 -0.1162  0.3051 -0.0017
 1169ERGO    R116412  17.600  11.996   6.535 -0.0104  0.1754  0.0898
 1169ERGO    R216413  17.530  11.834   6.748  0.0455  0.0643  0.0218
 1169ERGO    R316414  17.714  11.983   6.881  0.1143 -0.0376  0.0429
 1169ERGO    R416415  17.530  11.890   7.089  0.0607  0.0271  0.0283
 1169ERGO    R516416  17.588  12.096   7.050  0.1616  0.0054  0.0515
 1169ERGO    C116417  17.702  12.063   7.412  0.1342 -0.0902  0.0519
 1169ERGO    C216418  17.688  11.987   7.759 -0.2447  0.1199 -0.1196
 1170ERGO   ROH16419   5.103   1.053   5.290 -0.2153 -0.2250 -0.0144
 1170ERGO    R116420   5.122   1.113   5.566 -0.0497 -0.1294 -0.0435
 1170ERGO    R216421   4.951   1.291   5.692  0.0616 -0.0364 -0.0102
 1170ERGO    R316422   4.907   1.081   5.859  0.0977  0.0315  0.0829
 1170ERGO    R416423   4.815   1.314   6.009  0.1922  0.0933  0.0362
 1170ERGO    R516424   4.958   1.165   6.076  0.1950  0.0996  0.0311
 1170ERGO    C116425   4.694   1.130   6.350  0.3021  0.2324  0.1506
 1170ERGO    C216426   4.438   1.136   6.717  0.2217 -0.4090  0.3347
 1171ERGO   ROH16427  10.415  14.744   5.755  0.0730 -0.0464  0.0993
 1171ERGO    R116428  10.588  14.673   5.967  0.0455 -0.0221  0.1294
 1171ERGO    R216429  10.577  14.794   6.215 -0.0255 -0.0353  0.1301
 1171ERGO    R316430  10.553  14.538   6.304  0.0079 -0.0435  0.1177
 1171ERGO    R416431  10.654  14.688   6.535 -0.2663  0.0156  0.2074
 1171ERGO    R516432  10.741  14.508   6.449 -0.1058  0.0485  0.2911
 1171ERGO    C116433  10.676  14.386   6.804 -0.3750  0.0377  0.2407
 1171ERGO    C216434  10.514  14.162   7.056  0.0680 -0.1031  0.0834
 1172ERGO   ROH16435  11.030   4.206   5.663 -0.1474  0.3128  0.0204
 1172ERGO    R116436  11.083   4.155   5.936 -0.0149  0.2810 -0.0109
 1172ERGO    R216437  11.056   4.349   6.132 -0.0992  0.2089  0.0490
 1172ERGO    R316438  10.896   4.163   6.248  0.0839  0.0525  0.0561
 1172ERGO    R416439  10.993   4.327   6.471 -0.1044  0.1802  0.0463
 1172ERGO    R516440  11.006   4.110   6.454  0.1235  0.1894  0.0711
 1172ERGO    C116441  10.805   4.140   6.777  0.0643  0.0166  0.0515
 1172ERGO    C216442  10.805   4.045   7.013  0.1347  0.4552  0.1843
 1173ERGO   ROH16443  15.226  13.050   7.204  0.1774 -0.1781 -0.0486
 1173ERGO    R116444  15.456  13.089   7.365  0.1860 -0.2502 -0.0443
 1173ERGO    R216445  15.686  12.940   7.333  0.2647 -0.0728 -0.2861
 1173ERGO    R316446  15.803  13.185   7.311  0.1224  0.0274  0.0103
 1173ERGO    R416447  15.980  13.033   7.490  0.2865 -0.1559 -0.2765
 1173ERGO    R516448  15.891  13.228   7.530  0.1944 -0.2484  0.0468
 1173ERGO    C116449  16.260  13.317   7.561  0.1656 -0.1103  0.0074
 1173ERGO    C216450  16.597  13.380   7.833 -0.1324  0.0272 -0.1328
 1174ERGO   ROH16451  13.928  17.539   6.209 -0.3272 -0.2851 -0.0766
 1174ERGO    R116452  13.890  17.724   6.420 -0.3564 -0.1099 -0.2287
 1174ERGO    R216453  13.640  17.785   6.520 -0.3664 -0.2077 -0.1450
 1174ERGO    R316454  13.753  17.716   6.757 -0.1673  0.0907 -0.1501
 1174ERGO    R416455  13.490  17.825   6.829 -0.2934 -0.3101 -0.0983
 1174ERGO    R516456  13.683  17.888   6.908 -0.3769  0.0368 -0.2042
 1174ERGO    C116457  13.509  17.783   7.231 -0.0640 -0.0894 -0.0758
 1174ERGO    C216458  13.405  17.741   7.504 -0.0556 -0.0891  0.0966
 1175ERGO   ROH16459   3.201   2.290   7.114  0.1569 -0.0146 -0.3422
 1175ERGO    R116460   3.439   2.168   7.206  0.1222  0.0326 -0.1890
 1175ERGO    R216461   3.577   1.980   7.057  0.2463  0.0525 -0.0940
 1175ERGO    R316462   3.786   2.149   7.097  0.1958  0.0883  0.0284
 1175ERGO    R416463   3.910   1.887   7.055  0.2690  0.1295 -0.0548
 1175ERGO    R516464   3.943   2.021   7.224  0.1960  0.0686  0.0134
 1175ERGO    C116465   4.300   1.991   7.092  0.2348  0.2080  0.0829
 1175ERGO    C216466   4.600   2.028   6.811  0.3806  0.2217  0.0962
 1176ERGO   ROH16467   8.817  17.206   5.747 -0.1457  0.0162  0.0087
 1176ERGO    R116468   8.729  17.209   6.016  0.2227 -0.2904  0.1431
 1176ERGO    R216469   8.900  17.168   6.230  0.6913  0.2589 -0.0903
 1176ERGO    R316470   8.797  17.404   6.315  0.0188 -0.0579  0.0383
 1176ERGO    R416471   8.899  17.276   6.557  0.3571  0.0935 -0.0333
 1176ERGO    R516472   8.698  17.354   6.527  0.1370 -0.4461  0.0016
 1176ERGO    C116473   8.802  17.562   6.829 -0.4689 -0.3006  0.1206
 1176ERGO    C216474   8.864  17.721   7.179 -0.0509  0.1238  0.0810
 1177ERGO   ROH16475  18.421  11.316   6.089 -0.1691  0.1354  0.1002
 1177ERGO    R116476  18.308  11.226   6.332  0.0278 -0.0182  0.1383
 1177ERGO    R216477  18.462  11.127   6.541  0.2290  0.1615  0.0828
 1177ERGO    R316478  18.331  11.317   6.684  0.0409 -0.0034  0.1329
 1177ERGO    R416479  18.456  11.145   6.886  0.1785  0.0489  0.0878
 1177ERGO    R516480  18.245  11.200   6.874  0.1303 -0.1408  0.0875
 1177ERGO    C116481  18.330  11.334   7.221 -0.0273 -0.1715  0.1378
 1177ERGO    C216482  18.443  11.530   7.349  0.0452 -0.1447  0.0377
 1178ERGO   ROH16483   0.693   1.484   6.530  0.0592  0.1593  0.0117
 1178ERGO    R116484   0.814   1.680   6.694 -0.0612  0.2251  0.0223
 1178ERGO    R216485   0.680   1.804   6.901 -0.1169  0.0830  0.0692
 1178ERGO    R316486   0.892   1.718   7.047 -0.0196  0.2244  0.0139
 1178ERGO    R416487   0.770   1.929   7.210 -0.1130  0.1584  0.0379
 1178ERGO    R516488   0.979   1.917   7.148 -0.1191  0.2885 -0.0210
 1178ERGO    C116489   1.022   1.922   7.528 -0.0195  0.3351 -0.0322
 1178ERGO    C216490   1.241   1.954   7.892  0.0985 -0.0533  0.3056
 1179ERGO   ROH16491   7.349   2.149   5.391 -0.0391 -0.1702 -0.0542
 1179ERGO    R116492   7.422   2.100   5.660  0.1561  0.1200 -0.0487
 1179ERGO    R216493   7.490   2.302   5.836 -0.2428  0.3702 -0.1666
 1179ERGO    R316494   7.295   2.191   5.989  0.0420 -0.0009 -0.0585
 1179ERGO    R416495   7.467   2.332   6.179 -0.1572  0.3917 -0.1626
 1179ERGO    R516496   7.408   2.123   6.189  0.2706  0.2652 -0.0918
 1179ERGO    C116497   7.271   2.245   6.523  0.1600  0.0559 -0.0587
 1179ERGO    C216498   7.279   2.203   6.832 -0.1389 -0.3304  0.0423
 1180ERGO   ROH16499   0.900  14.800   6.339  0.1264 -0.3614 -0.0577
 1180ERGO    R116500   0.731  14.974   6.486  0.2405 -0.2625 -0.0418
 1180ERGO    R216501   0.461  14.925   6.521  0.1884 -0.0416 -0.1213
 1180ERGO    R316502   0.523  14.950   6.784  0.1496 -0.1804 -0.0980
 1180ERGO    R416503   0.234  14.992   6.772  0.1802  0.0367 -0.1496
 1180ERGO    R516504   0.380  15.125   6.862  0.2596 -0.1016 -0.0693
 1180ERGO    C116505   0.159  15.055   7.165  0.1391 -0.0481 -0.1442
 1180ERGO    C216506  -0.066  15.143   7.431 -0.4025  0.0485  0.1683
 1181ERGO   ROH16507  13.603  12.041   5.851 -0.0710  0.1840  0.1141
 1181ERGO    R116508  13.572  11.920   6.105 -0.0721  0.0338  0.0435
 1181ERGO    R216509  13.608  12.059   6.341  0.1127 -0.1518  0.1277
 1181ERGO    R316510  13.358  11.967   6.396  0.0623 -0.0036  0.1492
 1181ERGO    R416511  13.489  11.985   6.657  0.2166 -0.4185  0.1073
 1181ERGO    R516512  13.390  11.810   6.574  0.0245 -0.2401 -0.0476
 1181ERGO    C116513  13.185  11.856   6.892  0.2296 -0.4346  0.1156
 1181ERGO    C216514  13.038  11.825   7.193  0.0999 -0.0149 -0.3135
 1182ERGO   ROH16515   4.501  17.422   5.656  0.1004  0.1536 -0.1054
 1182ERGO    R116516   4.681  17.498   5.861  0.0642  0.1559 -0.0726
 1182ERGO    R216517   4.598  17.617   6.096  0.0174  0.1259 -0.0676
 1182ERGO    R316518   4.736  17.413   6.210  0.0233  0.1278 -0.0744
 1182ERGO    R416519   4.722  17.619   6.418  0.0583  0.1304 -0.0846
 1182ERGO    R516520   4.902  17.521   6.344  0.0418  0.1225 -0.0997
 1182ERGO    C116521   4.925  17.428   6.713  0.0878  0.1348 -0.1009
 1182ERGO    C216522   4.956  17.166   6.997 -0.2540  0.1887  0.2882
 1183ERGO   ROH16523  10.987   6.914   5.735  0.1378  0.2786 -0.2661
 1183ERGO    R116524  11.002   6.957   6.015  0.1062  0.1401 -0.2440
 1183ERGO    R216525  11.000   6.749   6.197  0.2076  0.0458 -0.3563
 1183ERGO    R316526  11.229   6.866   6.284  0.1440  0.1189 -0.2814
 1183ERGO    R416527  11.109   6.750   6.525  0.0978  0.0765 -0.3185
 1183ERGO    R516528  11.172   6.957   6.498  0.0420  0.1005 -0.2972
 1183ERGO    C116529  11.388   6.861   6.798 -0.0259  0.1630 -0.2260
 1183ERGO    C216530  11.641   6.609   6.882  0.1672  0.1040  0.2540
 1184ERGO   ROH16531   1.525  13.234   6.532 -0.1648 -0.1337 -0.0805
 1184ERGO    R116532   1.609  13.142   6.786  0.0833 -0.3848 -0.2461
 1184ERGO    R216533   1.461  13.181   7.015  0.6165  0.0281  0.0674
 1184ERGO    R316534   1.485  12.912   7.038 -0.0893 -0.0607 -0.0337
 1184ERGO    R416535   1.431  13.005   7.311  0.8835  0.0730  0.1218
 1184ERGO    R516536   1.598  12.879   7.247  0.3726 -0.4034 -0.3291
 1184ERGO    C116537   1.437  12.649   7.504  0.3763  0.0158  0.0586
 1184ERGO    C216538   1.372  12.489   7.812 -0.0717  0.1505 -0.1643
 1185ERGO   ROH16539   7.494   5.569   5.213 -0.0622  0.0156 -0.0545
 1185ERGO    R116540   7.394   5.665   5.460  0.0294  0.2966 -0.1248
 1185ERGO    R216541   7.450   5.544   5.701 -0.3942  0.1873 -0.0781
 1185ERGO    R316542   7.533   5.793   5.771  0.1725  0.0096 -0.0668
 1185ERGO    R416543   7.475   5.660   6.026 -0.4287  0.2082 -0.0818
 1185ERGO    R516544   7.396   5.852   5.958  0.1182  0.4070 -0.2195
 1185ERGO    C116545   7.568   5.962   6.280  0.0831  0.0534 -0.0733
 1185ERGO    C216546   7.690   5.899   6.621  0.1900 -0.1141  0.2682
 1186ERGO   ROH16547   7.603  16.523   6.020 -0.1638  0.0141  0.0157
 1186ERGO    R116548   7.469  16.653   6.234  0.1873  0.0503  0.2232
 1186ERGO    R216549   7.587  16.851   6.386  0.2796  0.4630 -0.3513
 1186ERGO    R316550   7.367  16.993   6.314 -0.1823 -0.0136  0.0464
 1186ERGO    R416551   7.449  17.107   6.572  0.3196  0.4384 -0.2884
 1186ERGO    R516552   7.251  17.030   6.521  0.2947  0.0166  0.3241
 1186ERGO    C116553   7.161  17.389   6.613 -0.0909 -0.0232  0.1214
 1186ERGO    C216554   7.120  17.719   6.753  0.2100  0.0340  0.0099
 1187ERGO   ROH16555   8.965  15.238   6.254  0.0211  0.2388 -0.0919
 1187ERGO    R116556   9.084  15.229   6.510 -0.0362  0.0697 -0.0698
 1187ERGO    R216557   9.266  15.419   6.598  0.1610 -0.1401 -0.0066
 1187ERGO    R316558   9.092  15.442   6.805  0.1427  0.0209 -0.0392
 1187ERGO    R416559   9.352  15.519   6.917  0.1591 -0.0633 -0.0303
 1187ERGO    R516560   9.217  15.368   6.996  0.0763  0.0327  0.0065
 1187ERGO    C116561   9.239  15.600   7.298  0.1406  0.1327 -0.0749
 1187ERGO    C216562   9.075  15.604   7.551  0.1502  0.2953  0.4245
 1188ERGO   ROH16563   1.283   9.704   6.052  0.1047  0.0633  0.1904
 1188ERGO    R116564   1.298   9.589   6.310  0.1890 -0.0262  0.1471
 1188ERGO    R216565   1.245   9.733   6.540  0.2855 -0.0981  0.2184
 1188ERGO    R316566   1.069   9.531   6.587  0.2838 -0.0980  0.2103
 1188ERGO    R416567   1.139   9.632   6.853  0.2468 -0.0867  0.2084
 1188ERGO    R516568   1.151   9.425   6.785  0.2577 -0.0866  0.2234
 1188ERGO    C116569   0.911   9.384   7.079  0.2227 -0.0798  0.1949
 1188ERGO    C216570   0.942   9.416   7.419  0.0293 -0.0812  0.1128
 1189ERGO   ROH16571   5.354  12.511   6.101 -0.0938 -0.1891  0.2509
 1189ERGO    R116572   5.246  12.680   6.301  0.1484  0.1214  0.1271
 1189ERGO    R216573   5.207  12.597   6.561 -0.1597  0.3003  0.1395
 1189ERGO    R316574   5.355  12.817   6.620  0.2709  0.0267  0.1276
 1189ERGO    R416575   5.248  12.730   6.878 -0.1419  0.3957  0.0980
 1189ERGO    R516576   5.231  12.929   6.791  0.3554  0.3952 -0.0384
 1189ERGO    C116577   5.410  13.015   7.116  0.2726  0.1945  0.0627
 1189ERGO    C216578   5.680  13.148   7.447  0.0373  0.2258  0.3015
 1190ERGO   ROH16579   1.853   8.972   6.039 -0.0141 -0.0979  0.1766
 1190ERGO    R116580   1.947   8.905   6.297 -0.0117 -0.0065  0.1996
 1190ERGO    R216581   2.126   9.063   6.436 -0.0382  0.0620  0.1578
 1190ERGO    R316582   1.935   9.055   6.629 -0.0435  0.0922  0.1541
 1190ERGO    R416583   2.152   9.214   6.746  0.0869 -0.1588  0.2570
 1190ERGO    R516584   2.059   9.038   6.834 -0.0551 -0.1406  0.1435
 1190ERGO    C116585   1.988   9.293   7.108  0.1548 -0.2591  0.3115
 1190ERGO    C216586   1.892   9.498   7.310  0.1054  0.1705  0.5212
 1191ERGO   ROH16587  14.020   7.025   5.767  0.2437  0.0920  0.2442
 1191ERGO    R116588  14.012   6.783   5.914  0.1706  0.0552  0.1806
 1191ERGO    R216589  14.183   6.731   6.124  0.0879 -0.0104  0.2334
 1191ERGO    R316590  13.952   6.685   6.259  0.0330 -0.0271  0.1338
 1191ERGO    R416591  14.163   6.641   6.458 -0.0471 -0.0645  0.2112
 1191ERGO    R516592  14.003   6.503   6.406 -0.0299 -0.0520  0.1248
 1191ERGO    C116593  13.934   6.547   6.778 -0.1772 -0.1116  0.1048
 1191ERGO    C216594  14.029   6.673   7.083 -0.1334 -0.0547 -0.2430
 1192ERGO   ROH16595  18.486   0.588   5.834  0.1759 -0.1438  0.2365
 1192ERGO    R116596  18.311   0.760   5.975  0.2002 -0.0446  0.1471
 1192ERGO    R216597  18.102   0.666   6.130 -0.0119  0.0749 -0.0568
 1192ERGO    R316598  18.220   0.818   6.323 -0.0421 -0.0878  0.0923
 1192ERGO    R416599  17.940   0.795   6.407 -0.1499  0.1706 -0.1807
 1192ERGO    R516600  18.053   0.979   6.381  0.0611  0.0656 -0.0306
 1192ERGO    C116601  17.956   1.012   6.749 -0.2585  0.0736 -0.1130
 1192ERGO    C216602  17.891   0.896   7.074  0.2043  0.0750  0.2998
 1193ERGO   ROH16603   5.567   3.183   5.141  0.0693  0.1127 -0.0496
 1193ERGO    R116604   5.610   3.163   5.420  0.0856  0.0914 -0.0529
 1193ERGO    R216605   5.555   3.371   5.594 -0.0784  0.0173 -0.0102
 1193ERGO    R316606   5.405   3.183   5.720  0.0686 -0.1274 -0.0493
 1193ERGO    R416607   5.538   3.329   5.937 -0.2312  0.0907 -0.0087
 1193ERGO    R516608   5.540   3.114   5.906  0.0428  0.0827  0.0494
 1193ERGO    C116609   5.387   3.128   6.255 -0.1823 -0.0023 -0.0447
 1193ERGO    C216610   5.607   2.982   6.518 -0.1173 -0.0221 -0.0902
 1194ERGO   ROH16611   5.686  16.408   5.771  0.0871  0.0448 -0.2390
 1194ERGO    R116612   5.541  16.468   6.006  0.1118  0.0297 -0.2204
 1194ERGO    R216613   5.381  16.283   6.134  0.0562  0.0479 -0.2668
 1194ERGO    R316614   5.533  16.349   6.350  0.0807 -0.0571 -0.2508
 1194ERGO    R416615   5.328  16.166   6.455  0.0977 -0.1169 -0.3184
 1194ERGO    R516616   5.376  16.366   6.530  0.1012 -0.1523 -0.2225
 1194ERGO    C116617   5.440  16.160   6.845  0.1449 -0.3115 -0.3335
 1194ERGO    C216618   5.317  15.866   7.189 -0.0982 -0.0069  0.1163
 1195ERGO   ROH16619  10.200   5.471   5.289 -0.2054  0.1195  0.0801
 1195ERGO    R116620  10.305   5.675   5.454 -0.1141  0.0643  0.0921
 1195ERGO    R216621  10.456   5.622   5.679 -0.0955 -0.0146  0.0631
 1195ERGO    R316622  10.635   5.788   5.558 -0.0616 -0.0565  0.0564
 1195ERGO    R416623  10.762   5.714   5.812 -0.0736 -0.0747  0.0543
 1195ERGO    R516624  10.727   5.916   5.738 -0.0310 -0.0711  0.0495
 1195ERGO    C116625  11.107   5.923   5.777 -0.0291 -0.1491  0.0429
 1195ERGO    C216626  11.299   5.931   5.735 -0.1997 -0.2749 -0.3242
 1196ERGO   ROH16627  14.271   8.198   6.180 -0.1786  0.1630 -0.0854
 1196ERGO    R116628  14.065   8.213   6.373 -0.1554  0.0674 -0.0528
 1196ERGO    R216629  13.875   8.015   6.402 -0.0578 -0.0197 -0.0224
 1196ERGO    R316630  13.958   8.019   6.661 -0.0215  0.0187 -0.0342
 1196ERGO    R416631  13.678   7.934   6.675  0.0253 -0.1513 -0.0007
 1196ERGO    R516632  13.768   8.099   6.784 -0.0563 -0.0989 -0.0052
 1196ERGO    C116633  13.641   7.890   7.076  0.1077 -0.1920  0.0008
 1196ERGO    C216634  13.543   7.701   7.431  0.4211 -0.0970  0.0618
 1197ERGO   ROH16635  15.390  13.945   6.133 -0.2382  0.1507 -0.0177
 1197ERGO    R116636  15.473  13.785   6.351 -0.1692  0.1086 -0.0743
 1197ERGO    R216637  15.575  13.893   6.584 -0.1315  0.0655 -0.0711
 1197ERGO    R316638  15.379  13.746   6.701 -0.0863  0.0123 -0.0622
 1197ERGO    R416639  15.609  13.721   6.882 -0.0678  0.0714 -0.0749
 1197ERGO    R516640  15.494  13.557   6.794 -0.0300  0.0414 -0.0709
 1197ERGO    C116641  15.444  13.481   7.164  0.0117  0.0250 -0.0687
 1197ERGO    C216642  15.392  13.561   7.568  0.2574  0.4167 -0.4247
 1198ERGO   ROH16643   9.521  13.225   5.530  0.2453 -0.2451 -0.1248
 1198ERGO    R116644   9.571  13.020   5.718  0.1367 -0.1078  0.0566
 1198ERGO    R216645   9.611  13.071   5.987 -0.0798  0.0841  0.0544
 1198ERGO    R316646   9.410  12.891   6.018 -0.0729  0.0701  0.0235
 1198ERGO    R416647   9.484  12.969   6.291 -0.0965  0.0515  0.0369
 1198ERGO    R516648   9.473  12.766   6.213 -0.0796  0.0566  0.0179
 1198ERGO    C116649   9.221  12.740   6.498 -0.0996  0.0195 -0.0025
 1198ERGO    C216650   9.045  12.614   6.836  0.1877  0.0972 -0.0100
 1199ERGO   ROH16651   5.111  18.257   5.569 -0.0630 -0.2120  0.1386
 1199ERGO    R116652   5.175  18.432   5.782 -0.1762 -0.1122  0.0911
 1199ERGO    R216653   5.016  18.458   6.006 -0.1471 -0.2229  0.1226
 1199ERGO    R316654   5.247  18.401   6.137 -0.0593  0.0198  0.0807
 1199ERGO    R416655   5.102  18.579   6.318 -0.3415 -0.3378  0.2234
 1199ERGO    R516656   5.306  18.605   6.247 -0.3716  0.0289  0.2458
 1199ERGO    C116657   5.369  18.596   6.623 -0.3723 -0.1768  0.2429
 1199ERGO    C216658   5.765  18.485   6.774 -0.0949  0.2285  0.0879
 1200ERGO   ROH16659  12.584  19.031   5.995  0.0726  0.0884  0.0108
 1200ERGO    R116660  12.644  19.066   6.269 -0.0367  0.1369  0.0278
 1200ERGO    R216661  12.475  18.981   6.470  0.0011 -0.0530 -0.0247
 1200ERGO    R316662  12.697  18.852   6.558  0.1164  0.1772  0.0317
 1200ERGO    R416663  12.515  18.852   6.789 -0.0613 -0.2428 -0.0914
 1200ERGO    R516664  12.721  18.923   6.786 -0.1467  0.0411  0.1095
 1200ERGO    C116665  12.747  18.656   7.057  0.0106 -0.1374 -0.0774
 1200ERGO    C216666  12.614  18.330   7.227 -0.1883 -0.3363  0.0002
 1201ERGO   ROH16667  14.148  19.276   6.168 -0.0315  0.2985  0.0643
 1201ERGO    R116668  14.268  19.163   6.398  0.0194  0.1148 -0.0503
 1201ERGO    R216669  14.284  19.297   6.639  0.1619 -0.0367  0.0273
 1201ERGO    R316670  14.162  19.074   6.735  0.1200 -0.0522 -0.0615
 1201ERGO    R416671  14.273  19.205   6.972  0.1271 -0.1568 -0.0067
 1201ERGO    R516672  14.305  18.998   6.911  0.0971 -0.1399 -0.0803
 1201ERGO    C116673  14.152  18.942   7.256  0.0676 -0.2412 -0.1100
 1201ERGO    C216674  13.911  18.961   7.591 -0.1910  0.0774  0.0115
 1202ERGO   ROH16675  12.778  12.341   5.425  0.0890  0.1307  0.0876
 1202ERGO    R116676  12.836  12.458   5.676 -0.0047  0.1638  0.0948
 1202ERGO    R216677  12.672  12.646   5.795 -0.1064  0.1020  0.0601
 1202ERGO    R316678  12.678  12.472   6.004 -0.0718  0.1082  0.0638
 1202ERGO    R416679  12.662  12.736   6.129  0.1531  0.1153  0.0660
 1202ERGO    R516680  12.810  12.582   6.170  0.0919  0.0377 -0.0217
 1202ERGO    C116681  12.662  12.625   6.519  0.3366  0.1291  0.0729
 1202ERGO    C216682  12.662  12.793   6.780 -0.1464 -0.2405  0.0458
 1203ERGO   ROH16683  14.687  11.257   5.666  0.2597  0.0710  0.0296
 1203ERGO    R116684  14.805  11.332   5.912  0.1421  0.1306  0.0683
 1203ERGO    R216685  14.701  11.531   6.073 -0.0268  0.0579  0.0478
 1203ERGO    R316686  14.706  11.337   6.263  0.0370  0.0522  0.0408
 1203ERGO    R416687  14.679  11.587   6.413  0.0069  0.0459  0.0523
 1203ERGO    R516688  14.831  11.434   6.443  0.0429  0.0735  0.0274
 1203ERGO    C116689  14.671  11.437   6.789  0.0863  0.0334  0.0483
 1203ERGO    C216690  14.677  11.592   7.059  0.0614 -0.2751 -0.1415
 1204ERGO   ROH16691   4.474  15.310   6.072 -0.1995  0.2592  0.1037
 1204ERGO    R116692   4.537  15.301   6.348 -0.1907  0.1610  0.0989
 1204ERGO    R216693   4.526  15.524   6.511 -0.1209  0.1176  0.1648
 1204ERGO    R316694   4.364  15.366   6.661 -0.1597  0.1192  0.1248
 1204ERGO    R416695   4.500  15.540   6.855  0.0457 -0.1099  0.1897
 1204ERGO    R516696   4.491  15.322   6.859 -0.0995 -0.1088  0.0372
 1204ERGO    C116697   4.333  15.401   7.197  0.1061 -0.2407  0.1667
 1204ERGO    C216698   4.303  15.648   7.451 -0.0462  0.0352  0.0736
 1205ERGO   ROH16699  16.246   3.211   5.886  0.1222 -0.1817  0.0802
 1205ERGO    R116700  16.170   3.199   6.158  0.1500 -0.0483  0.0953
 1205ERGO    R216701  16.231   2.984   6.320  0.0403 -0.0360  0.1572
 1205ERGO    R316702  16.339   3.177   6.479  0.1792 -0.0499  0.0796
 1205ERGO    R416703  16.278   2.956   6.662 -0.0280  0.0834  0.1762
 1205ERGO    R516704  16.214   3.163   6.683  0.1405  0.1481  0.0707
 1205ERGO    C116705  16.407   3.120   7.009  0.0628  0.1398  0.1144
 1205ERGO    C216706  16.486   3.050   7.280 -0.4100 -0.0198 -0.3901
 1206ERGO   ROH16707  15.762   9.233   5.917  0.2717  0.0955  0.1248
 1206ERGO    R116708  15.930   9.237   6.144  0.1874 -0.0464  0.1897
 1206ERGO    R216709  15.931   9.446   6.325  0.3370 -0.0196  0.1501
 1206ERGO    R316710  15.887   9.248   6.506  0.0591  0.0578  0.1734
 1206ERGO    R416711  16.013   9.463   6.660  0.1322  0.0060  0.2012
 1206ERGO    R516712  16.078   9.255   6.650 -0.0232 -0.0550  0.2975
 1206ERGO    C116713  16.019   9.287   7.025 -0.2481  0.0936  0.2528
 1206ERGO    C216714  16.126   9.555   7.332  0.0782  0.0142 -0.0536
 1207ERGO   ROH16715  18.824  15.669   5.957 -0.0526 -0.1959  0.1033
 1207ERGO    R116716  18.796  15.711   6.236 -0.0597 -0.1134  0.0892
 1207ERGO    R216717  18.932  15.560   6.423 -0.0175 -0.0139  0.1323
 1207ERGO    R316718  19.014  15.803   6.512 -0.0826  0.0369  0.0597
 1207ERGO    R416719  18.972  15.645   6.755  0.1086  0.0426  0.1046
 1207ERGO    R516720  18.886  15.840   6.711 -0.0046  0.0015  0.1211
 1207ERGO    C116721  19.072  15.923   7.033  0.1211  0.1233  0.0203
 1207ERGO    C216722  19.076  16.005   7.387  0.2403  0.1449  0.3067
 1208ERGO   ROH16723  12.155  16.509   5.876 -0.1356  0.0626 -0.1351
 1208ERGO    R116724  12.052  16.649   6.099 -0.1871  0.0187 -0.1310
 1208ERGO    R216725  11.800  16.601   6.202 -0.1367 -0.1419 -0.0760
 1208ERGO    R316726  11.937  16.564   6.434 -0.0636 -0.0236 -0.0990
 1208ERGO    R416727  11.658  16.602   6.517 -0.0734 -0.2249 -0.0465
 1208ERGO    R516728  11.831  16.713   6.589 -0.1420 -0.0913 -0.0890
 1208ERGO    C116729  11.703  16.568   6.918  0.0322 -0.1624 -0.0510
 1208ERGO    C216730  11.485  16.472   7.189 -0.0984 -0.0086  0.3506
 1209ERGO   ROH16731  11.065  11.594   5.672  0.1691 -0.1668  0.1699
 1209ERGO    R116732  10.919  11.614   5.914  0.0247  0.2631  0.0553
 1209ERGO    R216733  10.978  11.462   6.136 -0.6078  0.0602  0.1000
 1209ERGO    R316734  10.990  11.704   6.259  0.0269  0.0365  0.1157
 1209ERGO    R416735  10.981  11.509   6.479 -0.6186  0.0265  0.1049
 1209ERGO    R516736  10.849  11.680   6.451 -0.1349  0.4193  0.0552
 1209ERGO    C116737  10.995  11.764   6.794 -0.0292 -0.0154  0.1225
 1209ERGO    C216738  10.972  11.656   7.137 -0.0598  0.2385 -0.0071
 1210ERGO   ROH16739   0.609   7.202   5.873 -0.1140  0.2913  0.0028
 1210ERGO    R116740   0.676   7.076   6.118  0.0486  0.0905 -0.1409
 1210ERGO    R216741   0.929   7.093   6.230  0.0359  0.2749 -0.1333
 1210ERGO    R316742   0.791   7.182   6.447 -0.0724 -0.1396 -0.0226
 1210ERGO    R416743   1.049   7.096   6.554  0.1667  0.3552 -0.1820
 1210ERGO    R516744   0.853   7.032   6.623  0.3258 -0.1096 -0.1299
 1210ERGO    C116745   0.990   7.181   6.946  0.1413  0.0128 -0.1065
 1210ERGO    C216746   1.387   7.239   7.117 -0.3974  0.2076 -0.2508
 1211ERGO   ROH16747   2.511   5.785   5.917 -0.0764  0.0189  0.0463
 1211ERGO    R116748   2.613   5.957   6.117 -0.0788  0.0260  0.0421
 1211ERGO    R216749   2.515   5.960   6.375 -0.0493 -0.0009  0.0578
 1211ERGO    R316750   2.776   5.920   6.440 -0.0349  0.0335  0.0194
 1211ERGO    R416751   2.661   6.058   6.672 -0.0074  0.0189  0.0305
 1211ERGO    R516752   2.838   6.118   6.560 -0.0364  0.0377  0.0054
 1211ERGO    C116753   2.991   6.077   6.907  0.0307  0.0627 -0.0215
 1211ERGO    C216754   2.972   6.034   7.321 -0.1308 -0.0349  0.2116
 1212ERGO   ROH16755   6.849   6.683   5.219  0.2357 -0.1037 -0.0102
 1212ERGO    R116756   6.977   6.728   5.467  0.0355  0.1970  0.0444
 1212ERGO    R216757   6.876   6.900   5.659 -0.5130 -0.1113  0.0503
 1212ERGO    R316758   6.895   6.681   5.819  0.0330 -0.1096  0.0053
 1212ERGO    R416759   6.907   6.909   6.003 -0.5062 -0.1081  0.0502
 1212ERGO    R516760   7.051   6.745   5.989 -0.1022  0.2354  0.0050
 1212ERGO    C116761   6.944   6.709   6.353  0.0103 -0.1046  0.0079
 1212ERGO    C216762   6.927   6.647   6.755  0.1460 -0.0166 -0.0552
 1213ERGO   ROH16763  15.390   6.821   5.538 -0.0454  0.2571 -0.1062
 1213ERGO    R116764  15.300   6.857   5.804 -0.1317  0.1412 -0.1185
 1213ERGO    R216765  15.139   6.673   5.933  0.1316 -0.1011 -0.1206
 1213ERGO    R316766  15.335   6.682   6.121  0.1043  0.2154 -0.1026
 1213ERGO    R416767  15.129   6.510   6.238  0.3482 -0.0740 -0.0978
 1213ERGO    R516768  15.217   6.686   6.330  0.0802  0.0718 -0.1149
 1213ERGO    C116769  15.307   6.423   6.591  0.4487  0.2387 -0.0677
 1213ERGO    C216770  15.229   6.138   6.847 -0.0024 -0.2591 -0.1629
 1214ERGO   ROH16771  10.535  17.851   5.683  0.1462 -0.3698  0.0330
 1214ERGO    R116772  10.494  17.987   5.927  0.1034 -0.1064 -0.1168
 1214ERGO    R216773  10.396  17.861   6.153 -0.1848  0.1898 -0.0663
 1214ERGO    R316774  10.620  17.964   6.268 -0.1620  0.0709 -0.0031
 1214ERGO    R416775  10.441  17.907   6.493 -0.0961 -0.2021 -0.0204
 1214ERGO    R516776  10.538  18.097   6.449 -0.1212 -0.1443  0.1760
 1214ERGO    C116777  10.678  18.030   6.798 -0.0230 -0.5416  0.0657
 1214ERGO    C216778  10.571  17.945   7.164 -0.2956  0.0354  0.0818
 1215ERGO   ROH16779  16.877  17.653   6.287  0.0575  0.2353 -0.1319
 1215ERGO    R116780  17.063  17.576   6.487  0.1461  0.1987 -0.2265
 1215ERGO    R216781  17.253  17.749   6.588  0.0315  0.2566 -0.1034
 1215ERGO    R316782  17.143  17.680   6.826  0.1174 -0.0369 -0.1462
 1215ERGO    R416783  17.410  17.782   6.894  0.0323  0.1546 -0.0931
 1215ERGO    R516784  17.326  17.589   6.952  0.2141  0.0291 -0.2387
 1215ERGO    C116785  17.398  17.736   7.296  0.1135 -0.1803 -0.1273
 1215ERGO    C216786  17.364  17.644   7.644  0.1921  0.2956  0.1605
 1216ERGO   ROH16787  12.552  16.309   6.057  0.1642  0.0324 -0.1367
 1216ERGO    R116788  12.548  16.327   6.339  0.1066  0.0546 -0.1400
 1216ERGO    R216789  12.398  16.515   6.475  0.0447  0.0309 -0.1872
 1216ERGO    R316790  12.298  16.297   6.602  0.0643  0.0243 -0.1809
 1216ERGO    R416791  12.246  16.520   6.785  0.3962 -0.0200 -0.0088
 1216ERGO    R516792  12.349  16.334   6.833  0.3510 -0.1086 -0.2140
 1216ERGO    C116793  12.064  16.318   7.086  0.6192 -0.0559  0.1010
 1216ERGO    C216794  11.973  16.270   7.453  0.1768  0.1332 -0.0883
 1217ERGO   ROH16795   0.591   0.776   5.748 -0.0083  0.0321 -0.0068
 1217ERGO    R116796   0.770   0.833   5.959  0.0374  0.1208 -0.0686
 1217ERGO    R216797   0.844   1.090   6.028 -0.0883  0.1601 -0.0768
 1217ERGO    R316798   0.758   1.015   6.274  0.0458  0.0898 -0.0509
 1217ERGO    R416799   0.964   1.217   6.326 -0.1038  0.2556 -0.1104
 1217ERGO    R516800   0.956   1.015   6.409  0.0843  0.2494 -0.1081
 1217ERGO    C116801   0.955   1.219   6.731  0.0130  0.2453 -0.1054
 1217ERGO    C216802   1.123   1.232   7.041 -0.2002 -0.1669  0.0840
 1218ERGO   ROH16803  11.767  12.873   5.818  0.0176  0.3218  0.0198
 1218ERGO    R116804  11.654  12.834   6.075  0.0119  0.2399  0.0039
 1218ERGO    R216805  11.809  12.800   6.301  0.0041  0.0611 -0.0236
 1218ERGO    R316806  11.660  13.007   6.395  0.0944  0.0753  0.0948
 1218ERGO    R416807  11.820  12.921   6.625  0.1712 -0.0425  0.0115
 1218ERGO    R516808  11.603  12.944   6.618  0.1673  0.0178  0.1025
 1218ERGO    C116809  11.687  13.186   6.901  0.3530 -0.0895  0.1432
 1218ERGO    C216810  11.535  13.243   7.107  0.0755  0.0195 -0.0143
 1219ERGO   ROH16811  19.361  11.723   6.165  0.2578 -0.1280 -0.1418
 1219ERGO    R116812  19.268  11.586   6.395  0.1768 -0.2271 -0.2332
 1219ERGO    R216813  19.429  11.417   6.543  0.2280 -0.0221 -0.0496
 1219ERGO    R316814  19.351  11.576   6.749 -0.1903 -0.1002 -0.1393
 1219ERGO    R416815  19.444  11.329   6.877  0.4859  0.2030  0.0014
 1219ERGO    R516816  19.250  11.425   6.905  0.2160 -0.2904 -0.0483
 1219ERGO    C116817  19.379  11.427   7.264  0.2435  0.2609 -0.0531
 1219ERGO    C216818  19.393  11.290   7.501 -0.2319 -0.1012 -0.0608
 1220ERGO   ROH16819   2.658   4.039   6.593  0.1326  0.0756  0.2492
 1220ERGO    R116820   2.728   3.791   6.711  0.1593 -0.0240  0.0332
 1220ERGO    R216821   2.941   3.639   6.622  0.2733  0.1445 -0.0093
 1220ERGO    R316822   3.018   3.654   6.882  0.1167 -0.0857  0.0515
 1220ERGO    R416823   3.205   3.464   6.760  0.2419  0.0958 -0.0134
 1220ERGO    R516824   3.084   3.430   6.937  0.1515 -0.1133 -0.1216
 1220ERGO    C116825   3.432   3.376   7.084  0.0766 -0.1487  0.0413
 1220ERGO    C216826   3.696   3.218   7.168 -0.1495  0.1806 -0.1653
 1221ERGO   ROH16827   5.177   0.699   5.582  0.0662  0.0053 -0.1036
 1221ERGO    R116828   5.389   0.784   5.748  0.0779  0.0098 -0.1209
 1221ERGO    R216829   5.352   0.854   6.013  0.0896  0.0580 -0.1321
 1221ERGO    R316830   5.546   0.669   6.056  0.0700  0.0442 -0.1038
 1221ERGO    R416831   5.577   0.861   6.275 -0.0617 -0.0521  0.0034
 1221ERGO    R516832   5.732   0.795   6.136  0.0208  0.0148  0.0618
 1221ERGO    C116833   5.891   0.691   6.467 -0.1681 -0.1293  0.1089
 1221ERGO    C216834   6.056   0.634   6.655 -0.0791  0.0903  0.2813
 1222ERGO   ROH16835   1.438  18.787   6.231 -0.1060  0.1493 -0.0717
 1222ERGO    R116836   1.443  18.666   6.486  0.0684  0.0393 -0.1214
 1222ERGO    R216837   1.625  18.739   6.681 -0.0021  0.2015 -0.0822
 1222ERGO    R316838   1.401  18.775   6.831 -0.0594 -0.1537 -0.0820
 1222ERGO    R416839   1.618  18.749   7.027 -0.0284  0.3853 -0.0901
 1222ERGO    R516840   1.434  18.633   7.022  0.2129  0.0302 -0.0089
 1222ERGO    C116841   1.404  18.789   7.369 -0.0975  0.1588 -0.0946
 1222ERGO    C216842   1.447  19.037   7.676  0.0136  0.0114 -0.2339
 1223ERGO   ROH16843   6.766   0.723   5.076  0.1272 -0.0644  0.0637
 1223ERGO    R116844   6.768   0.892   5.302 -0.0475 -0.0671  0.0681
 1223ERGO    R216845   6.551   0.915   5.473 -0.0450 -0.3558  0.1146
 1223ERGO    R316846   6.736   0.853   5.663  0.0800 -0.1217  0.0738
 1223ERGO    R416847   6.521   0.986   5.810  0.0082 -0.2685  0.1014
 1223ERGO    R516848   6.732   1.039   5.813 -0.0376 -0.0726  0.0108
 1223ERGO    C116849   6.677   0.970   6.184  0.1564  0.0022  0.0553
 1223ERGO    C216850   6.461   0.816   6.428  0.1807  0.0041 -0.0311
 1224ERGO   ROH16851  14.605  10.435   5.875  0.0871  0.0957  0.0662
 1224ERGO    R116852  14.489  10.380   6.127  0.0190  0.2184  0.0630
 1224ERGO    R216853  14.606  10.210   6.310 -0.2126  0.0146  0.0281
 1224ERGO    R316854  14.582  10.424   6.476  0.1045  0.0264  0.0656
 1224ERGO    R416855  14.575  10.190   6.654 -0.2595 -0.0005  0.0227
 1224ERGO    R516856  14.427  10.350   6.645 -0.0179  0.2290  0.0444
 1224ERGO    C116857  14.533  10.379   7.010  0.0108  0.0020  0.0548
 1224ERGO    C216858  14.671  10.179   7.258 -0.0126 -0.0045 -0.0814
 1225ERGO   ROH16859  18.127   2.040   6.001 -0.0383 -0.0184 -0.0619
 1225ERGO    R116860  18.255   2.069   6.252 -0.0641  0.0411 -0.0560
 1225ERGO    R216861  18.180   2.263   6.435 -0.2230 -0.0516 -0.0234
 1225ERGO    R316862  18.157   2.050   6.602 -0.0508 -0.1000 -0.0591
 1225ERGO    R416863  18.169   2.282   6.780 -0.0647 -0.1303 -0.0128
 1225ERGO    R516864  18.295   2.105   6.789  0.0176 -0.0802 -0.1133
 1225ERGO    C116865  18.141   2.093   7.137  0.1892 -0.2215 -0.0402
 1225ERGO    C216866  17.942   2.146   7.336  0.5089 -0.0450 -0.0678
 1226ERGO   ROH16867   3.963   2.798   5.419 -0.1691  0.1472 -0.0878
 1226ERGO    R116868   3.913   2.990   5.621  0.0234  0.1409 -0.0327
 1226ERGO    R216869   3.792   2.927   5.861 -0.1380  0.2116 -0.0971
 1226ERGO    R316870   4.014   3.043   5.967 -0.0145 -0.1197  0.0211
 1226ERGO    R416871   3.804   3.090   6.166 -0.1163  0.3474 -0.1699
 1226ERGO    R516872   3.932   3.240   6.075  0.2294  0.0855 -0.1499
 1226ERGO    C116873   4.020   3.293   6.442  0.0124  0.1155 -0.1013
 1226ERGO    C216874   4.280   3.461   6.582  0.2962 -0.0216  0.2590
 1227ERGO   ROH16875  18.506  19.013   6.036 -0.2391  0.1116 -0.0518
 1227ERGO    R116876  18.427  19.192   6.240 -0.2109 -0.0495  0.1017
 1227ERGO    R216877  18.310  19.107   6.475  0.0744 -0.2598  0.1721
 1227ERGO    R316878  18.512  19.248   6.590  0.0578 -0.1366  0.0529
 1227ERGO    R416879  18.308  19.225   6.800  0.1864 -0.2361  0.1653
 1227ERGO    R516880  18.400  19.409   6.728  0.0428 -0.1893  0.1016
 1227ERGO    C116881  18.497  19.426   7.097  0.2360 -0.1067  0.0496
 1227ERGO    C216882  18.512  19.401   7.395  0.1941  0.1619 -0.0889
 1228ERGO   ROH16883  18.010  16.297   6.228  0.0164  0.0830 -0.0327
 1228ERGO    R116884  17.777  16.448   6.285 -0.1014 -0.0756 -0.0866
 1228ERGO    R216885  17.602  16.380   6.487  0.0084 -0.0783  0.0113
 1228ERGO    R316886  17.646  16.636   6.568 -0.1896  0.0231 -0.1929
 1228ERGO    R416887  17.461  16.525   6.767  0.2409 -0.1062  0.1457
 1228ERGO    R516888  17.434  16.708   6.652 -0.1605 -0.1990  0.0828
 1228ERGO    C116889  17.419  16.849   7.006  0.1904 -0.0276  0.0323
 1228ERGO    C216890  17.482  17.231   7.240  0.0649  0.3272 -0.1276
 1229ERGO   ROH16891  18.094  12.849   6.207 -0.2917  0.0979 -0.0822
 1229ERGO    R116892  17.941  12.967   6.414 -0.2182  0.0468  0.0013
 1229ERGO    R216893  17.919  12.854   6.666 -0.1603 -0.0344 -0.0301
 1229ERGO    R316894  18.005  13.098   6.748 -0.1078 -0.0731  0.0277
 1229ERGO    R416895  17.801  13.022   6.944 -0.1146 -0.0777  0.0159
 1229ERGO    R516896  17.808  13.207   6.829 -0.0812 -0.0520  0.0623
 1229ERGO    C116897  17.814  13.349   7.183 -0.0389 -0.1392  0.0969
 1229ERGO    C216898  17.673  13.584   7.358 -0.1069 -0.2809 -0.1020
 1230ERGO   ROH16899   1.693  10.891   5.822 -0.1483  0.0319  0.0756
 1230ERGO    R116900   1.787  10.792   6.070  0.0402  0.1339  0.0452
 1230ERGO    R216901   1.740  10.922   6.309 -0.2072 -0.0202  0.0767
 1230ERGO    R316902   1.639  10.682   6.384  0.2463 -0.2424  0.0185
 1230ERGO    R416903   1.711  10.815   6.636 -0.7542  0.2258  0.1202
 1230ERGO    R516904   1.774  10.616   6.571 -0.0275  0.3092  0.4480
 1230ERGO    C116905   1.598  10.527   6.898 -0.6469  0.1604  0.0910
 1230ERGO    C216906   1.556  10.450   7.206 -0.0505  0.3109 -0.0725
 1231ERGO   ROH16907  10.763  10.149   5.704  0.1073 -0.0660 -0.1123
 1231ERGO    R116908  10.884  10.119   5.958  0.0861 -0.1205 -0.1088
 1231ERGO    R216909  10.842  10.299   6.164  0.1486 -0.1111 -0.1068
 1231ERGO    R316910  10.770  10.075   6.301  0.0569 -0.0863 -0.1134
 1231ERGO    R416911  10.801  10.283   6.507  0.0366 -0.0737 -0.1183
 1231ERGO    R516912  10.897  10.087   6.504 -0.0033 -0.0966 -0.0731
 1231ERGO    C116913  10.708  10.064   6.835 -0.1148 -0.0287 -0.1309
 1231ERGO    C216914  10.583  10.226   7.068  0.1801  0.2906 -0.2389
 1232ERGO   ROH16915  15.772  12.879   5.617  0.1520  0.3843  0.0013
 1232ERGO    R116916  15.713  12.857   5.893  0.1016  0.4751 -0.0009
 1232ERGO    R216917  15.778  12.633   6.042 -0.2664  0.3576  0.0026
 1232ERGO    R316918  15.902  12.815   6.201  0.0260  0.1615  0.0035
 1232ERGO    R416919  15.861  12.581   6.373 -0.3568  0.2395  0.0068
 1232ERGO    R516920  15.800  12.786   6.415 -0.0243  0.3383 -0.0008
 1232ERGO    C116921  16.027  12.721   6.715 -0.1348 -0.0135  0.0102
 1232ERGO    C216922  16.107  12.823   7.054  0.0258  0.1516 -0.0699
 1233ERGO   ROH16923  17.251  19.284   6.069  0.0460  0.2312  0.1051
 1233ERGO    R116924  17.187  19.301   6.344  0.1987  0.3596  0.1331
 1233ERGO    R216925  17.146  19.077   6.501 -0.1536  0.4358  0.1473
 1233ERGO    R316926  17.336  19.193   6.658  0.1388  0.0829  0.0712
 1233ERGO    R416927  17.156  19.057   6.846  0.0134  0.3180  0.1383
 1233ERGO    R516928  17.216  19.267   6.852  0.3660  0.2299  0.1660
 1233ERGO    C116929  17.340  19.154   7.194  0.3850 -0.0819  0.0616
 1233ERGO    C216930  17.526  19.092   7.414  0.0700  0.0806  0.2724
 1234ERGO   ROH16931   8.353  19.285   5.191 -0.0187 -0.1310  0.0079
 1234ERGO    R116932   8.232  19.414   5.412  0.0792 -0.1728  0.0862
 1234ERGO    R216933   8.379  19.537   5.610  0.1643  0.0454 -0.1104
 1234ERGO    R316934   8.223  19.751   5.548 -0.1165 -0.1293 -0.0276
 1234ERGO    R416935   8.302  19.795   5.827  0.1618  0.0572 -0.1252
 1234ERGO    R516936   8.099  19.794   5.748  0.0657 -0.1730  0.1007
 1234ERGO    C116937   8.111  20.146   5.895 -0.1033 -0.1000 -0.0560
 1234ERGO    C216938   8.054  20.335   6.152 -0.0913  0.0837 -0.2397
 1235ERGO   ROH16939  13.706  13.632   6.018  0.0687  0.2049  0.0130
 1235ERGO    R116940  13.634  13.517   6.266  0.0532 -0.0790 -0.1213
 1235ERGO    R216941  13.448  13.633   6.435  0.2699 -0.1133  0.1238
 1235ERGO    R316942  13.330  13.388   6.420 -0.0244  0.0363 -0.1664
 1235ERGO    R416943  13.170  13.536   6.615  0.4445 -0.1171  0.4016
 1235ERGO    R516944  13.262  13.341   6.644  0.2913 -0.3020 -0.1196
 1235ERGO    C116945  12.896  13.250   6.706  0.2700  0.0213  0.2909
 1235ERGO    C216946  12.544  13.282   6.652  0.1558 -0.0617 -0.1953
 1236ERGO   ROH16947   0.793   2.374   5.879 -0.0618  0.1008  0.0789
 1236ERGO    R116948   0.753   2.195   6.094 -0.0396 -0.0313 -0.0252
 1236ERGO    R216949   0.576   2.248   6.300  0.1798 -0.0282  0.1661
 1236ERGO    R316950   0.474   2.005   6.231 -0.0978  0.1130  0.0598
 1236ERGO    R416951   0.404   2.038   6.514  0.1983 -0.0511  0.1587
 1236ERGO    R516952   0.510   1.869   6.426 -0.0304 -0.0760 -0.0808
 1236ERGO    C116953   0.209   1.688   6.575 -0.0515  0.0682  0.0547
 1236ERGO    C216954   0.186   1.557   6.871 -0.4107 -0.1485  0.1688
 1237ERGO   ROH16955   7.010   5.572   5.131  0.2019 -0.1666  0.1381
 1237ERGO    R116956   6.894   5.638   5.381  0.0752 -0.0219  0.0422
 1237ERGO    R216957   6.877   5.459   5.590 -0.0904  0.0786  0.1167
 1237ERGO    R316958   7.003   5.657   5.727 -0.1192  0.1092  0.0990
 1237ERGO    R416959   6.932   5.458   5.931 -0.1314  0.1343  0.1233
 1237ERGO    R516960   6.884   5.671   5.934 -0.1460  0.1333  0.0831
 1237ERGO    C116961   7.082   5.644   6.259 -0.1824  0.1955  0.1104
 1237ERGO    C216962   7.275   5.621   6.526  0.0849  0.2805 -0.1265
 1238ERGO   ROH16963  17.599   7.808   6.168 -0.1764  0.0592 -0.2001
 1238ERGO    R116964  17.545   7.832   6.445 -0.2126 -0.0616 -0.1962
 1238ERGO    R216965  17.414   7.636   6.589 -0.0746 -0.2038 -0.2612
 1238ERGO    R316966  17.633   7.650   6.748 -0.0945 -0.0843 -0.2436
 1238ERGO    R416967  17.469   7.437   6.866 -0.1312  0.0336 -0.0765
 1238ERGO    R516968  17.549   7.612   6.969 -0.1282  0.1185 -0.2196
 1238ERGO    C116969  17.708   7.335   7.177 -0.1830  0.2840  0.0476
 1238ERGO    C216970  17.768   7.029   7.334  0.1055 -0.2640  0.0824
 1239ERGO   ROH16971  11.291  17.056   5.723  0.1799  0.1427  0.2714
 1239ERGO    R116972  11.156  17.129   5.960  0.1157  0.0917  0.2510
 1239ERGO    R216973  10.898  17.046   6.016  0.1211  0.0329  0.1903
 1239ERGO    R316974  11.012  16.957   6.247  0.0923  0.0342  0.2050
 1239ERGO    R416975  10.754  17.068   6.329 -0.0106 -0.1534  0.1441
 1239ERGO    R516976  10.949  17.119   6.411 -0.0718 -0.0542  0.2321
 1239ERGO    C116977  10.776  16.997   6.728 -0.1142 -0.2604  0.1311
 1239ERGO    C216978  10.481  17.126   6.946  0.4067  0.2090 -0.1725
 1240ERGO   ROH16979  16.952   6.567   5.883 -0.1880 -0.1661  0.1881
 1240ERGO    R116980  16.989   6.691   6.134 -0.1653 -0.0874  0.1466
 1240ERGO    R216981  17.027   6.963   6.161  0.0294 -0.0991  0.0426
 1240ERGO    R316982  16.817   6.944   6.332 -0.0358  0.1248 -0.0089
 1240ERGO    R416983  17.018   7.100   6.478  0.2513 -0.4183  0.1913
 1240ERGO    R516984  16.918   6.918   6.548 -0.1114 -0.3048 -0.0179
 1240ERGO    C116985  16.815   7.161   6.824  0.3189 -0.3940  0.2296
 1240ERGO    C216986  16.732   7.301   7.111  0.0197  0.0903  0.2769
 1241ERGO   ROH16987  18.956  16.631   5.506 -0.1227 -0.1386 -0.0465
 1241ERGO    R116988  19.047  16.583   5.769 -0.0065 -0.0430 -0.0684
 1241ERGO    R216989  19.226  16.749   5.897 -0.1525  0.1494 -0.1141
 1241ERGO    R316990  19.034  16.757   6.089 -0.1141 -0.0565 -0.0641
 1241ERGO    R416991  19.280  16.833   6.228 -0.1847  0.4340 -0.1785
 1241ERGO    R516992  19.142  16.674   6.286  0.0875  0.2330 -0.0450
 1241ERGO    C116993  19.131  16.889   6.601 -0.1674  0.4063 -0.1689
 1241ERGO    C216994  18.971  17.008   6.919 -0.1790  0.0183  0.1407
 1242ERGO   ROH16995   7.127   4.651   4.584 -0.0830 -0.1026  0.1588
 1242ERGO    R116996   6.989   4.636   4.831 -0.0738 -0.1233  0.1640
 1242ERGO    R216997   7.024   4.427   5.009  0.0015 -0.0960  0.1902
 1242ERGO    R316998   7.078   4.628   5.184 -0.0606 -0.0550  0.1606
 1242ERGO    R416999   7.020   4.395   5.353 -0.1836  0.0140  0.1983
 1242ERGO    R517000   6.925   4.591   5.365 -0.1570  0.0271  0.0909
 1242ERGO    C117001   7.067   4.566   5.718 -0.3497  0.1166  0.1753
 1242ERGO    C217002   7.069   4.719   6.025 -0.3469 -0.0475 -0.1576
 1243ERGO   ROH17003  18.512  14.571   5.918 -0.2309 -0.0165 -0.0001
 1243ERGO    R117004  18.377  14.755   6.086 -0.3449 -0.0910 -0.0107
 1243ERGO    R217005  18.210  14.674   6.291 -0.0966 -0.1875  0.1513
 1243ERGO    R317006  18.371  14.834   6.441 -0.1922  0.1065 -0.0495
 1243ERGO    R417007  18.153  14.756   6.622  0.1844 -0.3516  0.2451
 1243ERGO    R517008  18.219  14.960   6.577 -0.2650 -0.2048  0.1738
 1243ERGO    C117009  18.271  14.954   6.955  0.2585 -0.1711  0.1113
 1243ERGO    C217010  18.400  15.093   7.122 -0.0618 -0.3243  0.1896
 1244ERGO   ROH17011   7.355  15.560   6.161 -0.2536  0.1391 -0.0147
 1244ERGO    R117012   7.221  15.684   6.377 -0.0755  0.2603  0.0271
 1244ERGO    R217013   7.186  15.560   6.621 -0.3199  0.1935 -0.0433
 1244ERGO    R317014   7.304  15.786   6.716  0.0504 -0.0482  0.0928
 1244ERGO    R417015   7.130  15.695   6.935 -0.5219  0.3793 -0.1554
 1244ERGO    R517016   7.133  15.894   6.844  0.0751  0.3708 -0.2037
 1244ERGO    C117017   7.209  15.985   7.206 -0.2918  0.2604 -0.0930
 1244ERGO    C217018   7.133  16.111   7.446  0.0507  0.0579  0.1922
 1245ERGO   ROH17019  15.173  16.531   6.010 -0.0839 -0.2677 -0.0553
 1245ERGO    R117020  15.000  16.553   6.232 -0.1533 -0.2330 -0.1125
 1245ERGO    R217021  14.863  16.337   6.336  0.0243 -0.2708  0.0460
 1245ERGO    R317022  14.981  16.415   6.568 -0.0971  0.0430  0.0073
 1245ERGO    R417023  14.739  16.272   6.652  0.0834 -0.2350  0.0767
 1245ERGO    R517024  14.798  16.474   6.711 -0.1929 -0.1105 -0.0486
 1245ERGO    C117025  14.777  16.308   7.054  0.0039  0.0803  0.0584
 1245ERGO    C217026  14.819  16.251   7.360 -0.1599 -0.2978  0.0024
 1246ERGO   ROH17027   9.420  17.945   5.816  0.1413  0.0391  0.0048
 1246ERGO    R117028   9.472  18.165   5.986 -0.0374  0.0079  0.1035
 1246ERGO    R217029   9.342  18.200   6.226 -0.1212 -0.1651  0.0903
 1246ERGO    R317030   9.595  18.213   6.325 -0.1516 -0.0493  0.1520
 1246ERGO    R417031   9.424  18.315   6.542 -0.2660 -0.3341  0.1907
 1246ERGO    R517032   9.597  18.415   6.455 -0.3238 -0.1431  0.3007
 1246ERGO    C117033   9.709  18.394   6.819 -0.3788 -0.3239  0.3070
 1246ERGO    C217034   9.823  18.479   7.145 -0.0303 -0.0644 -0.0844
 1247ERGO   ROH17035  15.076   8.015   6.405  0.0971  0.1189  0.1065
 1247ERGO    R117036  15.103   8.067   6.682  0.0835  0.1503  0.1031
 1247ERGO    R217037  14.975   8.277   6.808  0.0510  0.1481  0.0815
 1247ERGO    R317038  14.883   8.081   6.971  0.0733  0.1500  0.0945
 1247ERGO    R417039  14.900   8.318   7.142  0.0787  0.1531  0.0859
 1247ERGO    R517040  14.990   8.123   7.181  0.0885  0.1592  0.0830
 1247ERGO    C117041  14.770   8.157   7.491  0.1158  0.1578  0.1006
 1247ERGO    C217042  14.625   8.313   7.618  0.1824  0.2907 -0.3909
 1248ERGO   ROH17043  11.708  14.113   5.674 -0.1859  0.2896  0.1930
 1248ERGO    R117044  11.664  14.084   5.952 -0.1173  0.1343  0.1886
 1248ERGO    R217045  11.575  13.847   6.064  0.0441  0.0288  0.0959
 1248ERGO    R317046  11.796  13.877   6.220  0.0560  0.0874  0.0692
 1248ERGO    R417047  11.579  13.824   6.409  0.1345 -0.2290  0.0798
 1248ERGO    R517048  11.717  13.992   6.414  0.0034 -0.1198  0.1749
 1248ERGO    C117049  11.789  13.838   6.756  0.1981 -0.3241  0.0454
 1248ERGO    C217050  11.683  13.712   6.966  0.1936  0.1240  0.1035
 1249ERGO   ROH17051  11.486  18.476   5.879 -0.0373  0.0400 -0.0276
 1249ERGO    R117052  11.586  18.550   6.133  0.0216  0.0074 -0.0405
 1249ERGO    R217053  11.426  18.661   6.329  0.0692 -0.0017  0.0070
 1249ERGO    R317054  11.523  18.456   6.479  0.0880 -0.0246 -0.0375
 1249ERGO    R417055  11.411  18.644   6.674  0.1377 -0.0442  0.0075
 1249ERGO    R517056  11.613  18.562   6.674  0.1320 -0.0546 -0.0428
 1249ERGO    C117057  11.494  18.441   7.015  0.1952 -0.0903 -0.0341
 1249ERGO    C217058  11.473  18.282   7.332 -0.0313 -0.0977 -0.4855
 1250ERGO   ROH17059  10.539  12.854   6.083 -0.2737  0.0038  0.0639
 1250ERGO    R117060  10.621  12.864   6.354 -0.0917 -0.0072  0.0101
 1250ERGO    R217061  10.444  12.834   6.564  0.0449  0.0153  0.1274
 1250ERGO    R317062  10.616  12.638   6.639  0.0704 -0.0066  0.0146
 1250ERGO    R417063  10.526  12.757   6.891 -0.0297 -0.2296  0.0907
 1250ERGO    R517064  10.732  12.729   6.828 -0.0032 -0.1294  0.1232
 1250ERGO    C117065  10.736  12.528   7.152 -0.0491 -0.3928 -0.0365
 1250ERGO    C217066  10.716  12.327   7.415 -0.0354 -0.0167 -0.1712
 1251ERGO   ROH17067   6.293   3.952   4.918  0.0184 -0.1028  0.0079
 1251ERGO    R117068   6.259   3.851   5.180 -0.0908  0.0406  0.0525
 1251ERGO    R217069   6.467   3.738   5.325 -0.2180 -0.1960  0.0756
 1251ERGO    R317070   6.395   3.923   5.510  0.0527 -0.0139  0.0029
 1251ERGO    R417071   6.508   3.704   5.666 -0.2906 -0.1108  0.0918
 1251ERGO    R517072   6.313   3.795   5.694 -0.1482  0.1918  0.0508
 1251ERGO    C117073   6.464   3.857   6.039 -0.0786  0.1097  0.0329
 1251ERGO    C217074   6.722   3.847   6.312 -0.0239 -0.2188 -0.2417
 1252ERGO   ROH17075  15.839  11.231   5.882  0.2121  0.0821 -0.1309
 1252ERGO    R117076  15.862  11.161   6.156 -0.0825 -0.1277 -0.1562
 1252ERGO    R217077  15.941  11.342   6.349  0.1817 -0.3996 -0.0107
 1252ERGO    R317078  15.709  11.267   6.468 -0.0465  0.0021 -0.1797
 1252ERGO    R417079  15.860  11.401   6.680  0.2133 -0.5612  0.0273
 1252ERGO    R517080  15.773  11.202   6.689 -0.2593 -0.3904 -0.2188
 1252ERGO    C117081  15.595  11.365   6.985  0.0175 -0.2780 -0.1093
 1252ERGO    C217082  15.601  11.664   7.307  0.0935  0.2641  0.0616
 1253ERGO   ROH17083   8.492   5.798   5.210  0.0494 -0.3184  0.1978
 1253ERGO    R117084   8.512   5.933   5.458  0.2672 -0.0227  0.0262
 1253ERGO    R217085   8.439   5.817   5.698 -0.1632  0.4773  0.1615
 1253ERGO    R317086   8.691   5.887   5.771 -0.0041 -0.0668  0.1773
 1253ERGO    R417087   8.531   5.922   6.014  0.0072  0.4666  0.1159
 1253ERGO    R517088   8.660   6.071   5.922  0.3886  0.1101  0.0523
 1253ERGO    C117089   8.821   6.049   6.267  0.2558 -0.0504  0.1042
 1253ERGO    C217090   9.036   6.006   6.495  0.1212  0.2315 -0.3194
 1254ERGO   ROH17091  17.667  10.119   6.201  0.1328 -0.4496 -0.1141
 1254ERGO    R117092  17.498  10.019   6.405  0.1391 -0.2053  0.0160
 1254ERGO    R217093  17.576  10.007   6.670  0.1790  0.0367  0.0233
 1254ERGO    R317094  17.348  10.148   6.710  0.2248  0.1392 -0.0847
 1254ERGO    R417095  17.448  10.091   6.980 -0.0422 -0.0775 -0.0365
 1254ERGO    R517096  17.248  10.048   6.903  0.0013  0.0816 -0.2313
 1254ERGO    C117097  17.159  10.273   7.198 -0.1277 -0.0479 -0.1727
 1254ERGO    C217098  16.773  10.299   7.389  0.1127  0.0326 -0.1578
 1255ERGO   ROH17099  14.843  18.130   6.021 -0.0627  0.0610  0.0571
 1255ERGO    R117100  14.887  18.106   6.300 -0.1471 -0.0380  0.0624
 1255ERGO    R217101  15.042  17.905   6.410 -0.0415  0.0219  0.0233
 1255ERGO    R317102  15.173  18.113   6.524 -0.2328  0.0646  0.1702
 1255ERGO    R417103  15.159  17.911   6.735 -0.1410 -0.0588  0.0613
 1255ERGO    R517104  15.094  18.118   6.749 -0.3035 -0.1140  0.1511
 1255ERGO    C117105  15.351  18.110   7.031 -0.3786 -0.0656  0.2213
 1255ERGO    C217106  15.426  18.321   7.320  0.2373  0.3033  0.2000
 1256ERGO   ROH17107  14.592   0.061   6.328  0.2959 -0.1806 -0.0643
 1256ERGO    R117108  14.726   0.158   6.558  0.3201 -0.2913 -0.0326
 1256ERGO    R217109  14.592   0.255   6.779  0.3471  0.0858 -0.1862
 1256ERGO    R317110  14.741   0.071   6.911 -0.0757 -0.1126  0.0369
 1256ERGO    R417111  14.715   0.296   7.099  0.7578  0.4046 -0.3752
 1256ERGO    R517112  14.901   0.202   7.033  0.4434 -0.3029 -0.3835
 1256ERGO    C117113  14.928   0.146   7.410  0.6000  0.4039 -0.2759
 1256ERGO    C217114  15.142   0.256   7.629  0.1276 -0.0921  0.1133
 1257ERGO   ROH17115   9.495  17.196   7.632 -0.1453 -0.1236 -0.3515
 1257ERGO    R117116   9.510  16.940   7.513 -0.1569 -0.1573 -0.2823
 1257ERGO    R217117   9.743  16.840   7.402 -0.1728 -0.1769 -0.3036
 1257ERGO    R317118   9.694  16.631   7.570 -0.1280 -0.1301 -0.2325
 1257ERGO    R417119   9.909  16.537   7.395 -0.0870 -0.1335 -0.1744
 1257ERGO    R517120   9.719  16.437   7.432 -0.0597 -0.1738 -0.1563
 1257ERGO    C117121   9.961  16.165   7.548  0.0049 -0.0643 -0.0323
 1257ERGO    C217122  10.146  15.924   7.681 -0.1949 -0.1137  0.0283
 1258ERGO   ROH17123  10.649  11.789   5.568  0.2157 -0.0712 -0.0537
 1258ERGO    R117124  10.548  11.907   5.805  0.3391 -0.0377 -0.0164
 1258ERGO    R217125  10.380  11.772   5.978  0.1062  0.1173 -0.1120
 1258ERGO    R317126  10.568  11.839   6.162  0.1771 -0.2429 -0.0453
 1258ERGO    R417127  10.336  11.758   6.321 -0.0629  0.2652 -0.1264
 1258ERGO    R517128  10.445  11.945   6.338  0.3237  0.0456 -0.1147
 1258ERGO    C117129  10.488  11.813   6.693 -0.0949  0.0131 -0.0721
 1258ERGO    C217130  10.577  12.001   6.998 -0.0817  0.0020  0.0980
 1259ERGO   ROH17131  13.165  15.434   6.103  0.1903 -0.0156 -0.0944
 1259ERGO    R117132  13.101  15.499   6.371  0.2000  0.0996 -0.1199
 1259ERGO    R217133  12.968  15.325   6.539  0.0282  0.2479 -0.1023
 1259ERGO    R317134  13.181  15.370   6.702  0.0383  0.1089 -0.0751
 1259ERGO    R417135  12.949  15.355   6.882  0.0058  0.2048 -0.0998
 1259ERGO    R517136  13.095  15.517   6.871  0.0968  0.1310 -0.0614
 1259ERGO    C117137  13.138  15.415   7.236  0.0023  0.0491 -0.0727
 1259ERGO    C217138  13.211  15.424   7.587 -0.1037  0.0789 -0.1367
 1260ERGO   ROH17139   1.882  17.707   5.839  0.0901 -0.3401  0.2020
 1260ERGO    R117140   1.720  17.742   6.069  0.1707 -0.0866  0.2235
 1260ERGO    R217141   1.511  17.573   6.130 -0.1403  0.2801  0.2084
 1260ERGO    R317142   1.641  17.551   6.368 -0.1549 -0.0050  0.1934
 1260ERGO    R417143   1.356  17.508   6.432 -0.2171  0.3498  0.1842
 1260ERGO    R517144   1.491  17.653   6.526 -0.0126  0.1281  0.2462
 1260ERGO    C117145   1.387  17.450   6.832 -0.2756  0.1228  0.1560
 1260ERGO    C217146   1.271  17.435   7.078 -0.3286  0.0647 -0.1224
 1261ERGO   ROH17147   6.604   2.955   5.374 -0.0688  0.0010  0.0897
 1261ERGO    R117148   6.600   2.789   5.603 -0.2234 -0.0945  0.0190
 1261ERGO    R217149   6.663   2.882   5.856  0.0263 -0.2948  0.0334
 1261ERGO    R317150   6.420   2.778   5.919 -0.1099  0.0442  0.0907
 1261ERGO    R417151   6.554   2.816   6.177  0.0402 -0.2055  0.0568
 1261ERGO    R517152   6.464   2.631   6.104 -0.2571 -0.0642  0.0440
 1261ERGO    C117153   6.262   2.680   6.424 -0.0798  0.1646  0.1241
 1261ERGO    C217154   6.140   2.835   6.744 -0.0974  0.1411 -0.1520
 1262ERGO   ROH17155   0.348   4.762   5.971 -0.1072  0.0787 -0.0273
 1262ERGO    R117156   0.317   4.665   6.235 -0.1843  0.0646 -0.0415
 1262ERGO    R217157   0.294   4.396   6.294 -0.1770  0.0612 -0.0611
 1262ERGO    R317158   0.502   4.448   6.461 -0.2369  0.0733  0.0111
 1262ERGO    R417159   0.436   4.166   6.509 -0.0216 -0.0297 -0.2576
 1262ERGO    R517160   0.452   4.324   6.659 -0.1647 -0.1531 -0.1078
 1262ERGO    C117161   0.715   4.080   6.790  0.0127 -0.0713 -0.3043
 1262ERGO    C217162   0.888   3.937   6.890  0.0214  0.1280  0.3502
 1263ERGO   ROH17163  19.152   5.675   6.071 -0.0304  0.0148 -0.0091
 1263ERGO    R117164  19.065   5.541   6.304 -0.1521  0.0337 -0.0447
 1263ERGO    R217165  19.215   5.531   6.536 -0.1661 -0.1542 -0.0490
 1263ERGO    R317166  18.989   5.631   6.648 -0.0819  0.0126 -0.0217
 1263ERGO    R417167  19.068   5.411   6.825 -0.2415 -0.0894 -0.0588
 1263ERGO    R517168  18.874   5.439   6.731 -0.2312  0.0836 -0.0476
 1263ERGO    C117169  18.770   5.436   7.099 -0.2062  0.1050 -0.0389
 1263ERGO    C217170  18.793   5.495   7.446  0.3851 -0.0100 -0.0088
 1264ERGO   ROH17171   9.382  19.351   5.467 -0.1257 -0.2006  0.1554
 1264ERGO    R117172   9.420  19.452   5.729 -0.1101 -0.0636  0.1016
 1264ERGO    R217173   9.302  19.338   5.951  0.0232 -0.0413  0.1876
 1264ERGO    R317174   9.558  19.328   6.043  0.0575  0.1543  0.1156
 1264ERGO    R417175   9.392  19.338   6.285  0.1132 -0.0662  0.1631
 1264ERGO    R517176   9.557  19.472   6.235 -0.0168  0.0945  0.1594
 1264ERGO    C117177   9.685  19.330   6.565  0.1978  0.1030  0.0814
 1264ERGO    C217178   9.874  19.405   6.917 -0.0323 -0.2125 -0.2315
 1265ERGO   ROH17179   5.467  10.510   5.525  0.0716 -0.0273 -0.1735
 1265ERGO    R117180   5.498  10.289   5.700 -0.1122 -0.0055 -0.1105
 1265ERGO    R217181   5.724  10.254   5.856 -0.0778 -0.2213 -0.2069
 1265ERGO    R317182   5.542  10.239   6.058 -0.0018  0.0701 -0.1122
 1265ERGO    R417183   5.742  10.036   6.124 -0.2826 -0.2580 -0.2214
 1265ERGO    R517184   5.527  10.006   6.108 -0.3480  0.0854 -0.1102
 1265ERGO    C117185   5.582   9.895   6.468 -0.3305 -0.0060 -0.1409
 1265ERGO    C217186   5.593   9.763   6.770  0.0867  0.0581 -0.1379
 1266ERGO   ROH17187  10.975   1.058   7.020 -0.1041 -0.0217  0.0605
 1266ERGO    R117188  10.807   0.904   6.852 -0.0009 -0.0906  0.0211
 1266ERGO    R217189  10.574   0.787   6.942 -0.0182 -0.1087 -0.0572
 1266ERGO    R317190  10.464   0.921   6.733  0.0486 -0.1808 -0.1406
 1266ERGO    R417191  10.246   0.755   6.839 -0.1588  0.3011  0.2381
 1266ERGO    R517192  10.315   0.762   6.632 -0.2968 -0.0719  0.1685
 1266ERGO    C117193   9.951   0.863   6.583 -0.1780  0.4720  0.3318
 1266ERGO    C217194   9.649   1.062   6.542  0.2569  0.1284  0.1351
 1267ERGO   ROH17195  13.345   1.566   6.044  0.1769 -0.0257  0.0802
 1267ERGO    R117196  13.412   1.496   6.310  0.1027 -0.1352  0.0705
 1267ERGO    R217197  13.303   1.623   6.530  0.1902 -0.0908  0.0893
 1267ERGO    R317198  13.237   1.370   6.603 -0.0205 -0.0537  0.0322
 1267ERGO    R417199  13.234   1.523   6.853  0.3234 -0.1535  0.0993
 1267ERGO    R517200  13.345   1.339   6.814  0.1043 -0.2546 -0.0589
 1267ERGO    C117201  13.131   1.227   7.110  0.2032 -0.1551  0.0513
 1267ERGO    C217202  13.074   0.981   7.379  0.0476  0.4183  0.3575
 1268ERGO   ROH17203   4.272  11.435   5.813  0.1529 -0.1871  0.0624
 1268ERGO    R117204   4.297  11.570   6.060  0.0627 -0.1650  0.0593
 1268ERGO    R217205   4.239  11.449   6.302  0.1084 -0.1860  0.0559
 1268ERGO    R317206   4.491  11.528   6.365  0.0611 -0.0496  0.0778
 1268ERGO    R417207   4.339  11.563   6.613  0.0525 -0.3092  0.1202
 1268ERGO    R517208   4.460  11.714   6.513 -0.0591 -0.1591  0.1978
 1268ERGO    C117209   4.634  11.704   6.853 -0.0245 -0.2529  0.1782
 1268ERGO    C217210   4.829  11.817   7.188  0.2748 -0.0698 -0.0647
 1269ERGO   ROH17211  13.674  16.284   6.262 -0.0568 -0.2159  0.0943
 1269ERGO    R117212  13.810  16.439   6.455 -0.0710 -0.1576  0.0572
 1269ERGO    R217213  13.865  16.708   6.418 -0.0049 -0.1866 -0.0515
 1269ERGO    R317214  13.738  16.733   6.657 -0.0573 -0.0490 -0.0927
 1269ERGO    R417215  13.994  16.873   6.693  0.0315 -0.2141 -0.0516
 1269ERGO    R517216  13.913  16.714   6.820 -0.1136 -0.1345 -0.0391
 1269ERGO    C117217  13.949  16.993   7.078  0.0036 -0.1011 -0.0903
 1269ERGO    C217218  14.092  17.165   7.384  0.0943  0.0298 -0.0874
 1270ERGO   ROH17219  11.897  15.655   5.988 -0.0445 -0.0528 -0.0909
 1270ERGO    R117220  11.787  15.606   6.245 -0.0590  0.0103 -0.0849
 1270ERGO    R217221  11.805  15.361   6.370 -0.1435  0.0160 -0.0614
 1270ERGO    R317222  11.913  15.508   6.572 -0.0899 -0.0022 -0.0767
 1270ERGO    R417223  11.850  15.249   6.694 -0.2152  0.0432 -0.0419
 1270ERGO    R517224  11.786  15.445   6.765 -0.1315  0.0834 -0.0753
 1270ERGO    C117225  11.977  15.322   7.072 -0.2066  0.0422 -0.0449
 1270ERGO    C217226  12.070  15.154   7.283 -0.0584 -0.3134  0.0418
 1271ERGO   ROH17227   2.625  10.466   5.770  0.0956 -0.2168 -0.0991
 1271ERGO    R117228   2.611  10.296   5.996  0.2141 -0.0319  0.0508
 1271ERGO    R217229   2.678  10.380   6.250 -0.0099  0.2912  0.0106
 1271ERGO    R317230   2.429  10.289   6.311  0.0752  0.0239 -0.0281
 1271ERGO    R417231   2.564  10.315   6.570 -0.1009  0.4829  0.0189
 1271ERGO    R517232   2.464  10.137   6.493  0.1779  0.2645  0.1545
 1271ERGO    C117233   2.264  10.192   6.813 -0.0739  0.3434 -0.0125
 1271ERGO    C217234   2.272  10.135   7.213  0.3217 -0.3427 -0.1120
 1272ERGO   ROH17235   0.451   5.691   5.742  0.1453  0.0993 -0.3074
 1272ERGO    R117236   0.684   5.747   5.892  0.0687  0.0334 -0.1610
 1272ERGO    R217237   0.695   5.721   6.167 -0.0896 -0.0370 -0.1608
 1272ERGO    R317238   0.909   5.563   6.111 -0.0770 -0.0490 -0.0794
 1272ERGO    R417239   0.861   5.524   6.397 -0.1126  0.0468 -0.0718
 1272ERGO    R517240   1.049   5.582   6.304 -0.1025  0.0215 -0.0674
 1272ERGO    C117241   1.158   5.261   6.479 -0.1143  0.0843  0.0564
 1272ERGO    C217242   1.386   5.065   6.765  0.1524 -0.2864  0.2062
 1273ERGO   ROH17243  18.864  13.664   6.036 -0.0398  0.1133 -0.2103
 1273ERGO    R117244  19.000  13.697   6.282  0.1091 -0.0579 -0.2696
 1273ERGO    R217245  18.868  13.721   6.523  0.2463  0.0738 -0.2164
 1273ERGO    R317246  19.028  13.513   6.596  0.0492 -0.1117 -0.2921
 1273ERGO    R417247  18.876  13.579   6.839  0.3613  0.2091 -0.1563
 1273ERGO    R517248  19.093  13.565   6.821  0.3409 -0.0865 -0.3707
 1273ERGO    C117249  19.031  13.302   7.090  0.2433  0.1138 -0.1924
 1273ERGO    C217250  18.890  13.257   7.426 -0.0824 -0.4597 -0.2258
 1274ERGO   ROH17251   7.951  15.244   6.147  0.0725 -0.2337  0.0467
 1274ERGO    R117252   7.934  15.098   6.389  0.0171 -0.1957  0.0664
 1274ERGO    R217253   8.115  15.131   6.595  0.0184 -0.2225  0.0708
 1274ERGO    R317254   7.891  15.175   6.742  0.0248 -0.1334  0.0537
 1274ERGO    R417255   8.079  15.050   6.929 -0.0502 -0.2396  0.0590
 1274ERGO    R517256   7.875  14.984   6.886 -0.0770 -0.1411  0.0330
 1274ERGO    C117257   7.847  15.045   7.262 -0.0841 -0.1660  0.0361
 1274ERGO    C217258   7.937  15.036   7.591  0.0266 -0.1781 -0.1908
 1275ERGO   ROH17259  18.497   7.726   6.346 -0.2260 -0.2033 -0.0423
 1275ERGO    R117260  18.575   7.481   6.464  0.1416 -0.0266  0.0938
 1275ERGO    R217261  18.779   7.463   6.650 -0.0651  0.4429  0.3749
 1275ERGO    R317262  18.588   7.343   6.801 -0.0192  0.0487  0.1338
 1275ERGO    R417263  18.837   7.208   6.875  0.1345  0.3572  0.2307
 1275ERGO    R517264  18.653   7.112   6.807  0.3190  0.1313  0.0098
 1275ERGO    C117265  18.691   6.945   7.147  0.2934 -0.0626 -0.0796
 1275ERGO    C217266  18.903   7.011   7.425 -0.0135  0.1355  0.1259
 1276ERGO   ROH17267  15.077   9.539   6.075  0.1608 -0.2535 -0.0404
 1276ERGO    R117268  14.933   9.473   6.310  0.1584 -0.1324 -0.0063
 1276ERGO    R217269  14.974   9.236   6.447  0.1118 -0.0912  0.0821
 1276ERGO    R317270  15.013   9.403   6.658  0.1627 -0.0193  0.0153
 1276ERGO    R417271  15.016   9.135   6.775 -0.1480  0.0365  0.1576
 1276ERGO    R517272  14.892   9.302   6.838 -0.0235  0.1869  0.0087
 1276ERGO    C117273  15.078   9.233   7.164 -0.2518  0.1782  0.1388
 1276ERGO    C217274  15.191   9.068   7.434 -0.3769 -0.1667  0.0814
 1277ERGO   ROH17275  13.726   9.087   6.063 -0.1820 -0.1072  0.1153
 1277ERGO    R117276  13.680   9.004   6.330 -0.2126  0.0176  0.1507
 1277ERGO    R217277  13.881   8.991   6.518 -0.1799 -0.1547  0.1068
 1277ERGO    R317278  13.713   9.149   6.662  0.0300  0.0752  0.1039
 1277ERGO    R417279  13.888   9.021   6.862 -0.1255 -0.1544  0.1044
 1277ERGO    R517280  13.669   9.021   6.861 -0.1317  0.1352  0.1098
 1277ERGO    C117281  13.735   9.187   7.198  0.1033  0.0617  0.1004
 1277ERGO    C217282  13.776   9.316   7.487 -0.2852 -0.0475  0.0815
 1278ERGO   ROH17283   3.493  16.243   5.996  0.0256  0.0834 -0.0677
 1278ERGO    R117284   3.575  16.414   6.206 -0.0289 -0.0855  0.0951
 1278ERGO    R217285   3.397  16.534   6.379 -0.0818 -0.1864  0.1255
 1278ERGO    R317286   3.551  16.416   6.569 -0.1700 -0.3622  0.0876
 1278ERGO    R417287   3.407  16.630   6.711  0.2199 -0.1184  0.0986
 1278ERGO    R517288   3.623  16.598   6.708  0.1666 -0.4391  0.0095
 1278ERGO    C117289   3.557  16.574   7.083  0.3128 -0.2439  0.0473
 1278ERGO    C217290   3.644  16.744   7.361  0.2180  0.1749  0.0345
 1279ERGO   ROH17291  11.202  10.638   6.008  0.1023 -0.0581 -0.0524
 1279ERGO    R117292  11.239  10.507   6.256  0.1504 -0.0552 -0.0578
 1279ERGO    R217293  11.375  10.622   6.467  0.0157  0.0302 -0.0161
 1279ERGO    R317294  11.146  10.566   6.603  0.0280 -0.1612 -0.0715
 1279ERGO    R417295  11.360  10.534   6.801 -0.0063  0.2544  0.0439
 1279ERGO    R517296  11.207  10.387   6.750  0.1979  0.0196  0.0844
 1279ERGO    C117297  11.137  10.430   7.123 -0.0075  0.2052  0.0270
 1279ERGO    C217298  11.051  10.218   7.388 -0.1058 -0.0652 -0.1251
 1280ERGO   ROH17299  19.186   6.662   5.906 -0.0177  0.0594  0.0237
 1280ERGO    R117300  19.249   6.538   6.153  0.0250  0.0878  0.0271
 1280ERGO    R217301  19.501   6.550   6.265 -0.0239  0.3326  0.1159
 1280ERGO    R317302  19.365   6.646   6.480 -0.1992  0.1621  0.0835
 1280ERGO    R417303  19.584   6.488   6.595 -0.1618  0.2535  0.1367
 1280ERGO    R517304  19.372   6.467   6.639 -0.1730  0.1027  0.0156
 1280ERGO    C117305  19.505   6.542   6.989 -0.4066  0.0473  0.1184
 1280ERGO    C217306  19.735   6.571   7.365  0.2693  0.2897 -0.0170
 1281ERGO   ROH17307   1.388   6.533   5.633 -0.1622 -0.0176  0.0766
 1281ERGO    R117308   1.441   6.422   5.888  0.1082 -0.0780 -0.0021
 1281ERGO    R217309   1.697   6.370   5.977  0.2285  0.2375 -0.1443
 1281ERGO    R317310   1.621   6.524   6.187  0.0999  0.0233 -0.0310
 1281ERGO    R417311   1.743   6.288   6.310  0.2612  0.0159 -0.2021
 1281ERGO    R517312   1.545   6.367   6.352  0.1994 -0.1586 -0.1551
 1281ERGO    C117313   1.698   6.384   6.701  0.1595 -0.3142 -0.1294
 1281ERGO    C217314   1.803   6.203   6.958  0.1559 -0.1366 -0.0723
 1282ERGO   ROH17315  16.668  16.131   6.314 -0.2395  0.0802  0.0817
 1282ERGO    R117316  16.719  16.147   6.592 -0.2430  0.0805  0.0834
 1282ERGO    R217317  16.549  16.278   6.767 -0.3555 -0.0991  0.1144
 1282ERGO    R317318  16.554  16.039   6.898 -0.1364 -0.1185  0.0718
 1282ERGO    R417319  16.461  16.232   7.099 -0.1423 -0.2077  0.1566
 1282ERGO    R517320  16.629  16.094   7.119 -0.0456 -0.1099  0.0390
 1282ERGO    C117321  16.415  15.982   7.414  0.1875 -0.2894  0.1412
 1282ERGO    C217322  16.298  15.886   7.766  0.1224  0.0501  0.0411
 1283ERGO   ROH17323   9.217   9.987   5.366  0.0985 -0.0140  0.0898
 1283ERGO    R117324   9.264   9.941   5.641  0.0731 -0.0527  0.0867
 1283ERGO    R217325   9.263  10.144   5.828  0.0076 -0.0892  0.1189
 1283ERGO    R317326   9.079   9.986   5.952  0.0265 -0.1475  0.0748
 1283ERGO    R417327   9.144  10.195   6.148  0.1731 -0.3134  0.2192
 1283ERGO    R517328   9.153   9.979   6.180  0.1370 -0.3482  0.0396
 1283ERGO    C117329   8.902  10.076   6.452  0.2873 -0.4985  0.2363
 1283ERGO    C217330   8.563  10.054   6.684 -0.2455 -0.1285  0.3082
 1284ERGO   ROH17331  13.695   2.946   6.027 -0.0899  0.3959  0.1511
 1284ERGO    R117332  13.922   3.063   6.149 -0.1220  0.5153  0.0978
 1284ERGO    R217333  13.902   3.249   6.352 -0.1731  0.3314  0.2641
 1284ERGO    R317334  14.064   3.076   6.484  0.0830  0.3776  0.0177
 1284ERGO    R417335  14.053   3.313   6.656 -0.3030  0.1126  0.3770
 1284ERGO    R517336  14.233   3.215   6.581 -0.1391  0.4984  0.2412
 1284ERGO    C117337  14.294   3.187   6.957 -0.1384  0.0284  0.2113
 1284ERGO    C217338  14.552   3.306   7.178  0.1135 -0.1430  0.1635
 1285ERGO   ROH17339   4.081   4.777   5.706  0.1531  0.0030  0.0901
 1285ERGO    R117340   4.286   4.800   5.900  0.1134 -0.2131  0.1612
 1285ERGO    R217341   4.288   5.001   6.091  0.3617 -0.0880  0.0343
 1285ERGO    R317342   4.308   4.791   6.263 -0.0607 -0.0195  0.1781
 1285ERGO    R417343   4.426   5.017   6.407  0.5322 -0.1798 -0.0346
 1285ERGO    R517344   4.519   4.823   6.372  0.0673 -0.4329  0.0657
 1285ERGO    C117345   4.526   4.829   6.753  0.2349 -0.1689  0.0603
 1285ERGO    C217346   4.563   4.785   7.133  0.0330  0.1216  0.2912
 1286ERGO   ROH17347   2.290  14.280   6.202  0.1752  0.0225 -0.0901
 1286ERGO    R117348   2.305  14.032   6.338 -0.0178  0.0623  0.0079
 1286ERGO    R217349   2.504  13.847   6.288 -0.2598 -0.1928 -0.0487
 1286ERGO    R317350   2.543  13.865   6.557 -0.0578 -0.1129 -0.0825
 1286ERGO    R417351   2.629  13.593   6.487 -0.0375 -0.1030 -0.0716
 1286ERGO    R517352   2.484  13.649   6.640  0.0668 -0.1042  0.0238
 1286ERGO    C117353   2.738  13.463   6.855  0.2815  0.0243 -0.1166
 1286ERGO    C217354   2.945  13.344   7.103 -0.0959  0.0648  0.1644
 1287ERGO   ROH17355  16.969   9.119   5.639 -0.0032 -0.0847 -0.2239
 1287ERGO    R117356  16.906   9.234   5.890  0.1121 -0.0450 -0.2133
 1287ERGO    R217357  16.787   9.090   6.094  0.0244  0.0384 -0.2077
 1287ERGO    R317358  17.000   9.179   6.237  0.1083 -0.1292 -0.2248
 1287ERGO    R417359  16.809   9.088   6.439  0.0377  0.0455 -0.2079
 1287ERGO    R517360  16.904   9.284   6.429  0.2032 -0.0320 -0.2273
 1287ERGO    C117361  17.022   9.170   6.774  0.1242 -0.1077 -0.2240
 1287ERGO    C217362  16.901   9.099   7.028 -0.2346  0.1874 -0.1121
 1288ERGO   ROH17363  13.509  15.179   5.986  0.0286 -0.0706 -0.1212
 1288ERGO    R117364  13.419  15.027   6.207  0.0957 -0.0726 -0.0944
 1288ERGO    R217365  13.591  14.890   6.374  0.1570  0.0339 -0.0677
 1288ERGO    R317366  13.463  15.032   6.568  0.0917  0.0126 -0.0953
 1288ERGO    R417367  13.674  14.885   6.710  0.0079 -0.0423 -0.0315
 1288ERGO    R517368  13.461  14.885   6.757 -0.0117 -0.0229 -0.1247
 1288ERGO    C117369  13.602  15.015   7.087 -0.1402 -0.1066 -0.0363
 1288ERGO    C217370  13.587  15.290   7.300 -0.2208  0.0193  0.0808
 1289ERGO   ROH17371   7.684   8.996   5.911 -0.1720 -0.1898  0.1687
 1289ERGO    R117372   7.957   9.019   5.841 -0.1777 -0.0553  0.1972
 1289ERGO    R217373   8.161   8.994   6.027 -0.1884 -0.1342  0.1803
 1289ERGO    R317374   8.252   8.805   5.853 -0.1067  0.0261  0.0423
 1289ERGO    R417375   8.477   8.855   6.035 -0.2425 -0.2571  0.3322
 1289ERGO    R517376   8.481   8.865   5.817 -0.0387 -0.0057  0.3284
 1289ERGO    C117377   8.747   8.598   5.876 -0.1974 -0.1781  0.2910
 1289ERGO    C217378   8.902   8.446   6.023  0.1779  0.0152 -0.2829
 1290ERGO   ROH17379   6.745  17.782   5.345  0.0606  0.0177 -0.0740
 1290ERGO    R117380   6.734  18.014   5.507  0.0680  0.0771 -0.1564
 1290ERGO    R217381   6.497  18.143   5.566  0.0399 -0.0353  0.0010
 1290ERGO    R317382   6.580  18.110   5.823  0.2880  0.1096 -0.0589
 1290ERGO    R417383   6.441  18.368   5.823  0.2169  0.0661 -0.0490
 1290ERGO    R517384   6.644  18.329   5.894  0.2920  0.1585 -0.2188
 1290ERGO    C117385   6.488  18.467   6.213  0.5529  0.2610 -0.1343
 1290ERGO    C217386   6.275  18.651   6.419  0.3175  0.1579 -0.1695
 1291ERGO   ROH17387   1.799   4.778   5.751  0.1202  0.0827  0.0452
 1291ERGO    R117388   1.842   4.747   6.029 -0.0435 -0.0275  0.0599
 1291ERGO    R217389   1.743   4.532   6.172 -0.0991 -0.1038 -0.0887
 1291ERGO    R317390   2.003   4.503   6.246 -0.1386 -0.0947  0.0549
 1291ERGO    R417391   1.850   4.374   6.460 -0.2506 -0.1235 -0.0427
 1291ERGO    R517392   2.001   4.529   6.484 -0.2734 -0.1173  0.0561
 1291ERGO    C117393   2.157   4.255   6.697 -0.3759 -0.1266  0.1188
 1291ERGO    C217394   2.335   4.174   6.956 -0.0576  0.2003  0.1984
 1292ERGO   ROH17395   2.794  18.173   5.553 -0.0616 -0.0300  0.1849
 1292ERGO    R117396   2.759  18.168   5.834 -0.1026 -0.0339  0.1799
 1292ERGO    R217397   2.867  18.360   6.001 -0.0775 -0.0685  0.2034
 1292ERGO    R317398   2.610  18.384   6.086 -0.0836 -0.0070  0.1686
 1292ERGO    R417399   2.761  18.571   6.253 -0.0502 -0.0874  0.2309
 1292ERGO    R517400   2.628  18.413   6.323 -0.1100 -0.0617  0.1779
 1292ERGO    C117401   2.457  18.716   6.480 -0.0400 -0.0409  0.2141
 1292ERGO    C217402   2.125  18.966   6.607  0.2311  0.1731  0.0595
 1293ERGO   ROH17403   2.850  10.764   6.104 -0.0368  0.1929  0.0016
 1293ERGO    R117404   2.714  10.855   6.335  0.0278  0.3283 -0.0128
 1293ERGO    R217405   2.734  10.727   6.580 -0.2149  0.2375 -0.0382
 1293ERGO    R317406   2.806  10.975   6.666  0.1106  0.1195  0.0411
 1293ERGO    R417407   2.775  10.817   6.911 -0.1923  0.1028 -0.0040
 1293ERGO    R517408   2.679  11.007   6.867  0.0905  0.2532  0.0078
 1293ERGO    C117409   2.867  11.101   7.185  0.1266 -0.0866  0.0904
 1293ERGO    C217410   3.034  11.336   7.468  0.3156  0.1733 -0.0068
 1294ERGO   ROH17411   4.705   3.694   5.407  0.1791 -0.0830 -0.0929
 1294ERGO    R117412   4.605   3.640   5.665  0.2846 -0.0458 -0.0434
 1294ERGO    R217413   4.745   3.699   5.896  0.2461  0.2794 -0.0991
 1294ERGO    R317414   4.518   3.832   5.962  0.0848  0.0378 -0.1545
 1294ERGO    R417415   4.674   3.826   6.209  0.0994  0.3312 -0.1527
 1294ERGO    R517416   4.468   3.759   6.184  0.1755  0.0732 -0.1221
 1294ERGO    C117417   4.418   4.024   6.454 -0.1373  0.1348 -0.2357
 1294ERGO    C217418   4.511   3.911   6.741 -0.1159 -0.1642 -0.3033
 1295ERGO   ROH17419  14.731  12.602   6.000 -0.0723  0.1152 -0.0320
 1295ERGO    R117420  14.629  12.459   6.222 -0.0894  0.0353 -0.0917
 1295ERGO    R217421  14.762  12.442   6.463 -0.1142 -0.0417 -0.0845
 1295ERGO    R317422  14.527  12.535   6.563 -0.1282 -0.0861 -0.0751
 1295ERGO    R417423  14.676  12.444   6.798 -0.1549 -0.1851 -0.0933
 1295ERGO    R517424  14.474  12.385   6.741 -0.1485 -0.1640 -0.1446
 1295ERGO    C117425  14.405  12.533   7.086 -0.1918 -0.3102 -0.0896
 1295ERGO    C217426  14.189  12.680   7.302 -0.2276 -0.0668  0.0879
 1296ERGO   ROH17427  12.624   3.733   6.196 -0.1410 -0.1755 -0.0994
 1296ERGO    R117428  12.698   3.555   6.403 -0.0051 -0.2665 -0.2248
 1296ERGO    R217429  12.913   3.383   6.383  0.3248  0.1386 -0.2276
 1296ERGO    R317430  12.988   3.502   6.615 -0.0870  0.0326 -0.0283
 1296ERGO    R417431  13.071   3.222   6.644  0.6101  0.1729 -0.3742
 1296ERGO    R517432  12.947   3.336   6.783  0.2417 -0.3138 -0.2683
 1296ERGO    C117433  13.235   3.240   7.015  0.3897  0.0933 -0.2725
 1296ERGO    C217434  13.412   2.924   7.126 -0.0783  0.1755  0.0607
 1297ERGO   ROH17435  16.724   8.036   6.167  0.0202 -0.0654  0.0728
 1297ERGO    R117436  16.496   8.092   6.325 -0.0415 -0.0028 -0.0377
 1297ERGO    R217437  16.256   7.959   6.292 -0.0170 -0.0444 -0.0515
 1297ERGO    R317438  16.284   7.909   6.558 -0.1051  0.1010 -0.0140
 1297ERGO    R417439  16.032   7.780   6.485  0.0844 -0.2285 -0.1012
 1297ERGO    R517440  16.062   7.925   6.645 -0.1740 -0.1233 -0.1434
 1297ERGO    C117441  15.928   7.630   6.847  0.0608 -0.1994 -0.0949
 1297ERGO    C217442  15.782   7.548   7.178 -0.2224 -0.3063  0.0433
 1298ERGO   ROH17443  15.505   4.069   5.920  0.0488  0.1049 -0.1121
 1298ERGO    R117444  15.632   3.963   6.150 -0.0247  0.0294 -0.1059
 1298ERGO    R217445  15.604   4.076   6.400 -0.0371 -0.0037 -0.0933
 1298ERGO    R317446  15.527   3.825   6.470 -0.1241  0.0072 -0.1474
 1298ERGO    R417447  15.520   3.978   6.720 -0.0779 -0.0410 -0.1152
 1298ERGO    R517448  15.626   3.790   6.685 -0.1400 -0.0708 -0.1516
 1298ERGO    C117449  15.399   3.684   6.972 -0.1833 -0.0526 -0.1788
 1298ERGO    C217450  15.377   3.488   7.155  0.1116 -0.0863  0.1733
 1299ERGO   ROH17451   3.598  19.034   5.406 -0.0788 -0.0110  0.1103
 1299ERGO    R117452   3.651  19.242   5.591 -0.1343  0.0030  0.1104
 1299ERGO    R217453   3.599  19.218   5.861  0.0867 -0.0989  0.1438
 1299ERGO    R317454   3.861  19.287   5.885  0.0431  0.1400 -0.0338
 1299ERGO    R417455   3.745  19.341   6.149  0.2387 -0.3091  0.1587
 1299ERGO    R517456   3.858  19.481   6.026 -0.0245 -0.0334  0.2131
 1299ERGO    C117457   4.076  19.477   6.339  0.2863 -0.2072  0.0005
 1299ERGO    C217458   4.320  19.563   6.591 -0.1734  0.0779 -0.1770
 1300ERGO   ROH17459  16.206  13.868   5.690 -0.1923 -0.2645 -0.0614
 1300ERGO    R117460  16.364  13.747   5.891 -0.0778 -0.0236  0.0012
 1300ERGO    R217461  16.409  13.865   6.137 -0.1821  0.1419 -0.0486
 1300ERGO    R317462  16.313  13.629   6.232  0.0268  0.0996  0.0582
 1300ERGO    R417463  16.465  13.741   6.455  0.0247  0.2676 -0.0362
 1300ERGO    R517464  16.489  13.542   6.368  0.1350  0.2651  0.0164
 1300ERGO    C117465  16.408  13.447   6.729  0.3412  0.3012  0.0713
 1300ERGO    C217466  16.154  13.341   7.033 -0.3427  0.1486  0.2556
 1301ERGO   ROH17467  12.837   8.637   5.771  0.2113 -0.1857 -0.0736
 1301ERGO    R117468  12.694   8.634   6.016  0.1784  0.1929 -0.0826
 1301ERGO    R217469  12.773   8.481   6.231 -0.1849  0.0519 -0.0490
 1301ERGO    R317470  12.763   8.718   6.363  0.3481  0.1141 -0.0945
 1301ERGO    R417471  12.812   8.519   6.573 -0.1148  0.0237 -0.0526
 1301ERGO    R517472  12.652   8.667   6.569  0.2112  0.3985 -0.0892
 1301ERGO    C117473  12.824   8.765   6.895  0.4264  0.0659 -0.0973
 1301ERGO    C217474  12.889   8.706   7.212 -0.0080  0.0644  0.0328
 1302ERGO   ROH17475  11.979  17.810   5.901  0.1605  0.0196 -0.0449
 1302ERGO    R117476  12.007  17.672   6.147  0.1533  0.0022 -0.0554
 1302ERGO    R217477  11.857  17.735   6.371  0.1056 -0.0566 -0.0796
 1302ERGO    R317478  11.794  17.471   6.363  0.1690 -0.0729 -0.1056
 1302ERGO    R417479  11.805  17.536   6.648 -0.3204  0.0326 -0.0873
 1302ERGO    R517480  11.913  17.376   6.547 -0.1114  0.0138  0.1363
 1302ERGO    C117481  11.715  17.172   6.802 -0.5089  0.0694 -0.1160
 1302ERGO    C217482  11.559  17.004   7.164 -0.1090  0.1250  0.0779
 1303ERGO   ROH17483  12.719  14.013   5.890 -0.0088  0.2602 -0.0175
 1303ERGO    R117484  12.691  14.214   6.087 -0.1143  0.2417 -0.0120
 1303ERGO    R217485  12.450  14.272   6.208 -0.1138 -0.0062  0.1162
 1303ERGO    R317486  12.591  14.230   6.437  0.0559  0.1498  0.0419
 1303ERGO    R417487  12.407  14.450   6.501  0.0680  0.1595  0.0433
 1303ERGO    R517488  12.624  14.450   6.527  0.0871  0.2083 -0.1106
 1303ERGO    C117489  12.515  14.515   6.886  0.3334  0.4024 -0.0690
 1303ERGO    C217490  12.445  14.714   7.196 -0.2722 -0.4175  0.0435
 1304ERGO   ROH17491   2.941  12.073   5.882  0.0090  0.1245  0.0339
 1304ERGO    R117492   2.823  11.958   6.111  0.1025  0.1135  0.0767
 1304ERGO    R217493   2.910  12.014   6.367  0.1334  0.1884  0.0480
 1304ERGO    R317494   2.649  12.078   6.408  0.1156  0.0902  0.0944
 1304ERGO    R417495   2.747  11.989   6.671  0.2254  0.2145  0.1005
 1304ERGO    R517496   2.572  11.913   6.564  0.2277  0.1044  0.1688
 1304ERGO    C117497   2.406  12.034   6.886  0.2622  0.1374  0.1747
 1304ERGO    C217498   2.291  11.873   7.190 -0.3172  0.0406  0.1570
 1305ERGO   ROH17499   0.805   8.734   6.048  0.0503  0.2577 -0.2441
 1305ERGO    R117500   0.566   8.713   6.198  0.1543  0.2383 -0.0795
 1305ERGO    R217501   0.498   8.893   6.396  0.1873  0.3412 -0.1629
 1305ERGO    R317502   0.269   8.916   6.252  0.0825  0.1230 -0.0363
 1305ERGO    R417503   0.215   9.061   6.501  0.2617  0.4983 -0.2078
 1305ERGO    R517504   0.094   8.901   6.415  0.1982  0.3644  0.1160
 1305ERGO    C117505  -0.165   9.179   6.427  0.2067  0.3847 -0.1150
 1305ERGO    C217506  -0.294   9.307   6.184  0.0090 -0.0784  0.1099
 1306ERGO   ROH17507   8.755   1.658   5.062  0.2448 -0.2370 -0.0937
 1306ERGO    R117508   8.913   1.794   5.254  0.0329  0.0015 -0.0833
 1306ERGO    R217509   8.803   1.955   5.450 -0.2282 -0.2257 -0.0410
 1306ERGO    R317510   8.947   1.794   5.616  0.0719 -0.0127 -0.0861
 1306ERGO    R417511   8.885   2.031   5.777 -0.1324 -0.0438 -0.1060
 1306ERGO    R517512   9.083   1.946   5.743 -0.0396  0.1918 -0.2014
 1306ERGO    C117513   9.068   1.925   6.123  0.2052  0.2621 -0.1861
 1306ERGO    C217514   9.231   2.099   6.412 -0.2980  0.0146  0.1994
 1307ERGO   ROH17515   7.914   7.789   5.522 -0.2584 -0.0938  0.0152
 1307ERGO    R117516   8.061   7.746   5.760 -0.1642 -0.0887 -0.0443
 1307ERGO    R217517   8.140   7.953   5.926 -0.2981 -0.1108  0.0287
 1307ERGO    R317518   8.012   7.806   6.116 -0.1202 -0.3073  0.0035
 1307ERGO    R417519   8.150   8.017   6.266 -0.4428 -0.0828  0.0302
 1307ERGO    R517520   8.164   7.802   6.301 -0.1307 -0.0787  0.0312
 1307ERGO    C117521   8.035   7.916   6.641 -0.3602 -0.2510  0.0073
 1307ERGO    C217522   8.174   7.910   7.011 -0.3126  0.0405 -0.1398
 1308ERGO   ROH17523   3.813   0.702   5.274  0.0699 -0.0450 -0.1324
 1308ERGO    R117524   3.621   0.838   5.432 -0.2299 -0.3084 -0.2606
 1308ERGO    R217525   3.398   0.712   5.536  0.2805 -0.8441  0.2462
 1308ERGO    R317526   3.492   0.811   5.772  0.2124  0.0258 -0.0521
 1308ERGO    R417527   3.203   0.778   5.813  0.3018 -0.7174  0.2332
 1308ERGO    R517528   3.319   0.960   5.846 -0.1745 -0.2651 -0.3059
 1308ERGO    C117529   3.176   0.908   6.196  0.2503  0.1731 -0.0543
 1308ERGO    C217530   3.018   0.826   6.506 -0.0615  0.0738  0.1556
 1309ERGO   ROH17531  17.121  12.731   6.292  0.1554 -0.0005 -0.1640
 1309ERGO    R117532  16.939  12.716   6.509  0.0730 -0.0712 -0.2368
 1309ERGO    R217533  16.790  12.490   6.562  0.1385 -0.1322 -0.2963
 1309ERGO    R317534  16.902  12.514   6.809  0.0328 -0.0857 -0.2526
 1309ERGO    R417535  16.710  12.294   6.835  0.0389 -0.0891 -0.2944
 1309ERGO    R517536  16.721  12.472   6.960 -0.0248 -0.0708 -0.3201
 1309ERGO    C117537  16.768  12.202   7.226 -0.1183 -0.0205 -0.2522
 1309ERGO    C217538  16.506  12.043   7.381 -0.0438 -0.2514 -0.2598
 1310ERGO   ROH17539  15.020  17.520   6.123 -0.0295 -0.0994 -0.0685
 1310ERGO    R117540  15.032  17.390   6.374  0.0390 -0.1211 -0.0835
 1310ERGO    R217541  15.268  17.359   6.514  0.0566 -0.0334 -0.1004
 1310ERGO    R317542  15.128  17.480   6.714  0.0160 -0.1181 -0.0764
 1310ERGO    R417543  15.297  17.282   6.850  0.2214  0.0259 -0.0996
 1310ERGO    R517544  15.081  17.303   6.868  0.2034 -0.1443 -0.0404
 1310ERGO    C117545  15.182  17.350   7.232  0.2793 -0.0193 -0.0766
 1310ERGO    C217546  15.327  17.243   7.480 -0.1728 -0.1556 -0.0397
 1311ERGO   ROH17547   2.743   4.006   5.730  0.4710 -0.1638  0.0650
 1311ERGO    R117548   2.628   3.863   5.946  0.2256  0.0287  0.0670
 1311ERGO    R217549   2.629   3.587   5.960 -0.1008  0.0276  0.1485
 1311ERGO    R317550   2.745   3.631   6.202 -0.1346 -0.0391  0.1768
 1311ERGO    R417551   2.575   3.396   6.243 -0.0562 -0.1224  0.0568
 1311ERGO    R517552   2.573   3.580   6.360 -0.1308 -0.1735  0.1404
 1311ERGO    C117553   2.651   3.327   6.634 -0.0620 -0.2723  0.0300
 1311ERGO    C217554   2.775   3.099   6.741  0.0806  0.0868  0.1635
 1312ERGO   ROH17555   1.751  15.129   6.498 -0.3193  0.0249  0.2611
 1312ERGO    R117556   1.754  15.105   6.781 -0.1567 -0.0164  0.2576
 1312ERGO    R217557   1.943  14.955   6.915 -0.0076  0.0536  0.1369
 1312ERGO    R317558   1.984  15.187   7.050 -0.0501  0.0560  0.1447
 1312ERGO    R417559   2.075  14.977   7.234  0.0604  0.0780  0.1066
 1312ERGO    R517560   1.930  15.134   7.278  0.0227  0.0257  0.1522
 1312ERGO    C117561   2.191  15.208   7.546  0.0601  0.0944  0.0962
 1312ERGO    C217562   2.175  15.334   7.793 -0.1459  0.5224  0.1359
 1313ERGO   ROH17563  10.301   7.757   5.686 -0.2595  0.0619 -0.0994
 1313ERGO    R117564  10.501   7.838   5.870 -0.2097 -0.0328 -0.1102
 1313ERGO    R217565  10.601   8.096   5.877 -0.0687 -0.0842 -0.1299
 1313ERGO    R317566  10.529   8.082   6.139 -0.0709 -0.0285 -0.1283
 1313ERGO    R417567  10.747   8.278   6.132  0.0115 -0.1203 -0.1508
 1313ERGO    R517568  10.735   8.100   6.258 -0.0613 -0.1032 -0.1338
 1313ERGO    C117569  10.764   8.370   6.526  0.0561 -0.0891 -0.1615
 1313ERGO    C217570  10.709   8.584   6.858 -0.1563 -0.0383 -0.1191
 1314ERGO   ROH17571  18.821   4.605   6.381 -0.0927  0.0136 -0.1493
 1314ERGO    R117572  18.633   4.501   6.565  0.0053 -0.0635 -0.0919
 1314ERGO    R217573  18.376   4.599   6.586  0.0028 -0.0998  0.0575
 1314ERGO    R317574  18.308   4.338   6.547  0.0159 -0.0966  0.0115
 1314ERGO    R417575  18.106   4.441   6.734 -0.0611 -0.1086 -0.0665
 1314ERGO    R517576  18.231   4.264   6.762 -0.0748 -0.1111 -0.0259
 1314ERGO    C117577  17.885   4.105   6.784 -0.0859 -0.1106 -0.1818
 1314ERGO    C217578  17.623   3.847   6.921 -0.2643 -0.0966  0.1853
 1315ERGO   ROH17579  13.607   7.181   5.617  0.0671  0.0463  0.1629
 1315ERGO    R117580  13.489   7.136   5.870  0.0303  0.0169  0.1406
 1315ERGO    R217581  13.514   6.897   6.006  0.0663  0.0238  0.1464
 1315ERGO    R317582  13.605   7.057   6.206 -0.0130  0.0483  0.1631
 1315ERGO    R417583  13.537   6.804   6.338  0.1153 -0.0009  0.1361
 1315ERGO    R517584  13.466   7.002   6.394  0.0154 -0.0424  0.1581
 1315ERGO    C117585  13.636   6.900   6.719  0.0693  0.0077  0.1458
 1315ERGO    C217586  13.689   7.021   7.092  0.1291 -0.2455  0.0084
 1316ERGO   ROH17587   0.136   3.176   6.052  0.0340  0.0014 -0.1157
 1316ERGO    R117588   0.333   3.140   6.252  0.0589 -0.0600 -0.1515
 1316ERGO    R217589   0.513   3.338   6.321 -0.0218 -0.0338 -0.0187
 1316ERGO    R317590   0.417   3.293   6.571  0.0108 -0.2546 -0.0435
 1316ERGO    R417591   0.673   3.431   6.612 -0.1151 -0.0330  0.0330
 1316ERGO    R517592   0.612   3.240   6.700  0.0594 -0.1397 -0.0667
 1316ERGO    C117593   0.677   3.442   7.017 -0.1388 -0.2398  0.0398
 1316ERGO    C217594   0.822   3.612   7.344 -0.1876 -0.0427  0.0761
 1317ERGO   ROH17595   6.082   6.193   5.077 -0.1774  0.0076  0.0063
 1317ERGO    R117596   6.053   6.265   5.349 -0.2318 -0.0488  0.0151
 1317ERGO    R217597   5.855   6.160   5.511 -0.0794 -0.3117  0.0335
 1317ERGO    R317598   6.065   6.095   5.670  0.0264 -0.0600  0.0023
 1317ERGO    R417599   5.848   6.158   5.856 -0.0264 -0.3166  0.0350
 1317ERGO    R517600   6.048   6.244   5.856 -0.1257 -0.0757  0.0036
 1317ERGO    C117601   6.041   6.096   6.207  0.1037 -0.0832  0.0066
 1317ERGO    C217602   6.090   6.173   6.501 -0.0988  0.2607  0.0344
 1318ERGO   ROH17603  12.148  10.135   5.242  0.0726 -0.0390  0.0258
 1318ERGO    R117604  12.250  10.268   5.470  0.0035  0.0039  0.0332
 1318ERGO    R217605  12.087  10.364   5.671 -0.0565 -0.0176  0.0044
 1318ERGO    R317606  12.249  10.214   5.830 -0.0455  0.0277  0.0343
 1318ERGO    R417607  12.163  10.436   6.001  0.0065  0.0805 -0.0317
 1318ERGO    R517608  12.368  10.374   5.962 -0.0122  0.0535 -0.0382
 1318ERGO    C117609  12.359  10.337   6.342  0.0536  0.1800 -0.0246
 1318ERGO    C217610  12.322  10.253   6.683  0.1095 -0.1152  0.0379
 1319ERGO   ROH17611   5.944   7.432   5.515  0.1273 -0.0770 -0.0467
 1319ERGO    R117612   5.899   7.491   5.789  0.0030  0.0833 -0.0998
 1319ERGO    R217613   5.976   7.320   5.991 -0.2727  0.1047  0.0274
 1319ERGO    R317614   6.104   7.541   6.086 -0.1408  0.0371  0.0078
 1319ERGO    R417615   6.047   7.379   6.325 -0.4470  0.1996  0.0486
 1319ERGO    R517616   5.993   7.589   6.293 -0.2409  0.2337 -0.0886
 1319ERGO    C117617   6.208   7.621   6.607 -0.4245  0.1914  0.0427
 1319ERGO    C217618   6.358   7.367   6.943  0.3186  0.3431 -0.0971
 1320ERGO   ROH17619   3.386   1.788   5.272 -0.0277 -0.2442  0.2234
 1320ERGO    R117620   3.521   1.776   5.521 -0.1402 -0.2207  0.2856
 1320ERGO    R217621   3.676   1.984   5.616  0.1315 -0.3592  0.1543
 1320ERGO    R317622   3.516   1.960   5.834  0.0100  0.0740  0.1180
 1320ERGO    R417623   3.759   2.089   5.935  0.1583 -0.1932  0.0935
 1320ERGO    R517624   3.665   1.909   6.014 -0.1378  0.0138  0.2227
 1320ERGO    C117625   3.656   2.129   6.325  0.0599  0.3102  0.0240
 1320ERGO    C217626   3.796   2.215   6.625 -0.0897 -0.3132  0.0392
 1321ERGO   ROH17627  12.096   4.613   5.991 -0.2994  0.1492 -0.0723
 1321ERGO    R117628  12.232   4.604   6.239 -0.1053  0.0705 -0.1803
 1321ERGO    R217629  12.132   4.721   6.468  0.1126  0.0684 -0.0837
 1321ERGO    R317630  12.167   4.472   6.572  0.1177  0.0428 -0.1454
 1321ERGO    R417631  12.171   4.651   6.804  0.3957  0.0173 -0.1244
 1321ERGO    R517632  12.322   4.503   6.751  0.2961 -0.0331 -0.2824
 1321ERGO    C117633  12.226   4.376   7.097  0.5655 -0.0364 -0.2059
 1321ERGO    C217634  12.259   4.331   7.382  0.0003  0.2099  0.1424
 1322ERGO   ROH17635   4.546   5.045   5.565 -0.1220 -0.0348  0.1271
 1322ERGO    R117636   4.641   5.263   5.719 -0.1311 -0.0209  0.1138
 1322ERGO    R217637   4.628   5.267   5.995  0.0270 -0.0803  0.1239
 1322ERGO    R317638   4.895   5.315   5.974 -0.0054  0.0437 -0.0228
 1322ERGO    R417639   4.830   5.377   6.254  0.1128  0.0369  0.0084
 1322ERGO    R517640   4.932   5.507   6.112 -0.0234  0.0734 -0.0588
 1322ERGO    C117641   5.197   5.485   6.385  0.1324  0.2215 -0.1966
 1322ERGO    C217642   5.355   5.241   6.616  0.1229 -0.0712  0.4353
 1323ERGO   ROH17643   6.714  16.313   6.140  0.1320  0.0706  0.0639
 1323ERGO    R117644   6.552  16.416   6.348  0.0562  0.0391  0.0209
 1323ERGO    R217645   6.396  16.254   6.509  0.0861  0.0029  0.0155
 1323ERGO    R317646   6.530  16.380   6.709  0.0051  0.0798  0.0218
 1323ERGO    R417647   6.295  16.262   6.839 -0.1216  0.2527 -0.0509
 1323ERGO    R517648   6.358  16.471   6.848 -0.0494  0.2345 -0.1449
 1323ERGO    C117649   6.362  16.385   7.220 -0.3186  0.4702 -0.0838
 1323ERGO    C217650   6.193  16.452   7.530  0.0664  0.0205 -0.1395
 1324ERGO   ROH17651  16.723   4.987   5.899  0.2109  0.1721 -0.0602
 1324ERGO    R117652  16.755   4.964   6.179  0.2242  0.0276 -0.0735
 1324ERGO    R217653  16.989   4.873   6.295  0.3162  0.1986 -0.1258
 1324ERGO    R317654  16.973   5.107   6.433  0.0658  0.0978  0.0251
 1324ERGO    R417655  17.110   4.922   6.615  0.4001  0.1631 -0.1513
 1324ERGO    R517656  16.932   5.040   6.659  0.2583 -0.0995  0.0055
 1324ERGO    C117657  17.166   5.169   6.931  0.2140  0.0478 -0.0244
 1324ERGO    C217658  17.405   5.326   7.200  0.0398 -0.1994  0.1379
 1325ERGO   ROH17659   1.578   3.083   5.570 -0.0374  0.0396  0.0548
 1325ERGO    R117660   1.517   3.230   5.803  0.0457  0.0709  0.0566
 1325ERGO    R217661   1.429   3.110   6.037  0.0185  0.1151  0.0642
 1325ERGO    R317662   1.639   3.245   6.146  0.0818  0.0319  0.0473
 1325ERGO    R417663   1.445   3.220   6.364 -0.0358  0.3286 -0.0029
 1325ERGO    R517664   1.537   3.404   6.293  0.1362  0.2156 -0.1016
 1325ERGO    C117665   1.651   3.409   6.658 -0.0080  0.3748 -0.0578
 1325ERGO    C217666   1.587   3.622   6.917 -0.5407 -0.1527 -0.1608
 1326ERGO   ROH17667   5.528   2.066   5.164 -0.1549  0.0069  0.0793
 1326ERGO    R117668   5.669   2.098   5.407 -0.1898  0.1041  0.0865
 1326ERGO    R217669   5.543   2.161   5.646 -0.2749 -0.1845  0.1197
 1326ERGO    R317670   5.671   1.939   5.734  0.0554 -0.0423  0.0172
 1326ERGO    R417671   5.642   2.107   5.972 -0.0805 -0.1355  0.0706
 1326ERGO    R517672   5.827   2.020   5.897  0.0114  0.1257 -0.0210
 1326ERGO    C117673   5.820   1.866   6.246  0.3428  0.0266 -0.0543
 1326ERGO    C217674   5.742   1.914   6.553 -0.0741 -0.0458  0.2434
 1327ERGO   ROH17675  12.547   6.626   5.709  0.1307  0.0242  0.0010
 1327ERGO    R117676  12.534   6.724   5.974  0.1469  0.0703 -0.0142
 1327ERGO    R217677  12.409   6.962   6.039  0.0957  0.0547 -0.0376
 1327ERGO    R317678  12.271   6.805   6.213  0.1619  0.0487  0.0082
 1327ERGO    R417679  12.251   7.076   6.325  0.2463  0.0308  0.0550
 1327ERGO    R517680  12.322   6.897   6.428  0.2745  0.0114 -0.0043
 1327ERGO    C117681  12.030   6.994   6.655  0.3960  0.0113  0.1518
 1327ERGO    C217682  11.924   6.970   6.932  0.4883 -0.0513 -0.0699
 1328ERGO   ROH17683   5.400  14.713   6.060  0.0620  0.1963 -0.0967
 1328ERGO    R117684   5.327  14.842   6.301  0.1299  0.0706 -0.0068
 1328ERGO    R217685   5.157  14.728   6.485  0.0131  0.0590 -0.1158
 1328ERGO    R317686   5.362  14.778   6.657  0.0322 -0.2319 -0.0500
 1328ERGO    R417687   5.131  14.719   6.830 -0.1943  0.4070 -0.1185
 1328ERGO    R517688   5.259  14.896   6.839  0.1830  0.1470 -0.2050
 1328ERGO    C117689   5.308  14.761   7.192 -0.2971  0.3365 -0.0583
 1328ERGO    C217690   5.483  14.640   7.455 -0.3634 -0.2251 -0.0441
 1329ERGO   ROH17691   0.618  12.451   6.016  0.0088  0.2373 -0.2114
 1329ERGO    R117692   0.455  12.634   6.157 -0.0827  0.0570 -0.0797
 1329ERGO    R217693   0.395  12.605   6.426  0.1314 -0.0344 -0.0414
 1329ERGO    R317694   0.493  12.858   6.442 -0.1142  0.0665 -0.0825
 1329ERGO    R417695   0.371  12.809   6.703  0.1289 -0.0980  0.0057
 1329ERGO    R517696   0.330  12.977   6.571 -0.1434 -0.1180  0.0564
 1329ERGO    C117697   0.449  13.165   6.880 -0.1031 -0.0404 -0.0055
 1329ERGO    C217698   0.300  13.390   7.008 -0.1974 -0.1992  0.2009
 1330ERGO   ROH17699  19.239  10.430   5.814  0.0524 -0.1167  0.0214
 1330ERGO    R117700  19.147  10.577   6.037  0.0588 -0.0456 -0.0218
 1330ERGO    R217701  18.885  10.566   6.126  0.0399  0.0382 -0.0527
 1330ERGO    R317702  19.002  10.501   6.362 -0.0031  0.0566 -0.0268
 1330ERGO    R417703  18.756  10.641   6.438 -0.0551 -0.0306 -0.0752
 1330ERGO    R517704  18.958  10.688   6.504 -0.0932  0.0249 -0.0204
 1330ERGO    C117705  18.791  10.623   6.841 -0.1506 -0.0532 -0.0640
 1330ERGO    C217706  18.843  10.700   7.220 -0.0915  0.0020  0.0711
 1331ERGO   ROH17707  10.885  15.642   6.382 -0.1753  0.2358  0.1584
 1331ERGO    R117708  10.775  15.627   6.642 -0.0895 -0.0111  0.1833
 1331ERGO    R217709  10.852  15.434   6.825  0.1560 -0.0340  0.0624
 1331ERGO    R317710  10.901  15.650   6.983 -0.0157 -0.0645  0.1596
 1331ERGO    R417711  10.970  15.419   7.149  0.0620 -0.0850  0.0948
 1331ERGO    R517712  10.833  15.580   7.202 -0.0452 -0.1827  0.1124
 1331ERGO    C117713  11.086  15.612   7.487 -0.1540 -0.1433  0.2049
 1331ERGO    C217714  11.356  15.692   7.671  0.2500  0.0613  0.0495
 1332ERGO   ROH17715  10.343   4.232   5.446  0.0745  0.0145 -0.0451
 1332ERGO    R117716  10.223   4.348   5.674 -0.0330  0.0984 -0.1401
 1332ERGO    R217717   9.949   4.357   5.709 -0.0584  0.0056 -0.2124
 1332ERGO    R317718  10.007   4.235   5.945 -0.0540  0.1586 -0.1365
 1332ERGO    R417719   9.721   4.300   5.962  0.0157  0.3689 -0.0599
 1332ERGO    R517720   9.875   4.354   6.107  0.1047  0.3740 -0.1750
 1332ERGO    C117721   9.642   4.152   6.331  0.0631  0.7240  0.1001
 1332ERGO    C217722   9.478   4.219   6.595  0.0332 -0.0550 -0.1078
 1333ERGO   ROH17723  13.695  13.025   5.972  0.0711  0.4237  0.0163
 1333ERGO    R117724  13.591  13.052   6.234  0.0144  0.3245  0.0057
 1333ERGO    R217725  13.598  12.847   6.419 -0.0509  0.2411 -0.0753
 1333ERGO    R317726  13.722  13.034   6.573 -0.0614  0.1650  0.0252
 1333ERGO    R417727  13.653  12.818   6.759  0.1492 -0.0228 -0.1266
 1333ERGO    R517728  13.602  13.029   6.780  0.0578 -0.0710  0.0865
 1333ERGO    C117729  13.800  12.977   7.102  0.2558 -0.2480 -0.0621
 1333ERGO    C217730  13.855  13.216   7.318 -0.4240 -0.1921  0.1018
 1334ERGO   ROH17731  12.101  11.860   5.775 -0.1304  0.0071 -0.1523
 1334ERGO    R117732  12.004  11.914   6.035 -0.1009 -0.0568 -0.1296
 1334ERGO    R217733  11.943  11.714   6.215  0.2699 -0.0910 -0.0470
 1334ERGO    R317734  12.113  11.852   6.376  0.1343  0.2090 -0.1502
 1334ERGO    R417735  11.911  11.741   6.558  0.2572  0.0949 -0.0602
 1334ERGO    R517736  11.970  11.950   6.542  0.0261  0.1625 -0.2050
 1334ERGO    C117737  12.052  11.886   6.909  0.1224  0.4849 -0.1648
 1334ERGO    C217738  11.981  11.734   7.259 -0.2345 -0.1075 -0.0753
 1335ERGO   ROH17739  13.216   4.985   5.822 -0.1057  0.1423 -0.0313
 1335ERGO    R117740  13.174   4.881   6.082  0.0043  0.0990 -0.0315
 1335ERGO    R217741  13.371   4.749   6.224  0.0593  0.0699 -0.1437
 1335ERGO    R317742  13.313   4.934   6.414  0.1490  0.0349 -0.0797
 1335ERGO    R417743  13.381   4.693   6.565  0.1285 -0.0295 -0.1606
 1335ERGO    R517744  13.200   4.811   6.585  0.1579  0.0118 -0.0858
 1335ERGO    C117745  13.332   4.834   6.942  0.2529 -0.1202 -0.1103
 1335ERGO    C217746  13.401   4.938   7.240  0.0627  0.1353  0.0906
 1336ERGO   ROH17747   7.455  18.656   5.318 -0.0083  0.0881 -0.0468
 1336ERGO    R117748   7.383  18.665   5.592 -0.0242  0.1346 -0.0530
 1336ERGO    R217749   7.570  18.665   5.795 -0.0401  0.0699 -0.0419
 1336ERGO    R317750   7.438  18.890   5.872  0.0471  0.1291 -0.0611
 1336ERGO    R417751   7.672  18.877   6.048 -0.1184 -0.1264  0.1586
 1336ERGO    R517752   7.464  18.895   6.110 -0.1702 -0.0076 -0.0284
 1336ERGO    C117753   7.608  19.212   6.268 -0.0822 -0.1853  0.2573
 1336ERGO    C217754   7.826  19.443   6.345  0.1312 -0.1430 -0.3719
 1337ERGO   ROH17755  14.040  18.802   6.104  0.0901 -0.0082  0.1096
 1337ERGO    R117756  13.995  18.831   6.382 -0.0782 -0.0569  0.0874
 1337ERGO    R217757  13.749  18.788   6.498 -0.0892 -0.3158 -0.0381
 1337ERGO    R317758  13.889  18.618   6.657  0.0090 -0.1707  0.0354
 1337ERGO    R417759  13.700  18.749   6.838 -0.1342 -0.2578 -0.0367
 1337ERGO    R517760  13.917  18.737   6.863 -0.1234 -0.0892  0.0115
 1337ERGO    C117761  13.804  18.567   7.185 -0.0683 -0.0877  0.0333
 1337ERGO    C217762  13.669  18.233   7.419  0.2471 -0.4540 -0.1116
 1338ERGO   ROH17763   3.056   4.976   6.598 -0.1376 -0.0885  0.0578
 1338ERGO    R117764   3.254   4.991   6.800 -0.2063 -0.0539  0.1219
 1338ERGO    R217765   3.494   5.123   6.765 -0.0924 -0.2729  0.0908
 1338ERGO    R317766   3.418   5.253   6.991 -0.0776 -0.0022 -0.0556
 1338ERGO    R417767   3.709   5.287   6.978  0.0072 -0.4949  0.1651
 1338ERGO    R517768   3.595   5.209   7.147 -0.2760 -0.2038  0.1242
 1338ERGO    C117769   3.764   5.506   7.315  0.0792 -0.3701  0.0709
 1338ERGO    C217770   4.096   5.592   7.487  0.1486 -0.1207  0.0070
 1339ERGO   ROH17771  16.006   7.657   6.042 -0.1217  0.1161 -0.1832
 1339ERGO    R117772  15.889   7.447   6.191 -0.0126  0.0813 -0.1449
 1339ERGO    R217773  16.038   7.266   6.337  0.0825  0.1893 -0.1048
 1339ERGO    R317774  15.877   7.346   6.541  0.0343  0.1438 -0.1254
 1339ERGO    R417775  16.014   7.109   6.644 -0.0108  0.1081 -0.1534
 1339ERGO    R517776  15.799   7.142   6.638 -0.0057  0.1236 -0.2012
 1339ERGO    C117777  15.848   7.092   7.013 -0.1102  0.0181 -0.2011
 1339ERGO    C217778  16.000   6.900   7.296 -0.0214  0.0730  0.1201
 1340ERGO   ROH17779  16.092  15.338   6.104 -0.3276  0.0421 -0.2151
 1340ERGO    R117780  15.929  15.287   6.330 -0.2516 -0.0525 -0.1809
 1340ERGO    R217781  16.022  15.158   6.555 -0.1545 -0.0781 -0.2361
 1340ERGO    R317782  15.928  15.379   6.682 -0.1794 -0.1320 -0.1595
 1340ERGO    R417783  15.932  15.172   6.889 -0.1561 -0.2038 -0.2307
 1340ERGO    R517784  15.762  15.295   6.832 -0.1703 -0.2032 -0.1883
 1340ERGO    C117785  15.791  15.387   7.201 -0.1806 -0.3278 -0.1557
 1340ERGO    C217786  15.544  15.438   7.523  0.1170  0.3871 -0.0426
 1341ERGO   ROH17787   9.507  15.126   6.213 -0.0643 -0.1380  0.3679
 1341ERGO    R117788   9.674  15.094   6.439  0.1027 -0.2134  0.2365
 1341ERGO    R217789   9.897  14.930   6.438  0.1423 -0.1661  0.0002
 1341ERGO    R317790  10.023  15.156   6.521  0.1469 -0.1772  0.0197
 1341ERGO    R417791  10.240  14.969   6.461  0.1527 -0.0701 -0.2794
 1341ERGO    R517792  10.210  15.077   6.647  0.2842 -0.1897 -0.1921
 1341ERGO    C117793  10.558  15.203   6.553  0.1632 -0.0245 -0.4238
 1341ERGO    C217794  10.865  15.144   6.374  0.1143 -0.0894  0.0608
 1342ERGO   ROH17795  12.071   2.223   5.884 -0.1960  0.1828 -0.1157
 1342ERGO    R117796  11.976   2.339   6.125 -0.0124  0.1219 -0.0105
 1342ERGO    R217797  11.812   2.203   6.301 -0.1303  0.1767 -0.0651
 1342ERGO    R317798  12.005   2.269   6.481 -0.0055 -0.1674 -0.0676
 1342ERGO    R417799  11.778   2.182   6.644 -0.2240  0.4246 -0.0581
 1342ERGO    R517800  11.885   2.371   6.662  0.1978  0.1924 -0.1346
 1342ERGO    C117801  11.939   2.232   7.013 -0.1613  0.2459 -0.0563
 1342ERGO    C217802  12.058   2.063   7.268  0.0614  0.1486  0.1004
 1343ERGO   ROH17803   9.341   3.730   5.040  0.1322 -0.0281 -0.0517
 1343ERGO    R117804   9.333   3.683   5.319  0.1602 -0.0463 -0.0542
 1343ERGO    R217805   9.146   3.801   5.485  0.1858 -0.0478 -0.0268
 1343ERGO    R317806   9.097   3.544   5.558  0.1791 -0.0493 -0.0365
 1343ERGO    R417807   9.133   3.686   5.811  0.0230 -0.0244 -0.0241
 1343ERGO    R517808   9.238   3.506   5.747  0.0823 -0.0166  0.0449
 1343ERGO    C117809   9.079   3.377   6.068 -0.0781 -0.0122 -0.0316
 1343ERGO    C217810   8.903   3.337   6.295 -0.3054  0.2219  0.0157
 1344ERGO   ROH17811   3.726  13.066   7.652  0.0811 -0.0261  0.1595
 1344ERGO    R117812   3.943  12.885   7.629  0.1367  0.0608 -0.0157
 1344ERGO    R217813   3.950  12.644   7.764  0.3817  0.1035  0.0486
 1344ERGO    R317814   3.990  12.543   7.515  0.1639  0.0477  0.0334
 1344ERGO    R417815   4.088  12.335   7.697  0.4782  0.1564 -0.0014
 1344ERGO    R517816   4.198  12.425   7.532  0.2505  0.1666 -0.1544
 1344ERGO    C117817   4.206  12.059   7.424  0.3299  0.1348 -0.0447
 1344ERGO    C217818   4.260  11.815   7.114 -0.0992  0.1571  0.1719
 1345W        W17819  14.263   8.580   1.783  0.3814  0.2541  0.0410
 1346W        W17820   0.660  15.429  14.496  0.2630 -0.0713 -0.1154
 1347W        W17821  19.081  11.926   3.843  0.0431 -0.2357  0.1075
 1348W        W17822   1.978   7.821  11.638  0.2501  0.0242  0.3587
 1349W        W17823  14.381  16.379   1.423  0.0355 -0.1539 -0.0895
 1350W        W17824   2.318   5.449  11.931  0.2284  0.0498 -0.0112
 1351W        W17825  17.822   7.055   4.886  0.2185  0.0849  0.0569
 1352W        W17826   7.713   8.384   2.416  0.2613  0.0571  0.1987
 1353W        W17827   7.318   1.903  14.135 -0.0235  0.1345  0.0083
 1354W        W17828  17.907  15.928   3.641 -0.1187 -0.3786 -0.0269
 1355W        W17829  16.092   8.101   1.966  0.1793  0.0396 -0.1615
 1356W        W17830  10.130   8.525  13.555  0.0253  0.0561  0.1986
 1357W        W17831  11.328  18.361   0.397  0.3589  0.1988 -0.2074
 1358W        W17832  12.811   1.145   1.015  0.1381  0.0449 -0.2103
 1359W        W17833  18.411  11.508  14.740 -0.0425 -0.0969  0.2269
 1360W        W17834   9.922   8.510   3.583  0.1744 -0.1801 -0.1589
 1361W        W17835   7.324  15.900  12.990  0.3816  0.0344 -0.0371
 1362W        W17836  10.674  12.724   1.156 -0.0479 -0.0774 -0.2042
 1363W        W17837  10.695  18.454   2.631 -0.1895  0.1010  0.0578
 1364W        W17838  12.957   2.033   0.756 -0.0292  0.1109  0.1638
 1365W        W17839  14.337  15.078  11.919 -0.0229 -0.1399  0.0522
 1366W        W17840  15.190  14.482   4.345 -0.2962 -0.2290 -0.0520
 1367W        W17841  14.973  12.323   2.389  0.2329  0.0598  0.2403
 1368W        W17842   5.754  14.880   0.954 -0.0014  0.3157  0.5286
 1369W        W17843  16.670  13.782  14.565  0.0695  0.1055 -0.1542
 1370W        W17844  10.303  11.139   0.319  0.1071  0.1220 -0.1965
 1371W        W17845   8.217  13.603   2.881 -0.1825  0.1854  0.2205
 1372W        W17846   0.390   7.652   2.018  0.1052  0.3325 -0.2306
 1373W        W17847   1.447  11.227  11.234  0.1341 -0.2841 -0.0600
 1374W        W17848  13.661  11.035  11.565 -0.1820  0.0514 -0.0966
 1375W        W17849   8.253   1.088   0.467  0.2636  0.1938 -0.0177
 1376W        W17850  17.556   0.884  13.409 -0.1502  0.0187  0.3735
 1377W        W17851   5.142   0.840   2.826  0.0961  0.1079  0.2199
 1378W        W17852  11.943  13.759   4.667  0.2819  0.3696  0.1364
 1379W        W17853  15.212   7.775   0.224  0.2845 -0.0576 -0.2324
 1380W        W17854   6.456  14.778   0.161  0.1351 -0.1162 -0.2404
 1381W        W17855  10.644  16.625   4.201  0.1714  0.1282  0.2253
 1382W        W17856   2.799  15.379   5.877 -0.3318 -0.0868 -0.0739
 1383W        W17857  12.481   4.262   1.710 -0.2664  0.1229 -0.3055
 1384W        W17858  12.702  15.667  13.709 -0.2625  0.1030  0.4192
 1385W        W17859  10.729   7.010   0.606 -0.1847 -0.1014 -0.1147
 1386W        W17860  12.470   8.129   9.849 -0.1433 -0.5878 -0.2504
 1387W        W17861  11.243   2.014   1.237 -0.0678 -0.1639  0.1498
 1388W        W17862   9.731  12.134  11.392 -0.0293 -0.0461 -0.0369
 1389W        W17863   3.869   7.280  10.417  0.1068 -0.4276 -0.2401
 1390W        W17864  16.193  16.554   2.123  0.1452 -0.1032  0.2583
 1391W        W17865  19.278   3.198  14.127 -0.1705 -0.1316 -0.1512
 1392W        W17866  18.910  11.595  14.041 -0.2492  0.3851 -0.2526
 1393W        W17867  18.307   2.938   2.717  0.1095  0.0193  0.0154
 1394W        W17868  16.228   8.047   0.336 -0.2328 -0.1356  0.1671
 1395W        W17869  11.284  14.477   3.701 -0.0834 -0.2695 -0.0318
 1396W        W17870   6.688   7.252  12.311  0.0275 -0.0264 -0.0064
 1397W        W17871   2.500   3.907   9.526  0.1600  0.1064 -0.0163
 1398W        W17872  10.672   7.119  10.938  0.0191 -0.2631 -0.0328
 1399W        W17873   1.230   9.088  13.366 -0.1475 -0.3624  0.1387
 1400W        W17874  10.260   4.219  13.477  0.0564  0.3137 -0.0804
 1401W        W17875   0.271  10.001  14.731 -0.2932  0.0873 -0.3333
 1402W        W17876  10.189   2.071   0.451 -0.0019 -0.0907  0.2927
 1403W        W17877  12.576  19.004   1.705  0.0949  0.3347  0.1437
 1404W        W17878  12.404   3.151   3.319 -0.1121 -0.1624  0.0995
 1405W        W17879  10.864   7.351  13.602  0.1246  0.1925  0.1135
 1406W        W17880  18.855   4.905   3.640 -0.2072  0.0904 -0.1591
 1407W        W17881   7.549   6.271  14.756  0.1442 -0.2846 -0.0419
 1408W        W17882   1.197  11.469   9.838  0.0939 -0.1530  0.1739
 1409W        W17883  17.131  15.672   1.856 -0.2739 -0.3591 -0.0256
 1410W        W17884   6.603  17.123  11.593 -0.1202  0.0550  0.4619
 1411W        W17885  15.700  14.497  12.809  0.0964  0.0838  0.2147
 1412W        W17886   8.462   8.213  12.378 -0.1381  0.0847 -0.3539
 1413W        W17887   9.989   5.867   1.373  0.3262  0.0980  0.0155
 1414W        W17888   7.121  12.903  10.820  0.0619 -0.2790  0.0159
 1415W        W17889   1.755   3.536   2.420 -0.1082 -0.2127  0.0526
 1416W        W17890   6.098  13.881   2.656  0.1574  0.3056  0.1083
 1417W        W17891  17.913  11.337  10.635  0.2042  0.3233 -0.0010
 1418W        W17892  13.706  11.392  13.731  0.1172  0.1100  0.0284
 1419W        W17893  10.867   7.392   4.275 -0.1408 -0.1007 -0.1227
 1420W        W17894   6.964   7.643   0.890 -0.1127 -0.0257 -0.3351
 1421W        W17895  19.325  16.426   4.188 -0.0815 -0.3955  0.0110
 1422W        W17896  11.676  10.918   4.024  0.1636 -0.1574 -0.1194
 1423W        W17897   9.031  14.876   2.307 -0.2989  0.2033  0.0257
 1424W        W17898   6.035  12.137  13.869 -0.0285 -0.1720 -0.0009
 1425W        W17899  11.863   2.567  11.834  0.1788 -0.2488 -0.3320
 1426W        W17900   6.881  16.011   4.086 -0.3122  0.1099  0.0316
 1427W        W17901   8.224   9.049  12.335  0.0036  0.0774  0.2119
 1428W        W17902   3.185  17.886  14.069  0.2459 -0.1874  0.1775
 1429W        W17903   0.116  18.537  14.520  0.3605  0.3980 -0.1274
 1430W        W17904   9.346   3.569   0.162 -0.4460 -0.2272  0.0240
 1431W        W17905   1.510  13.961   4.295  0.2234 -0.4181  0.2175
 1432W        W17906  18.766  15.289   4.023  0.3409  0.1624 -0.1597
 1433W        W17907  14.147   9.961  10.350 -0.0776  0.2341  0.1034
 1434W        W17908  10.651  16.159   2.491  0.1872  0.0600  0.1665
 1435W        W17909  14.534  13.104   4.585 -0.1098  0.3273  0.2561
 1436W        W17910  10.855   2.384  13.382 -0.2775 -0.1290  0.1780
 1437W        W17911  15.784   2.495  10.947 -0.0733 -0.0157 -0.1789
 1438W        W17912  17.693   4.516   4.973  0.2433 -0.2751 -0.1860
 1439W        W17913  15.614  10.578  10.506 -0.0333 -0.0966 -0.1210
 1440W        W17914  16.770   8.775  12.544 -0.2462  0.0738 -0.0462
 1441W        W17915  11.998   1.564   2.065 -0.0580  0.0860 -0.3249
 1442W        W17916   7.383   2.338   3.618 -0.3370 -0.0734 -0.2222
 1443W        W17917   7.068  12.021   4.834  0.0422 -0.0351 -0.2876
 1444W        W17918   8.626   4.675   2.523  0.2052  0.0846  0.1370
 1445W        W17919   8.085  12.707   0.775 -0.3811 -0.2710 -0.0200
 1446W        W17920  15.147   1.879   2.943 -0.0691 -0.0597  0.0276
 1447W        W17921   6.002   7.550  10.251  0.2316  0.0528 -0.0760
 1448W        W17922  15.185   0.975  11.241  0.1919 -0.2575  0.3897
 1449W        W17923  15.349  16.098  13.156  0.1469  0.0803  0.0215
 1450W        W17924   5.859   0.642   9.593  0.0389 -0.1060  0.0067
 1451W        W17925  15.946   7.622  11.436 -0.0121 -0.0911  0.1187
 1452W        W17926   1.529  13.508   0.796 -0.0942  0.0413  0.0753
 1453W        W17927   5.095   1.345  14.135  0.2418  0.1981  0.1934
 1454W        W17928   0.278  12.523  11.663  0.0880 -0.3377 -0.0856
 1455W        W17929   3.281  12.751  13.355  0.0353  0.0896 -0.0720
 1456W        W17930   6.138   2.154  10.106  0.2279 -0.1754 -0.0646
 1457W        W17931  16.112  18.808   5.481 -0.2660  0.4577 -0.0624
 1458W        W17932  14.854  18.188  13.519 -0.0417 -0.3622  0.0736
 1459W        W17933   3.601   6.066   5.665 -0.0424 -0.2988 -0.1334
 1460W        W17934   7.984   5.060  12.353 -0.0105  0.3288 -0.0982
 1461W        W17935  18.846   6.257   3.974 -0.0565 -0.2228 -0.1318
 1462W        W17936   6.018  11.577   5.453 -0.0674 -0.3997  0.1404
 1463W        W17937  12.204  14.462  11.271  0.1725  0.0243 -0.0247
 1464W        W17938  12.195   7.957   4.545 -0.0910  0.3120 -0.1735
 1465W        W17939  15.702   3.734   1.994 -0.1124  0.0495  0.0610
 1466W        W17940  17.225   2.557  14.135  0.0545  0.0920  0.1256
 1467W        W17941  13.201  19.136   3.630 -0.0788  0.0295 -0.0621
 1468W        W17942   2.596  14.468  14.383 -0.0841 -0.0463 -0.3245
 1469W        W17943  16.053   8.003   2.808 -0.0340 -0.1490  0.1127
 1470W        W17944   4.532  12.635  12.739 -0.0824  0.0022 -0.1650
 1471W        W17945  11.409   5.575   2.534 -0.0101 -0.0511  0.1739
 1472W        W17946  14.003   3.092   4.938  0.2516  0.0400 -0.1958
 1473W        W17947  17.703   0.990   2.573  0.0331  0.0601  0.0623
 1474W        W17948  12.567  15.626   2.133 -0.2884  0.2484  0.1087
 1475W        W17949   5.617  11.687   1.862 -0.2891  0.0647 -0.1838
 1476W        W17950   6.529   1.335  14.277 -0.0086 -0.1962  0.1940
 1477W        W17951   1.676   1.103  11.524  0.2005  0.1523 -0.0278
 1478W        W17952   5.794  19.232  12.634 -0.1611  0.0475 -0.0450
 1479W        W17953  11.451  12.020   3.273 -0.1047  0.1781 -0.0236
 1480W        W17954  14.137   5.646  14.379  0.3386 -0.2461  0.2263
 1481W        W17955   0.195  11.765  10.549  0.1907 -0.1313 -0.5187
 1482W        W17956   2.019  17.617   2.202 -0.3036 -0.2977  0.0714
 1483W        W17957  11.113   5.349   0.114  0.2458 -0.1062  0.2765
 1484W        W17958  12.917  16.635   1.369 -0.2891  0.1277 -0.1931
 1485W        W17959  12.130   5.031  11.802 -0.2087  0.0756  0.1453
 1486W        W17960   4.056   8.326   0.746 -0.1485  0.2221 -0.0367
 1487W        W17961  15.489  17.355  14.391 -0.0630  0.1298  0.1539
 1488W        W17962   4.639  10.099   4.328 -0.0891  0.1078  0.0889
 1489W        W17963   1.302   8.133  14.616 -0.1363 -0.0781 -0.2631
 1490W        W17964   1.536  10.507   5.495  0.0984  0.2369  0.2228
 1491W        W17965  16.940   8.537  11.277 -0.1788  0.3687  0.1055
 1492W        W17966   9.893   5.461  11.553  0.0410 -0.2437  0.2378
 1493W        W17967  18.511   2.766  13.579  0.0067  0.0552 -0.0447
 1494W        W17968   0.075   8.629  10.788  0.1854 -0.0543 -0.2354
 1495W        W17969  17.745  11.828   2.183 -0.3034 -0.0435  0.0215
 1496W        W17970   8.724  13.304  14.136  0.2405 -0.1472  0.0869
 1497W        W17971  10.044  10.475  12.624  0.0873 -0.0948 -0.0566
 1498W        W17972  13.938   6.720   2.957 -0.4860 -0.0357 -0.1391
 1499W        W17973  10.529  12.781   0.310 -0.0181  0.1835  0.1401
 1500W        W17974   2.288   7.683   0.901 -0.0529 -0.0576  0.0307
 1501W        W17975  12.468  16.250  13.630  0.3548  0.3728  0.1181
 1502W        W17976   8.713   0.718   9.351 -0.1531  0.1136  0.4018
 1503W        W17977  14.795  15.547   1.938  0.2105 -0.3595 -0.1081
 1504W        W17978  17.767   9.323   3.491  0.0018  0.2928  0.0828
 1505W        W17979   1.254  10.425  13.932 -0.2182 -0.2411 -0.4984
 1506W        W17980   4.778  16.815  10.470 -0.1696  0.0021 -0.1381
 1507W        W17981   5.761   5.602   3.625  0.0890 -0.3478  0.0020
 1508W        W17982  12.335   9.226   4.099  0.0410  0.0179 -0.3102
 1509W        W17983   9.303   7.063   2.637 -0.3123  0.2863 -0.1587
 1510W        W17984  18.269  10.637   0.762  0.0536 -0.0301  0.2885
 1511W        W17985   4.602  10.462   4.631  0.1256  0.2790 -0.2629
 1512W        W17986   2.877  19.115  12.968  0.0187 -0.0504  0.0809
 1513W        W17987   0.478  19.280  10.778  0.2537  0.1651 -0.0872
 1514W        W17988  16.460   9.577  12.575  0.3392 -0.0388 -0.1161
 1515W        W17989  15.198   9.848  14.136  0.1621  0.1440 -0.1285
 1516W        W17990  17.705   9.859  11.407  0.0800 -0.0501  0.2513
 1517W        W17991   1.605   9.079  11.487  0.0184 -0.2439  0.0776
 1518W        W17992   4.209   5.646  14.766 -0.3934  0.2542  0.2186
 1519W        W17993   3.643   5.490   9.328 -0.3106 -0.1602  0.0789
 1520W        W17994   9.074   7.934  13.988 -0.0590  0.2353  0.1136
 1521W        W17995   4.937  11.123  12.218  0.0317 -0.0068 -0.1829
 1522W        W17996  18.513   2.972  10.607  0.0228  0.0203  0.1329
 1523W        W17997   1.572   0.274   4.002 -0.2999 -0.0569  0.1862
 1524W        W17998   8.361   2.302  12.776  0.2796 -0.3735  0.0582
 1525W        W17999   1.856  12.488   1.775 -0.1446  0.3067 -0.0910
 1526W        W18000   3.380   5.093   5.232  0.0917  0.0185  0.0934
 1527W        W18001  13.229   9.343  12.834 -0.3327 -0.1028  0.2118
 1528W        W18002  17.258   9.938  14.605  0.0513 -0.0070  0.0131
 1529W        W18003   1.657   9.890  11.389  0.1324  0.0724  0.1435
 1530W        W18004   2.027  19.368  13.472 -0.3071  0.0834  0.1389
 1531W        W18005  11.670  11.519  11.586 -0.3101 -0.3679 -0.0596
 1532W        W18006  17.466  17.615   3.472  0.4107 -0.0778  0.2401
 1533W        W18007  10.594   8.894   4.652  0.1948 -0.1281  0.3215
 1534W        W18008   6.844  14.151   4.172  0.0430 -0.0237  0.1777
 1535W        W18009   7.327  13.134   0.600  0.2408  0.0106 -0.0980
 1536W        W18010  18.438   3.032   1.303 -0.0980 -0.0989 -0.2444
 1537W        W18011  18.121   8.914   5.458  0.2624  0.2052  0.3495
 1538W        W18012  13.662   1.955   0.163  0.1453  0.1135 -0.3340
 1539W        W18013  18.832   0.612   2.527 -0.0150  0.0295  0.0912
 1540W        W18014  16.912  14.854   5.127  0.0309  0.0182 -0.0057
 1541W        W18015   7.970   5.454   3.841 -0.1262  0.2303  0.1441
 1542W        W18016   2.551  13.034  12.960 -0.0031 -0.2241  0.1312
 1543W        W18017  14.896   9.448   1.984  0.0082  0.1208  0.0902
 1544W        W18018   6.101   4.342  10.884  0.1414 -0.0237 -0.0167
 1545W        W18019   8.910  17.889   0.773  0.3610 -0.1032  0.0499
 1546W        W18020  18.145   5.543   3.857 -0.0086  0.1806 -0.3083
 1547W        W18021   4.426  14.845  12.453 -0.0364 -0.1237 -0.1432
 1548W        W18022   5.096   3.779  12.579 -0.0744  0.0850 -0.2521
 1549W        W18023   8.485  18.996   4.579  0.0680  0.0669  0.0215
 1550W        W18024   4.417  13.431   3.908  0.0232 -0.0878 -0.1136
 1551W        W18025  15.370   8.511   3.934  0.0498  0.2550 -0.2540
 1552W        W18026  11.126   8.971  11.902 -0.1214 -0.3539  0.3004
 1553W        W18027   5.204   8.662   2.693  0.0770 -0.4882  0.0254
 1554W        W18028  14.043   4.129  13.044 -0.0424  0.3691 -0.2751
 1555W        W18029   3.074  11.259   3.535  0.0534  0.2078  0.1214
 1556W        W18030  16.376   3.976   0.447 -0.0683 -0.0505 -0.1506
 1557W        W18031  18.008   9.161   9.615 -0.0625 -0.3322  0.3775
 1558W        W18032   1.049   9.300   0.914 -0.2149  0.2502  0.3302
 1559W        W18033  11.295   1.145   2.849 -0.0381  0.0787  0.1784
 1560W        W18034   3.659  13.916   2.073  0.0909 -0.3722  0.2832
 1561W        W18035  14.634   2.429   5.037  0.0629  0.1341 -0.0106
 1562W        W18036  16.950   6.154   5.216 -0.1311  0.2870  0.2241
 1563W        W18037   3.831  18.539   4.505  0.5036 -0.1960  0.2197
 1564W        W18038   5.785   0.226  14.293  0.4139  0.2732 -0.4453
 1565W        W18039  16.125  15.252   2.676  0.3243  0.2507  0.1161
 1566W        W18040   3.434   8.874   3.615  0.3141  0.0430 -0.1225
 1567W        W18041   0.068  11.787  14.605  0.0675  0.0987 -0.0646
 1568W        W18042  13.385   9.647   5.303 -0.3149 -0.0112  0.1315
 1569W        W18043   6.369   7.684   4.377  0.0793  0.0319 -0.2165
 1570W        W18044   4.520   3.790  11.227  0.2232 -0.1799  0.0237
 1571W        W18045  19.095   4.453  13.422  0.0614  0.2143 -0.3207
 1572W        W18046   4.210  13.519  11.590  0.0028 -0.4449 -0.0032
 1573W        W18047  11.967   2.225  13.113 -0.2120  0.1560 -0.1101
 1574W        W18048  11.224   9.516  10.349  0.3090 -0.0313  0.2186
 1575W        W18049  14.416   3.067  12.508  0.3617 -0.1589 -0.1579
 1576W        W18050  16.583   8.806   0.279 -0.2634  0.0536 -0.1757
 1577W        W18051   2.848  16.394   0.505 -0.1156  0.0279 -0.3979
 1578W        W18052   9.355   0.970  14.676  0.0729  0.0240 -0.2065
 1579W        W18053   9.583   2.528  14.834 -0.2579 -0.2947 -0.1482
 1580W        W18054  17.269  10.666  11.951  0.2237 -0.1933 -0.0055
 1581W        W18055   3.869   1.939   4.481  0.1011 -0.1654 -0.2181
 1582W        W18056  14.740   9.534  12.761 -0.4619  0.0507  0.1231
 1583W        W18057  14.228  15.030   4.315 -0.1796 -0.0759 -0.1093
 1584W        W18058   9.217   6.217   9.418 -0.3489  0.2753 -0.0954
 1585W        W18059   6.083   6.748  13.475  0.1196  0.3291 -0.1045
 1586W        W18060   3.206   2.317  14.456 -0.2231 -0.3791  0.0202
 1587W        W18061  10.378   1.642  14.126 -0.1420 -0.1125  0.1421
 1588W        W18062   0.928   2.907  11.018  0.0464 -0.0871  0.1010
 1589W        W18063  17.151  12.059   2.153 -0.0584  0.1055  0.0944
 1590W        W18064  13.264  13.456  14.825 -0.1183 -0.0194 -0.0300
 1591W        W18065  15.682   0.868   1.125 -0.3004  0.1162  0.0686
 1592W        W18066   9.567  11.346  10.907  0.3078  0.1773 -0.0547
 1593W        W18067   9.371   6.877   9.983  0.0573 -0.0215 -0.0100
 1594W        W18068   4.429   8.273  12.520  0.0942  0.4834 -0.1112
 1595W        W18069   2.757   9.712   1.097  0.0776  0.1809  0.0676
 1596W        W18070  14.085   9.184   0.395 -0.0870 -0.0648 -0.1199
 1597W        W18071  18.240  13.139  14.435  0.1094  0.0121  0.5237
 1598W        W18072  17.037  16.775  13.959 -0.0445  0.1970 -0.2421
 1599W        W18073  19.102  15.609  13.467 -0.0230 -0.0268 -0.2003
 1600W        W18074  15.805   0.334   2.813  0.2172 -0.0929 -0.1063
 1601W        W18075  16.917   8.931   5.166  0.1140  0.2618  0.0711
 1602W        W18076  17.320  16.607  13.598  0.1246 -0.0882  0.1855
 1603W        W18077   2.449  18.015   2.582 -0.1092 -0.1343 -0.1161
 1604W        W18078   9.659   1.448  10.373 -0.1106 -0.0941 -0.0589
 1605W        W18079  13.912   6.441   4.527  0.3237  0.0939  0.0422
 1606W        W18080   1.410  14.324   1.350 -0.1724  0.2175 -0.1711
 1607W        W18081  10.993  18.340   3.601 -0.3702 -0.1317  0.1156
 1608W        W18082   4.828  10.274  11.823  0.0499  0.0260 -0.0991
 1609W        W18083  19.379   8.936  14.324 -0.0368 -0.1611  0.1448
 1610W        W18084   2.304  16.514   3.276  0.1938 -0.3302  0.0030
 1611W        W18085  14.926   1.172   1.752  0.0778 -0.0496  0.1517
 1612W        W18086  12.389  19.214  10.922  0.3185 -0.3229  0.2119
 1613W        W18087   9.701   0.278  11.657 -0.0550 -0.1543  0.1318
 1614W        W18088  10.915   9.809  12.857  0.3976 -0.3466  0.0566
 1615W        W18089  10.449   0.956   3.906 -0.1963 -0.0092 -0.4668
 1616W        W18090   5.252   3.952  10.270  0.1319  0.4351 -0.2526
 1617W        W18091  11.468  17.326  12.449 -0.0171 -0.1256 -0.0709
 1618W        W18092  16.982  16.233   1.721 -0.2569  0.5038  0.2233
 1619W        W18093  17.297  10.542  14.776  0.3794 -0.2040  0.0315
 1620W        W18094   8.605   3.640  10.660 -0.0690  0.1378 -0.2269
 1621W        W18095   0.367   1.386   3.555  0.0316  0.0191  0.2591
 1622W        W18096  17.687   9.058  10.862  0.0376 -0.0706 -0.1118
 1623W        W18097   9.583  12.409  14.580 -0.1749 -0.0045  0.0481
 1624W        W18098  12.236   1.081   2.463 -0.0164  0.4300  0.2382
 1625W        W18099  13.405  19.042   0.777 -0.2134 -0.2171  0.0151
 1626W        W18100  18.974  11.357   1.625  0.0634  0.0290 -0.1963
 1627W        W18101   4.593  13.526  12.460 -0.3643 -0.1755 -0.2646
 1628W        W18102  17.142   1.689   1.960 -0.4679  0.1213  0.2253
 1629W        W18103  14.123   5.651  13.144 -0.1568 -0.0726  0.1103
 1630W        W18104   4.479   0.847  14.055 -0.2631  0.1794  0.1460
 1631W        W18105   4.208   7.816   1.022  0.2368  0.1827 -0.0848
 1632W        W18106  15.501   8.784   1.512 -0.1849 -0.1963  0.0555
 1633W        W18107  11.493   2.689   0.403  0.2019  0.2795 -0.0861
 1634W        W18108  12.744  16.808  14.513  0.0384  0.0085 -0.0951
 1635W        W18109  17.561   2.403   5.532 -0.2058  0.0919 -0.0698
 1636W        W18110   2.455  10.881  10.656 -0.0646 -0.1179 -0.2172
 1637W        W18111  12.377   1.765  12.915 -0.0709 -0.1808  0.0871
 1638W        W18112   4.478  11.253  12.015 -0.0664 -0.1425 -0.3100
 1639W        W18113  14.578   4.593  14.111  0.2129 -0.0304 -0.0545
 1640W        W18114  15.830  13.509  12.683  0.2082  0.2400  0.0615
 1641W        W18115  19.373  14.744  10.932  0.1475 -0.0511 -0.1413
 1642W        W18116  16.351   3.534   0.128  0.1012 -0.0217 -0.0250
 1643W        W18117  18.088  15.776   4.108  0.0189  0.3536  0.2143
 1644W        W18118  16.025  13.214   0.938 -0.0915  0.1872  0.0814
 1645W        W18119   1.437   5.848   2.758 -0.1505 -0.1644 -0.1177
 1646W        W18120   1.606  12.567   3.694 -0.1330  0.3950  0.1211
 1647W        W18121  13.671   2.503   1.148  0.0401 -0.0958 -0.2748
 1648W        W18122  12.705  13.963   0.056  0.1116  0.2861 -0.0420
 1649W        W18123  15.075   0.488   4.880 -0.1535  0.0765  0.0858
 1650W        W18124   3.074   1.197   3.521  0.0316  0.3099  0.1869
 1651W        W18125  14.690   6.515   1.106 -0.1543 -0.1638 -0.0828
 1652W        W18126   2.528  15.351  14.515 -0.3220 -0.0530 -0.1729
 1653W        W18127  12.446   7.778   2.900  0.1818  0.4624  0.0166
 1654W        W18128   7.852  15.915  13.126 -0.0431 -0.1382  0.1090
 1655W        W18129   8.963   0.828   3.462  0.0048  0.2801  0.1691
 1656W        W18130   8.661   2.515   3.088 -0.0273  0.0431  0.2308
 1657W        W18131  16.483  12.350  12.633  0.0520  0.0743  0.1979
 1658W        W18132  13.601   5.007   1.955  0.1691  0.3136 -0.1025
 1659W        W18133  12.333   1.320  11.480  0.0611  0.3543  0.0735
 1660W        W18134   0.209  17.112  13.068 -0.0654 -0.3035  0.1578
 1661W        W18135  14.448   9.918  14.642  0.1710 -0.1022 -0.3814
 1662W        W18136   3.907   9.710   5.446 -0.2027 -0.0020  0.0250
 1663W        W18137   2.597  17.446   4.984 -0.0917  0.1444  0.1767
 1664W        W18138  15.033   7.492   4.170  0.2889 -0.2114  0.2956
 1665W        W18139  17.983   7.613   2.067 -0.2637  0.0173  0.2080
 1666W        W18140   7.680   3.534  12.478  0.2586 -0.2493  0.0195
 1667W        W18141   1.454  13.741   3.494 -0.3394 -0.2936  0.0212
 1668W        W18142   2.400  14.073   1.888  0.3704  0.1198 -0.1403
 1669W        W18143   9.452  14.084  12.897  0.0337 -0.1262 -0.1780
 1670W        W18144   5.269   7.738  11.118  0.0231  0.1004 -0.0021
 1671W        W18145   3.751   5.291   3.590  0.0940 -0.0072  0.0431
 1672W        W18146   3.842  17.097  12.989 -0.3068  0.1760  0.4085
 1673W        W18147   6.339  15.838  12.673 -0.1849 -0.0280 -0.0182
 1674W        W18148   3.313   8.893   1.244 -0.1167 -0.0402 -0.0265
 1675W        W18149  15.637   7.036  13.900  0.0482 -0.1277 -0.1587
 1676W        W18150   5.948   1.928  13.984 -0.2243  0.0376 -0.2536
 1677W        W18151   6.495   0.382  14.691 -0.0140 -0.0631  0.0729
 1678W        W18152   4.755   3.521   2.789 -0.1546 -0.3432  0.0833
 1679W        W18153  12.977  15.316   4.301  0.1297 -0.1794 -0.0296
 1680W        W18154   2.054   7.058  13.682 -0.1503  0.1111  0.2158
 1681W        W18155   6.009  17.920   5.336  0.1782 -0.0061  0.1505
 1682W        W18156   8.493  11.548  14.368 -0.0962 -0.1961  0.0449
 1683W        W18157   5.096  15.604   0.093 -0.0578 -0.0406  0.0908
 1684W        W18158  14.862  12.693   4.360 -0.0568 -0.0981  0.2426
 1685W        W18159   6.152  11.524  13.956 -0.0471  0.1893 -0.1124
 1686W        W18160   2.265   1.376   0.259  0.3841  0.2078  0.0399
 1687W        W18161  14.359   3.226  14.010  0.0737  0.0003 -0.1977
 1688W        W18162   3.301  10.659  14.322 -0.0502 -0.0152 -0.0883
 1689W        W18163   7.297   0.171  13.765 -0.3153 -0.1632 -0.5691
 1690W        W18164   8.758  15.927   2.558  0.1394 -0.0758  0.2171
 1691W        W18165  12.651  12.475   2.541 -0.3182 -0.0872  0.1114
 1692W        W18166  18.405  19.234  13.800 -0.1747 -0.0757 -0.1743
 1693W        W18167  12.290   7.715  12.580  0.0464  0.1510  0.0122
 1694W        W18168   2.341  15.279   2.887  0.1366  0.1069 -0.0824
 1695W        W18169   5.398   4.117   0.319  0.1780 -0.0661 -0.3116
 1696W        W18170   7.654  17.319  11.350  0.0888  0.1652 -0.0941
 1697W        W18171  18.498  10.931   2.555 -0.1676 -0.0627  0.2111
 1698W        W18172  11.225  11.744  11.283  0.0595  0.0814 -0.1669
 1699W        W18173  10.416  18.171  12.418  0.0045  0.2661  0.1022
 1700W        W18174   4.764  14.298  10.983 -0.1617  0.0046  0.3058
 1701W        W18175   0.837  12.948   5.208  0.0797  0.0357 -0.1664
 1702W        W18176  17.927   8.219  10.964 -0.1963 -0.4206 -0.2402
 1703W        W18177  10.699   9.135   9.751  0.3428 -0.1903  0.0712
 1704W        W18178   3.139  13.451   1.469 -0.0567  0.3305 -0.0053
 1705W        W18179   6.967  14.312   3.004 -0.0511 -0.0268  0.2307
 1706W        W18180   1.671  12.578  14.765  0.0098  0.0085 -0.1235
 1707W        W18181  11.707   5.352  13.686 -0.4019  0.3264 -0.2755
 1708W        W18182   9.881   4.613   1.348 -0.1231  0.0748  0.4807
 1709W        W18183   3.268   5.441   3.300  0.2755  0.0674 -0.4343
 1710W        W18184   5.238   9.582   0.450 -0.0292 -0.3877 -0.0785
 1711W        W18185  12.102  10.405  13.544 -0.1520 -0.0329  0.1528
 1712W        W18186   8.248  16.875   9.785 -0.0986 -0.2812 -0.0457
 1713W        W18187  13.472  13.634  12.658  0.1203 -0.0025 -0.2245
 1714W        W18188  12.312   6.769  12.266 -0.3443 -0.1339 -0.2794
 1715W        W18189  11.636   3.070   2.277  0.0293  0.0201  0.0821
 1716W        W18190   5.244   4.914   1.057  0.0483  0.0391  0.0625
 1717W        W18191  16.383   2.339  13.261 -0.1104 -0.2937 -0.1629
 1718W        W18192  11.398  17.451  11.104  0.2281 -0.2501  0.0316
 1719W        W18193  13.535  10.814  13.144  0.0896  0.1089 -0.3814
 1720W        W18194  19.185   4.465  14.794  0.0286 -0.0734 -0.3267
 1721W        W18195  13.873  14.161   3.130  0.2244  0.0579 -0.1076
 1722W        W18196   2.519  10.127   0.864  0.1931 -0.2007  0.1128
 1723W        W18197   9.850  13.187   3.338 -0.3597  0.1038 -0.2571
 1724W        W18198  15.514  13.486  13.671  0.1455  0.0280  0.3252
 1725W        W18199   4.907   0.053   0.803  0.1388 -0.1983  0.0659
 1726W        W18200   1.486   1.368  13.993  0.0045  0.0957  0.0262
 1727W        W18201  14.832   2.126  11.567 -0.3238  0.0982  0.2260
 1728W        W18202  19.252  12.464   3.835  0.3279  0.0623  0.2830
 1729W        W18203  13.691   3.482  12.099 -0.1189  0.2801  0.0484
 1730W        W18204  18.935   3.319  10.035  0.0739  0.1419 -0.0697
 1731W        W18205   8.396   1.233  11.757 -0.0717 -0.1619  0.0603
 1732W        W18206   1.250   2.327   4.436  0.2063  0.1664 -0.1502
 1733W        W18207   6.292   5.102  13.509  0.1581 -0.0178 -0.0242
 1734W        W18208   6.932   6.627   2.440 -0.1029 -0.0256  0.0499
 1735W        W18209  10.464   6.433   2.028  0.2751 -0.2466 -0.4216
 1736W        W18210   3.447   7.339  12.743 -0.0611  0.3996 -0.1081
 1737W        W18211   2.344  11.417  12.459 -0.0881  0.2440 -0.1159
 1738W        W18212  17.854   2.756   3.383  0.0176  0.0955 -0.4343
 1739W        W18213  16.681  13.765   4.699 -0.3191 -0.1337 -0.1216
 1740W        W18214   8.954   2.130   3.939 -0.0787  0.2862  0.1060
 1741W        W18215   4.686   0.179   4.448 -0.1663  0.0961 -0.2883
 1742W        W18216  15.712   8.210   0.205  0.2355 -0.1509 -0.1154
 1743W        W18217  14.570   7.686  13.486 -0.2063 -0.1231 -0.3039
 1744W        W18218   7.357   3.022   2.404  0.0661 -0.0006 -0.2226
 1745W        W18219   8.841   0.907   4.448  0.0459 -0.0497 -0.1905
 1746W        W18220   5.582   3.387   0.053 -0.2036  0.3988  0.0453
 1747W        W18221   9.456  12.493   0.672  0.0017 -0.2762  0.2299
 1748W        W18222   5.382   6.379  13.131  0.1680  0.1835  0.0478
 1749W        W18223   4.296  19.350  10.548  0.0516  0.0113  0.1266
 1750W        W18224  14.295   7.798   1.553 -0.1087  0.3142 -0.2949
 1751W        W18225  17.307   4.337   4.629 -0.1612  0.0408 -0.0352
 1752W        W18226  12.293   9.756  12.007 -0.2209  0.1045 -0.2938
 1753W        W18227  15.070  11.268   1.344  0.1395 -0.1603 -0.1145
 1754W        W18228  18.749   6.814  14.875 -0.4034  0.0481 -0.3163
 1755W        W18229   2.477   4.727   1.883  0.0393 -0.2731  0.0488
 1756W        W18230   1.694   1.897   0.576 -0.1459 -0.1817  0.2700
 1757W        W18231   2.774  16.473   1.433  0.3471 -0.2704  0.0892
 1758W        W18232  18.769   0.376  10.465 -0.1107 -0.1777  0.0286
 1759W        W18233   3.333   6.094   4.332  0.2138 -0.2345  0.1737
 1760W        W18234  18.921   1.638  13.664 -0.0578  0.0602 -0.1273
 1761W        W18235   8.420   7.804   3.589 -0.4303  0.1056 -0.2394
 1762W        W18236   9.100   9.298  14.059  0.0771  0.4655 -0.0112
 1763W        W18237  15.233  12.877   3.042 -0.0743 -0.1771  0.0281
 1764W        W18238  15.255   1.442   1.391 -0.2570 -0.1471 -0.1473
 1765W        W18239   9.602  13.891   3.903  0.2075  0.2071 -0.1512
 1766W        W18240   1.690   8.795  13.511  0.0694 -0.0026 -0.2039
 1767W        W18241  12.961   1.575  11.863 -0.0995  0.1463  0.1908
 1768W        W18242  11.096  11.316   3.116 -0.2925 -0.0725  0.2405
 1769W        W18243   3.043   1.465  14.353  0.0747  0.1777  0.1935
 1770W        W18244  10.560  14.230   2.022 -0.1271  0.1505 -0.2153
 1771W        W18245  15.928  11.955   2.166 -0.2778  0.0922  0.2008
 1772W        W18246  19.074  16.022  14.159  0.3786 -0.2674  0.1902
 1773W        W18247  13.794  15.799   4.140  0.1038  0.0266 -0.1454
 1774W        W18248  17.746  12.662   4.148 -0.0581 -0.0011  0.2529
 1775W        W18249  19.030  17.340   2.009  0.0086 -0.0693  0.1067
 1776W        W18250   2.013   6.974  11.268  0.1069 -0.3631 -0.2656
 1777W        W18251  16.126   1.635   2.733  0.1859  0.0148 -0.0831
 1778W        W18252  10.341  18.675  12.585 -0.1346  0.0751  0.0100
 1779W        W18253  15.044  15.917   4.609  0.2059  0.0379 -0.2742
 1780W        W18254   7.081   2.668   4.571  0.1106  0.0705 -0.0781
 1781W        W18255   8.561  12.457   1.954  0.1321  0.2073  0.0950
 1782W        W18256   7.880  18.393  14.652 -0.1548  0.3757  0.0973
 1783W        W18257   8.291  14.721  10.657  0.2834  0.0019  0.2039
 1784W        W18258  18.330   0.994   4.354  0.2002 -0.0004  0.1049
 1785W        W18259   2.066   8.481  13.784  0.0265 -0.1498  0.2111
 1786W        W18260   3.143  10.391   1.710  0.2819  0.0830  0.1696
 1787W        W18261   2.260   4.517   1.471 -0.2524 -0.0270 -0.2869
 1788W        W18262  13.425  10.522  10.299 -0.0539  0.1671 -0.2934
 1789W        W18263  14.246   2.242   1.897 -0.1984  0.0486  0.3165
 1790W        W18264   4.893   9.915   5.348 -0.3666 -0.2852  0.0352
 1791W        W18265   1.162  11.720   0.436 -0.0288  0.0530  0.2757
 1792W        W18266   6.425   8.140  11.363  0.1469 -0.0312  0.1614
 1793W        W18267  15.937   8.921   2.286  0.0395 -0.0336 -0.0479
 1794W        W18268   3.433   9.034  11.463 -0.1817 -0.1367 -0.1626
 1795W        W18269  18.238  16.200   5.694 -0.0663  0.2125  0.1385
 1796W        W18270  18.984  11.146   0.196 -0.1493 -0.2263  0.1345
 1797W        W18271   1.081  14.519  11.208  0.0060  0.0545  0.1578
 1798W        W18272  15.511  16.037   2.796 -0.2664  0.0373 -0.4474
 1799W        W18273   1.608  14.134  14.496  0.1427  0.2035  0.2934
 1800W        W18274  16.623  18.559   4.921  0.3486 -0.2807 -0.0565
 1801W        W18275   6.232  11.243  12.268  0.0099  0.2479  0.1290
 1802W        W18276  15.409  18.917   0.777  0.0865  0.1346 -0.0415
 1803W        W18277  12.725   5.116   4.563  0.3087 -0.1359  0.4433
 1804W        W18278   1.630   0.863   3.164 -0.0286  0.3948  0.3412
 1805W        W18279   6.841  17.473  13.296  0.1915 -0.1352  0.0064
 1806W        W18280   8.344  17.821   3.898 -0.0202  0.0369 -0.0395
 1807W        W18281   3.089   8.714   0.386 -0.0283  0.1110 -0.4643
 1808W        W18282   1.817   7.090  13.239 -0.0246 -0.0629 -0.0354
 1809W        W18283  12.744   7.647   0.528 -0.0065  0.2705 -0.1805
 1810W        W18284  10.002   4.196  10.530 -0.2184  0.0136  0.0304
 1811W        W18285  14.330   5.662   2.940  0.1021  0.1524 -0.0020
 1812W        W18286   3.002  11.496  10.863  0.1514 -0.1295 -0.2512
 1813W        W18287   1.288  16.307   9.728  0.0108  0.3041 -0.2556
 1814W        W18288   7.899   6.172   0.277 -0.0550  0.1741 -0.3437
 1815W        W18289  15.232  17.979   3.924  0.0047 -0.0883  0.0735
 1816W        W18290   0.819  11.704   3.020  0.0810 -0.1462  0.0772
 1817W        W18291  19.328  15.943   2.563 -0.1602  0.0334 -0.2762
 1818W        W18292  14.876   2.805  11.266 -0.2147  0.1469 -0.1990
 1819W        W18293   0.574  16.058  12.141  0.0502 -0.1060 -0.2898
 1820W        W18294   0.094   3.696   4.860 -0.1798 -0.1668  0.1206
 1821W        W18295  17.986  17.986  13.916  0.2188 -0.0904 -0.0210
 1822W        W18296   0.993   5.040   4.272 -0.1118 -0.1058  0.0494
 1823W        W18297   3.918   3.640   9.618  0.3146 -0.1883 -0.1243
 1824W        W18298   2.384  13.488   0.994  0.0694  0.1696 -0.1108
 1825W        W18299   5.643  17.195   2.050 -0.2768 -0.4138 -0.1553
 1826W        W18300   0.786   3.500  10.401 -0.0761 -0.0067 -0.0439
 1827W        W18301  18.849  16.764   2.461 -0.0123 -0.1379 -0.0738
 1828W        W18302   3.863  19.144  11.339 -0.2371  0.1650 -0.0862
 1829W        W18303   6.735   9.837   5.184  0.2719 -0.3363  0.1192
 1830W        W18304  14.986   2.977  10.012  0.3000 -0.0233 -0.0990
 1831W        W18305  17.570  17.126   1.334  0.1272 -0.1619  0.2362
 1832W        W18306  12.835  10.177   2.178  0.1309 -0.0062  0.2175
 1833W        W18307  11.240   9.238  14.229  0.1765  0.2474 -0.0757
 1834W        W18308   2.875   1.175  11.633 -0.1836  0.1045 -0.3480
 1835W        W18309  17.982  17.831  14.830 -0.2116 -0.2468  0.1257
 1836W        W18310  10.212   5.413  14.641 -0.1699  0.0144  0.0536
 1837W        W18311   7.276   1.099  10.531 -0.1536  0.0281 -0.1935
 1838W        W18312  14.144  10.909  12.308 -0.1446  0.1929 -0.0456
 1839W        W18313  10.993  15.642   5.551 -0.0865  0.2955  0.0148
 1840W        W18314  14.394   2.354  10.848  0.3322 -0.2375 -0.1157
 1841W        W18315   1.708  15.058   2.212 -0.1081 -0.1494  0.3427
 1842W        W18316  17.855  13.934  13.001  0.1810 -0.0932  0.1112
 1843W        W18317   8.593  14.639   0.150  0.1773 -0.1204  0.1471
 1844W        W18318  18.999  12.488   4.922  0.0058 -0.2021 -0.0656
 1845W        W18319   0.737  17.985  10.856 -0.1481  0.1217  0.3202
 1846W        W18320  19.186   0.108  12.977  0.0674  0.2280  0.3130
 1847W        W18321   5.797   5.101  13.258 -0.1764  0.1704  0.0044
 1848W        W18322   5.054   6.326  12.715  0.2918 -0.1845 -0.4003
 1849W        W18323   9.779  19.365  11.049  0.1314  0.0861 -0.0760
 1850W        W18324  11.388   2.257  12.389  0.2005 -0.0768  0.0007
 1851W        W18325  10.569   6.195   9.258 -0.0200 -0.3842 -0.1218
 1852W        W18326  18.008  17.007  14.128  0.2862  0.1003 -0.0335
 1853W        W18327  17.085   8.809  10.836  0.0477 -0.1854  0.0818
 1854W        W18328   7.574  18.002  14.336  0.1361 -0.3510 -0.0491
 1855W        W18329   6.990   2.711   3.642  0.0783  0.2041  0.1195
 1856W        W18330  17.133   3.920   3.808 -0.0857  0.0955 -0.0897
 1857W        W18331  17.727  12.201   1.397 -0.0352  0.2047 -0.4477
 1858W        W18332  13.778  13.248   5.013  0.1810 -0.2898  0.1600
 1859W        W18333  14.817   5.094  12.846  0.4172  0.1781 -0.0248
 1860W        W18334   2.843  15.271   1.591  0.2349 -0.4565 -0.0581
 1861W        W18335  12.392   6.664   3.777 -0.3295  0.2006  0.1077
 1862W        W18336  13.115  12.244  13.025 -0.2448  0.0282 -0.3436
 1863W        W18337  14.826  13.770  11.942 -0.1525  0.0066  0.1974
 1864W        W18338   7.129  16.380  13.531 -0.2822  0.1059 -0.2160
 1865W        W18339   6.092  19.336  14.583 -0.0781 -0.0244 -0.0741
 1866W        W18340   4.022  17.387  14.328 -0.3013  0.1973  0.0695
 1867W        W18341  18.643  12.809   1.307 -0.0320 -0.1201 -0.1822
 1868W        W18342   1.924   8.144  10.887 -0.0313  0.1311 -0.0965
 1869W        W18343   5.897  13.174  10.812  0.3437  0.5006  0.0441
 1870W        W18344  15.563   1.856   5.184 -0.1000 -0.2080 -0.1348
 1871W        W18345   7.274   8.829  11.476 -0.2368  0.0568  0.0865
 1872W        W18346  11.885   6.519  12.143 -0.0317  0.0502 -0.2110
 1873W        W18347   4.214   3.615  12.160 -0.1842  0.1561  0.0220
 1874W        W18348   5.307  15.815  11.377 -0.0601  0.3032  0.0555
 1875W        W18349  10.232   7.621   3.263 -0.1919  0.1449  0.0995
 1876W        W18350   9.232  12.803  11.229 -0.2863 -0.2868  0.0240
 1877W        W18351  17.665  16.027   0.943 -0.2459 -0.2001  0.2415
 1878W        W18352  10.108  17.573   1.078 -0.0728  0.0156  0.1205
 1879W        W18353   0.539   1.782   4.863 -0.0144 -0.1709 -0.3251
 1880W        W18354   4.506  10.964  13.299 -0.0461 -0.0865 -0.0365
 1881W        W18355  16.918  10.524  10.480  0.0776  0.0630 -0.1544
 1882W        W18356  11.016  16.128  13.893  0.0261  0.1272 -0.1189
 1883W        W18357  12.446   4.190   4.113 -0.3683  0.0731  0.2076
 1884W        W18358  11.847   3.069   0.569  0.0928 -0.1788  0.0635
 1885W        W18359  11.484  15.665  10.032 -0.3799 -0.3317  0.1172
 1886W        W18360   0.226  15.950   1.158 -0.1450 -0.0905  0.1361
 1887W        W18361   6.839  15.661  14.193  0.4957  0.2254  0.3540
 1888W        W18362   5.523  18.774  11.647  0.0730  0.1030  0.0087
 1889W        W18363   3.150   0.024  13.454 -0.2105  0.0645 -0.1864
 1890W        W18364  10.337   6.725  12.394  0.3640 -0.0680  0.0047
 1891W        W18365  13.353  10.458   4.325 -0.1064 -0.1495  0.0941
 1892W        W18366  14.043  11.901  12.472 -0.0928  0.2024 -0.2499
 1893W        W18367  16.428   9.489   9.883 -0.1194  0.1513 -0.0271
 1894W        W18368   7.148  16.376  14.720 -0.4302 -0.3087 -0.1330
 1895W        W18369   5.688  14.830   4.876  0.3650  0.1196 -0.0343
 1896W        W18370   2.254  18.836   1.496 -0.2262  0.2290  0.0783
 1897W        W18371   9.554  16.973  14.622 -0.1420  0.0149  0.0447
 1898W        W18372  17.342  17.153   4.379  0.1148 -0.4239  0.3105
 1899W        W18373  13.086   8.318   0.084  0.1446 -0.0423  0.0844
 1900W        W18374   5.062   7.129  14.248  0.3889 -0.0143  0.3704
 1901W        W18375   9.507  14.545  13.658 -0.0346  0.0292  0.1810
 1902W        W18376   8.744  16.546   1.202 -0.2917 -0.0059  0.1080
 1903W        W18377   7.526   0.296   9.407  0.1225 -0.2121 -0.0339
 1904W        W18378   9.028  13.568   2.240  0.0647 -0.2934  0.0028
 1905W        W18379   2.432   0.517  12.886 -0.2450  0.3835 -0.2493
 1906W        W18380   6.894   1.724  14.384 -0.2804 -0.1538  0.2812
 1907W        W18381  17.281  18.029  11.148 -0.0747  0.0475  0.0051
 1908W        W18382  17.885  12.645   2.737  0.0342  0.0084  0.1403
 1909W        W18383  15.039   4.862  13.956  0.0593  0.0696 -0.1114
 1910W        W18384   1.468   0.641   3.668 -0.2118 -0.0113  0.1831
 1911W        W18385   1.081  11.602   2.598  0.0518  0.2375  0.0921
 1912W        W18386  17.504  16.932   5.640 -0.2042 -0.0044 -0.0814
 1913W        W18387   7.984   3.854   3.614  0.1063 -0.2013  0.3283
 1914W        W18388  10.995   7.199  11.297 -0.2767  0.2607 -0.0875
 1915W        W18389   0.826  19.079  10.245  0.0311 -0.0926 -0.3763
 1916W        W18390  11.195  14.882  14.351 -0.1781  0.0961 -0.2201
 1917W        W18391   7.475   2.563  11.338 -0.0520 -0.0359  0.0589
 1918W        W18392   3.337  12.784  14.516  0.1278  0.0067  0.0823
 1919W        W18393   1.673  10.937   0.836 -0.2463  0.3900 -0.1572
 1920W        W18394  16.347  17.019   4.150  0.1141  0.2377  0.4748
 1921W        W18395   7.147  17.420  14.637 -0.0795  0.0080  0.1769
 1922W        W18396   6.204   5.615   4.065 -0.0448 -0.0713 -0.1638
 1923W        W18397   2.692  12.825  13.362 -0.1563  0.1943 -0.1088
 1924W        W18398  15.992  17.701  11.887 -0.3185 -0.2466 -0.0894
 1925W        W18399  17.875   2.973  13.102 -0.0502 -0.0782  0.0509
 1926W        W18400  16.984   0.780  13.977 -0.1377 -0.0912  0.2433
 1927W        W18401  18.317  18.711  13.988 -0.2605  0.0754  0.0796
 1928W        W18402  14.561  14.208   1.061  0.0629  0.0563 -0.3326
 1929W        W18403  14.704   3.401   2.317 -0.1290  0.1474 -0.0973
 1930W        W18404   8.728  17.551  13.655  0.0806  0.0819  0.1152
 1931W        W18405  11.692  17.772   2.069  0.0961  0.0774 -0.0517
 1932W        W18406   9.621  16.914   0.239  0.0289  0.0731  0.0569
 1933W        W18407  19.141   1.945   9.956  0.0354 -0.2097 -0.2639
 1934W        W18408   8.574   7.166  10.546 -0.4108  0.0940 -0.0283
 1935W        W18409   1.004  17.699  13.368  0.2150  0.1945  0.0867
 1936W        W18410   5.177  17.292   0.432  0.2827  0.1103 -0.1583
 1937W        W18411   8.021   1.506   0.746  0.0773  0.3039  0.2549
 1938W        W18412   2.193  15.876   3.659  0.0304  0.1280  0.0466
 1939W        W18413  17.395  12.185  10.436 -0.1142 -0.0259 -0.1475
 1940W        W18414   7.180   7.635  10.387  0.2514 -0.1001  0.0027
 1941W        W18415   7.515  13.117  12.763  0.2579  0.1054 -0.3602
 1942W        W18416   2.669   5.567  14.063 -0.3830  0.0866  0.1236
 1943W        W18417  12.765  10.225  14.732  0.0331  0.0961  0.0860
 1944W        W18418  15.297  12.035  11.954  0.0333 -0.3056  0.3497
 1945W        W18419   7.920  18.574   3.215  0.1880 -0.0505  0.0709
 1946W        W18420  17.986  13.804   3.963 -0.1929 -0.0823 -0.1160
 1947W        W18421   9.799  15.604   0.281 -0.2418  0.1156 -0.0464
 1948W        W18422   3.323   6.493   0.931  0.4528 -0.1475  0.1510
 1949W        W18423   0.141  13.281  12.006  0.2122 -0.2410 -0.1589
 1950W        W18424  11.453  17.136   4.035 -0.1388  0.0691 -0.0555
 1951W        W18425   7.521   1.158  13.323  0.3314 -0.1171 -0.2590
 1952W        W18426   8.174  16.135   1.052  0.0951  0.2974 -0.1133
 1953W        W18427   8.214  17.170   4.770  0.0526 -0.0830 -0.0489
 1954W        W18428   0.671  18.199  13.631  0.1892  0.1037 -0.2712
 1955W        W18429   5.335   2.270   3.856  0.2866  0.2518 -0.0178
 1956W        W18430  17.856   2.682  12.110 -0.0957  0.1175  0.1228
 1957W        W18431  18.596  15.555  10.947  0.2882  0.0964  0.1625
 1958W        W18432   9.399  12.564   3.274  0.0211  0.1232 -0.2755
 1959W        W18433   2.088   0.009   0.691  0.1576  0.0690  0.0066
 1960W        W18434   7.476  15.979  13.486  0.0384  0.0545  0.1533
 1961W        W18435  10.865   3.473   4.179  0.3004  0.0698  0.1088
 1962W        W18436   6.113  15.591  11.740  0.0926 -0.0081  0.3501
 1963W        W18437   4.721  19.006  14.210 -0.2104 -0.0217 -0.2653
 1964W        W18438  17.220   1.939   1.054 -0.2574 -0.2677 -0.2956
 1965W        W18439   9.729  17.453   4.612 -0.0471  0.3591 -0.1492
 1966W        W18440  19.227   4.558  10.687  0.1506  0.1941  0.3277
 1967W        W18441  19.290  19.353   2.955  0.0805 -0.2852  0.0766
 1968W        W18442   7.337  18.538   3.564 -0.5295 -0.0680  0.0203
 1969W        W18443  19.053  17.685   3.511  0.0162  0.2561  0.2840
 1970W        W18444   2.158  13.082  11.256 -0.1612 -0.5194 -0.1875
 1971W        W18445  11.144  12.328  10.547 -0.2335  0.2311  0.1240
 1972W        W18446  18.632  18.774  12.927 -0.0126 -0.0451 -0.2636
 1973W        W18447   8.346  14.054  13.463 -0.0858 -0.1073  0.0964
 1974W        W18448   8.195   5.464  14.768 -0.1216  0.2199  0.0578
 1975W        W18449   5.171   8.634  10.968  0.3968 -0.1569  0.1088
 1976W        W18450   0.105   6.264   9.835 -0.5210  0.2556  0.3083
 1977W        W18451   9.525   6.956   0.742  0.1067 -0.2363  0.2665
 1978W        W18452   8.806  12.532  10.254  0.1648 -0.1129  0.0224
 1979W        W18453  13.609  14.170   4.089 -0.2800 -0.2318  0.0885
 1980W        W18454   4.092   2.175  10.937  0.0583  0.0530  0.0423
 1981W        W18455  19.206  13.793   2.008 -0.0710 -0.4271  0.3926
 1982W        W18456   0.560   0.858  14.656 -0.2285  0.1175 -0.0823
 1983W        W18457   8.134  15.185  10.802  0.0432  0.2142 -0.3551
 1984W        W18458  17.449  19.092   3.392  0.4126 -0.1017  0.0210
 1985W        W18459   3.171  15.938  10.649  0.2896  0.0058 -0.1579
 1986W        W18460  17.972  18.666   4.951 -0.0256 -0.2964  0.0257
 1987W        W18461  18.747   4.362  10.443 -0.1692 -0.0252  0.0645
 1988W        W18462  17.826   6.584   5.453  0.1753 -0.0551 -0.0960
 1989W        W18463   0.334  10.568   0.610  0.1607 -0.1901  0.0521
 1990W        W18464  18.488  10.178   2.889 -0.1094  0.2987 -0.0772
 1991W        W18465  16.361  12.564   0.937  0.2782  0.1679 -0.2043
 1992W        W18466   0.293   3.304   5.289 -0.2874  0.0727  0.0269
 1993W        W18467   9.040  15.470  11.260  0.2903 -0.0486 -0.0077
 1994W        W18468  11.902   3.761  12.552  0.2035 -0.1163  0.0775
 1995W        W18469   9.792  14.417   3.814  0.0419  0.1066 -0.4159
 1996W        W18470   6.969  18.729  13.464 -0.1271 -0.3395 -0.2523
 1997W        W18471  14.071  10.148  11.457 -0.0737  0.2017 -0.2098
 1998W        W18472  10.006   8.635  11.243 -0.1619  0.2908 -0.1414
 1999W        W18473   7.729   5.578  12.643 -0.0120  0.0650  0.0039
 2000W        W18474   6.158   6.950  12.086 -0.1244  0.0878 -0.2207
 2001W        W18475   5.274  17.483   4.138  0.1303 -0.1421  0.2369
 2002W        W18476  11.202  14.397  10.078 -0.0165 -0.1261  0.4054
 2003W        W18477  15.507   4.525  14.277  0.3453 -0.2014 -0.1023
 2004W        W18478   3.561  15.786   4.240 -0.2707  0.0623 -0.0799
 2005W        W18479   0.315  18.830  11.021 -0.3684 -0.0794 -0.2417
 2006W        W18480  15.609  15.232   5.189 -0.4688 -0.0200 -0.1959
 2007W        W18481   6.456   4.800   1.612  0.2700  0.0043  0.2714
 2008W        W18482   0.295   0.974  14.165  0.0729 -0.2623 -0.0035
 2009W        W18483   0.211   9.097   2.027  0.0234  0.3919 -0.0120
 2010W        W18484  17.798  17.817  13.415  0.0813  0.3252  0.4060
 2011W        W18485   0.303  16.454   1.279 -0.1070  0.3040 -0.0790
 2012W        W18486   0.607   1.626   3.015 -0.0701 -0.1426  0.1949
 2013W        W18487  16.072   4.162  10.952  0.3781 -0.4398 -0.3602
 2014W        W18488   1.860  18.585   1.742  0.2383 -0.0363 -0.1516
 2015W        W18489  10.925   1.007  11.637 -0.0564  0.1374  0.1601
 2016W        W18490  16.357  13.916   3.753 -0.0159 -0.0950  0.2396
 2017W        W18491  11.681  17.556   0.259  0.1557 -0.0127  0.0068
 2018W        W18492   6.012   7.228  13.425 -0.0747 -0.0948 -0.2997
 2019W        W18493   2.711   7.369  11.006  0.1774  0.3255  0.2142
 2020W        W18494   5.536  13.598   0.496  0.2362  0.1998  0.0502
 2021W        W18495  10.773   6.665  13.138  0.0949 -0.0594 -0.4080
 2022W        W18496   1.983   0.493   3.678  0.4728  0.2910  0.3568
 2023W        W18497   2.700  10.322   0.319  0.2296  0.0990 -0.2947
 2024W        W18498   2.698   2.482  12.380  0.1019 -0.4317 -0.1339
 2025W        W18499  16.601  18.393  12.083 -0.1047 -0.0626  0.2603
 2026W        W18500  12.386  19.246  13.080  0.3124 -0.1216 -0.0701
 2027W        W18501   8.996  17.949  11.817  0.0652  0.1816  0.3087
 2028W        W18502  13.294   0.688  12.637  0.0423 -0.1202  0.0593
 2029W        W18503   1.604  15.665  12.833  0.0551  0.2056  0.2182
 2030W        W18504   1.359   8.665  14.671  0.3898  0.1085 -0.2035
 2031W        W18505   1.580   8.426   0.885  0.0529 -0.1441  0.4234
 2032W        W18506   1.167   5.303  11.715  0.5203 -0.2391  0.1372
 2033W        W18507   0.014   9.153   4.301 -0.1633 -0.0822 -0.2864
 2034W        W18508  12.885   4.667  14.718 -0.4148 -0.1182  0.1340
 2035W        W18509  16.301  18.886  14.302 -0.2631 -0.0548  0.2020
 2036W        W18510  11.830   2.180   1.712  0.1349 -0.2784 -0.2245
 2037W        W18511  16.967  14.130  14.750  0.0439  0.1719  0.2019
 2038W        W18512  16.037  14.803   1.405  0.1918 -0.1523  0.1029
 2039W        W18513  15.994  12.891  13.311 -0.1986 -0.2941 -0.2954
 2040W        W18514   9.856  10.155   4.087  0.3036  0.2998 -0.1126
 2041W        W18515   9.462  18.339  12.854 -0.0576 -0.1228  0.0771
 2042W        W18516  15.606   9.983   2.710  0.1378 -0.2476 -0.1953
 2043W        W18517   7.602  16.259   2.930 -0.0374  0.0707  0.0062
 2044W        W18518  19.214  13.194   4.017  0.0556  0.1169 -0.0009
 2045W        W18519  12.473  16.017  12.556 -0.0429 -0.1202  0.1559
 2046W        W18520   3.757  13.125   2.343 -0.0744  0.0366 -0.2634
 2047W        W18521  17.564   0.472   0.107 -0.0699  0.1653 -0.1551
 2048W        W18522  17.010  15.599   1.147 -0.1878  0.1509 -0.1190
 2049W        W18523   2.975   1.428  10.379  0.0803  0.2341 -0.2766
 2050W        W18524  16.387  11.237  10.186  0.1585 -0.4108 -0.0086
 2051W        W18525  19.176  10.853   9.584 -0.0925  0.0911  0.0159
 2052W        W18526   1.771  14.754  11.887  0.0507 -0.1369 -0.1222
 2053W        W18527  15.276   2.172   0.842  0.3860 -0.1409 -0.1279
 2054W        W18528  14.870  16.878   1.776 -0.0353  0.2830 -0.1313
 2055W        W18529   4.713   5.080   4.609  0.3421 -0.2591 -0.0044
 2056W        W18530  17.347   3.723   1.272 -0.1436  0.1155  0.0432
 2057W        W18531  10.042  18.933  12.269 -0.1301 -0.2410 -0.0716
 2058W        W18532   1.659  10.596  13.130 -0.0775  0.0241 -0.3079
 2059W        W18533   2.020  10.537   3.110 -0.4218  0.2115  0.3170
 2060W        W18534   4.539  10.374  12.296 -0.1984  0.0733  0.1343
 2061W        W18535  15.127   4.097  13.373 -0.0403 -0.1530 -0.3577
 2062W        W18536   7.089  15.430   2.934  0.3410 -0.3921 -0.0316
 2063W        W18537  12.144  15.264  11.511 -0.1511 -0.2654  0.0746
 2064W        W18538  11.525   4.284  13.997  0.4672 -0.1745  0.2695
 2065W        W18539   1.475  12.335   2.015 -0.0375 -0.1857  0.2437
 2066W        W18540   2.363  15.527   1.617  0.0376 -0.1103  0.2791
 2067W        W18541   1.779   0.683   0.454  0.1563  0.2122 -0.0331
 2068W        W18542   1.969  11.214  11.937  0.1082 -0.0384  0.4064
 2069W        W18543  16.823  17.771  11.832  0.0655 -0.0335 -0.0204
 2070W        W18544  14.130   1.154   3.441 -0.0802 -0.0223 -0.1125
 2071W        W18545   1.616  12.794  11.210  0.1068 -0.0414  0.1317
 2072W        W18546   8.623   2.501   9.314  0.2512 -0.0452  0.2425
 2073W        W18547   3.583   2.909   4.157 -0.2465  0.0371  0.3044
 2074W        W18548  16.732   0.991  11.039 -0.0251 -0.1951 -0.0660
 2075W        W18549   6.363   9.171  10.917  0.0343  0.1133  0.1112
 2076W        W18550   0.778   0.691  14.232 -0.4527 -0.0015 -0.1007
 2077W        W18551  11.985   1.085  11.182 -0.0056 -0.1248  0.0699
 2078W        W18552  11.132   6.929   9.524  0.1590  0.0780 -0.1393
 2079W        W18553   0.838  14.683  13.946 -0.1081  0.0469 -0.3465
 2080W        W18554  13.933   2.635  14.565 -0.0668  0.0277 -0.1972
 2081W        W18555   1.858  15.880  14.622 -0.0003  0.0700  0.0519
 2082W        W18556   7.020   5.144   9.027 -0.1924  0.0021  0.0623
 2083W        W18557   6.261  18.612   1.062 -0.1703  0.1905  0.1210
 2084W        W18558   9.067  14.789  13.468 -0.2189  0.0954  0.4403
 2085W        W18559   6.607   2.650  11.191  0.0113 -0.1008  0.2197
 2086W        W18560  16.713   0.081  11.878  0.1131 -0.1306 -0.0243
 2087W        W18561   0.491  13.836   0.044  0.2114  0.4381  0.2600
 2088W        W18562   3.269  10.124   3.681  0.1949  0.3077  0.1271
 2089W        W18563   2.303  10.917   2.976  0.1717  0.0799  0.0713
 2090W        W18564  12.971   4.921   1.194  0.3166  0.2549  0.2761
 2091W        W18565   0.403  11.063   3.770  0.3318  0.1172 -0.3735
 2092W        W18566   7.086  10.604   1.291 -0.0476 -0.0253  0.2779
 2093W        W18567   6.562   9.131   2.599  0.3220  0.0091  0.2039
 2094W        W18568   5.186   8.737   5.216 -0.2241  0.0331  0.0271
 2095W        W18569   0.382   1.330  12.701 -0.0070 -0.2092 -0.0131
 2096W        W18570   6.115  17.251   1.309 -0.0846  0.1894  0.0425
 2097W        W18571  15.108  10.646   4.624 -0.0089  0.0138 -0.1746
 2098W        W18572   6.248   2.925  10.033  0.0298 -0.1803  0.0349
 2099W        W18573   5.931   5.962  10.658  0.2081 -0.3982 -0.0527
 2100W        W18574   0.647   7.005  10.764  0.1831 -0.0200  0.3374
 2101W        W18575   5.915  11.495  12.635 -0.2022 -0.1476 -0.0948
 2102W        W18576  17.059  13.780   2.481  0.1851  0.2361 -0.1773
 2103W        W18577   4.180  16.381   4.428 -0.2573 -0.1799 -0.3650
 2104W        W18578   9.886   0.749   2.063  0.0326  0.1181  0.1022
 2105W        W18579   4.318   3.077   3.574 -0.1496  0.1213  0.1267
 2106W        W18580  11.072  13.505   9.717  0.2365 -0.0565 -0.0296
 2107W        W18581  11.638  18.430   3.654  0.0782 -0.1767  0.0025
 2108W        W18582   8.293   7.613   1.458 -0.0593  0.0740 -0.4460
 2109W        W18583  18.898   9.073   1.443  0.1419  0.3093  0.1807
 2110W        W18584   4.393   2.895   1.371  0.1923 -0.2457  0.0412
 2111W        W18585  16.784  15.507   0.667  0.0735 -0.0647  0.0382
 2112W        W18586   3.235  13.611   3.486 -0.2522  0.3310  0.1554
 2113W        W18587   9.679   5.513   2.515 -0.1977  0.0428 -0.1955
 2114W        W18588   5.723   8.839  12.489  0.2657 -0.4286  0.0049
 2115W        W18589  12.496  16.858  12.687  0.1799 -0.0348  0.1951
 2116W        W18590   4.781  14.084   2.404  0.1554 -0.1652  0.0442
 2117W        W18591   5.458   0.701   1.451 -0.0516  0.0898 -0.0096
 2118W        W18592  16.135  16.565   3.921  0.2874  0.1833 -0.1981
 2119W        W18593   9.488  11.940   1.706 -0.2803 -0.3301  0.1523
 2120W        W18594  15.886   7.749  13.570 -0.2587 -0.0840 -0.0986
 2121W        W18595   5.911  13.611   0.083 -0.0055  0.1255  0.4068
 2122W        W18596   5.847  10.978   3.923 -0.1275 -0.1084  0.0295
 2123W        W18597   8.130  18.896   4.986 -0.1452 -0.0492 -0.2708
 2124W        W18598  18.331  13.449  11.226 -0.0450 -0.1522  0.2382
 2125W        W18599  18.883   1.526  11.362 -0.0113  0.0803 -0.0720
 2126W        W18600  16.566   5.474   2.158 -0.0598 -0.0916 -0.0855
 2127W        W18601  19.090  13.865  14.795  0.2788 -0.1410  0.1624
 2128W        W18602   3.858  12.723   4.319  0.0403 -0.0199  0.0437
 2129W        W18603  14.238   2.989  14.455  0.2773  0.2120  0.1475
 2130W        W18604   8.334  16.213   2.868  0.3891  0.2529 -0.0158
 2131W        W18605   4.960  19.364   2.234  0.1774 -0.2755  0.0660
 2132W        W18606   9.688  19.292   0.316 -0.0470 -0.1326 -0.1522
 2133W        W18607   9.248   7.880  11.402 -0.0385  0.0948 -0.0428
 2134W        W18608  17.053   0.553   5.298 -0.1338 -0.0348  0.2815
 2135W        W18609  12.458  11.601   3.823  0.1551 -0.0779 -0.0295
 2136W        W18610  15.133  18.686  14.673 -0.0184 -0.0077 -0.0753
 2137W        W18611  18.469   1.978  10.589  0.0285  0.2993  0.3300
 2138W        W18612   1.010   5.075  12.690  0.2567 -0.0908 -0.0194
 2139W        W18613   6.498   5.345  11.572 -0.5405  0.1983 -0.3189
 2140W        W18614   7.584  13.478  12.415  0.0798 -0.1481 -0.2389
 2141W        W18615  15.440  12.450  10.524  0.1999  0.0969 -0.0510
 2142W        W18616  12.808  11.740  11.601 -0.0447 -0.0258 -0.1005
 2143W        W18617  16.955   5.691   0.250  0.1022  0.1980  0.0134
 2144W        W18618  13.019   7.512  13.591 -0.0194 -0.1022  0.1389
 2145W        W18619   5.334   3.861   0.841  0.1003  0.0464  0.0757
 2146W        W18620   4.465  16.755  11.288  0.1903 -0.3135  0.0411
 2147W        W18621  13.008  16.664   0.669  0.0567  0.3723  0.2485
 2148W        W18622  19.133   7.172   1.049  0.2535  0.2108 -0.1576
 2149W        W18623   6.399   2.964  14.614 -0.0018  0.1368 -0.3603
 2150W        W18624  14.234  17.430   0.701  0.2054  0.1546  0.1915
 2151W        W18625   1.206   9.357   2.992 -0.2749  0.2108 -0.0356
 2152W        W18626  17.902   1.367  11.438 -0.1446 -0.0272 -0.3282
 2153W        W18627   0.440  14.772   0.345 -0.1594  0.1533  0.2204
 2154W        W18628   4.841  17.662   2.634 -0.3803  0.1206  0.1130
 2155W        W18629  16.019   0.803   5.558  0.0157  0.5689 -0.0725
 2156W        W18630   1.029   9.609   4.813  0.0718 -0.3919 -0.0488
 2157W        W18631  19.180  19.274   1.129 -0.1026  0.0004 -0.2223
 2158W        W18632  18.250   2.243  10.890  0.0573  0.2524 -0.5120
 2159W        W18633   6.135   2.610  14.836 -0.0009  0.0586 -0.1145
 2160W        W18634  13.119   3.750  14.855  0.4544  0.0799  0.0320
 2161W        W18635  11.756  13.170   1.888 -0.1422 -0.0274 -0.0730
 2162W        W18636   4.454  15.282   2.808  0.0298  0.2061 -0.2271
 2163W        W18637   2.825   9.720  11.591  0.1230  0.0218 -0.0600
 2164W        W18638   9.676  16.410   0.899  0.3230 -0.1712  0.2104
 2165W        W18639  15.917   7.621   5.527  0.4388  0.0177  0.1634
 2166W        W18640  11.435   2.828   4.213 -0.3699  0.0654  0.2847
 2167W        W18641  11.824  10.122  11.222 -0.0348 -0.1845 -0.1947
 2168W        W18642   8.851  14.392   0.497 -0.1967 -0.0271 -0.0937
 2169W        W18643   4.773   9.899   3.378  0.1301  0.0627 -0.1256
 2170W        W18644  10.141   3.797   1.447 -0.1103 -0.2922  0.2131
 2171W        W18645  13.821  14.780   2.096  0.1034 -0.0268 -0.1328
 2172W        W18646   4.693  10.274   2.297 -0.0811 -0.2256  0.1761
 2173W        W18647  12.769   0.175   1.202 -0.2984  0.2735  0.2284
 2174W        W18648   5.505   1.045  14.217 -0.0451  0.0066 -0.2569
 2175W        W18649   8.326   4.021  14.338  0.1542 -0.0151 -0.1517
 2176W        W18650   5.129   0.853  13.387 -0.2901  0.2418  0.0941
 2177W        W18651  18.037  13.022  11.784 -0.1790 -0.3349  0.2718
 2178W        W18652  11.310   5.279   3.424  0.1008 -0.0312  0.1686
 2179W        W18653  16.062   4.697   4.143  0.2285 -0.0291  0.1587
 2180W        W18654  14.038   5.332   5.794  0.2627 -0.0234 -0.1971
 2181W        W18655   6.697  17.107  12.370  0.0655 -0.0775  0.0558
 2182W        W18656   0.035   4.305  11.945 -0.3154  0.1083  0.2321
 2183W        W18657  17.024   0.130   4.548 -0.2056 -0.0147 -0.3040
 2184W        W18658  11.043   0.422   2.734  0.4875  0.0276  0.0196
 2185W        W18659  18.328   9.254   1.553  0.0697  0.2710 -0.0543
 2186W        W18660   0.319   1.041   1.585 -0.2269 -0.1106 -0.1821
 2187W        W18661  12.277   9.597   1.499 -0.4656  0.0388  0.1505
 2188W        W18662  10.176  12.378   3.771 -0.1690 -0.1059  0.1887
 2189W        W18663  13.185  12.351  12.008  0.1204 -0.1604  0.0468
 2190W        W18664  12.717   9.389  13.511 -0.2883  0.2749 -0.1305
 2191W        W18665   1.004  12.843   0.694 -0.0869 -0.0973  0.0091
 2192W        W18666  16.972   0.598  11.503 -0.1862  0.1140 -0.0523
 2193W        W18667   4.476  11.313   1.634  0.1495 -0.0480 -0.0042
 2194W        W18668   6.027   0.728  12.617 -0.0019  0.2418 -0.3813
 2195W        W18669  17.003  11.938   1.659  0.3709  0.0558 -0.1106
 2196W        W18670   0.959   7.975   9.488  0.1871 -0.2966 -0.4387
 2197W        W18671   5.504   6.909   2.147  0.0340 -0.4213 -0.0877
 2198W        W18672   5.319  14.548  14.840  0.2195  0.0711  0.2556
 2199W        W18673  12.506   2.869   3.887 -0.0230 -0.2905  0.1516
 2200W        W18674   9.009  17.268  14.036  0.3806 -0.0174  0.2180
 2201W        W18675  14.537   2.152  13.081 -0.0712  0.0157 -0.0884
 2202W        W18676   5.262   9.256   4.002 -0.0965  0.1039  0.0097
 2203W        W18677  18.447   8.553   3.619  0.3143  0.4371 -0.1593
 2204W        W18678   0.862  10.490  11.189  0.4125  0.2312 -0.1659
 2205W        W18679  16.266   2.798  14.784 -0.0310  0.1290  0.0734
 2206W        W18680   5.540  16.664   4.561  0.1135 -0.3577 -0.0867
 2207W        W18681  18.982  12.824   3.570  0.1828  0.0978 -0.1487
 2208W        W18682  18.830  12.194   2.039  0.4856 -0.1453  0.2176
 2209W        W18683   0.791  15.081   5.035 -0.2387 -0.1742  0.3613
 2210W        W18684  11.909   9.273  13.988  0.1334 -0.0520 -0.1090
 2211W        W18685   8.607   3.929   9.376 -0.1197  0.0763 -0.0832
 2212W        W18686  12.027   1.772   0.971 -0.3751  0.2668 -0.2076
 2213W        W18687  10.196   2.467   2.921  0.1919  0.3385  0.0990
 2214W        W18688   5.359  12.498  13.605  0.0740  0.1187  0.1182
 2215W        W18689  10.755  18.977   3.695  0.3164 -0.0321  0.1040
 2216W        W18690  11.491  17.270  11.754  0.0471  0.0461  0.1314
 2217W        W18691   7.949  18.176  10.332  0.0509 -0.3150  0.1599
 2218W        W18692  14.117   9.280   0.867 -0.0231 -0.0998 -0.1835
 2219W        W18693   5.970  13.099  11.753 -0.0833  0.2241 -0.2038
 2220W        W18694   0.375   3.461  12.854  0.2341  0.0337  0.2540
 2221W        W18695   5.990  13.226  14.278 -0.4138  0.0706  0.3937
 2222W        W18696   1.053  15.795  12.331 -0.1146 -0.1510  0.1893
 2223W        W18697   0.940   1.286  10.397  0.3103  0.1689  0.2920
 2224W        W18698   6.017  15.356   1.325 -0.0912  0.0148  0.2524
 2225W        W18699   6.443   3.235  13.811  0.0035  0.1978 -0.0672
 2226W        W18700   2.665  16.758   0.212 -0.2567  0.1199 -0.2790
 2227W        W18701   2.766  15.746  12.150  0.1147 -0.0317 -0.1131
 2228W        W18702  12.169   6.407   2.841  0.0134  0.0397 -0.1092
 2229W        W18703   3.653   3.211   1.213  0.0215  0.1608  0.3507
 2230W        W18704  13.150  12.461  11.169  0.0692  0.0400  0.0571
 2231W        W18705   3.071   6.469   2.534  0.0699  0.4040 -0.1325
 2232W        W18706  13.035  14.392  13.861  0.1775  0.4860  0.2675
 2233W        W18707   7.931  14.870  13.750 -0.2606 -0.0531  0.4654
 2234W        W18708  11.524  18.624   4.766  0.1895 -0.0832  0.1837
 2235W        W18709   5.069   5.075   1.568  0.1281  0.1045  0.0276
 2236W        W18710  10.159  10.785  14.312 -0.1365  0.2528 -0.5308
 2237W        W18711  12.287   5.261   4.841 -0.0031  0.0949  0.1687
 2238W        W18712   3.497   8.393   1.193 -0.1178  0.2195 -0.0227
 2239W        W18713  13.858  12.923  12.490 -0.1244  0.3588  0.0964
 2240W        W18714   4.665  14.039   0.318 -0.0093  0.0387  0.1800
 2241W        W18715   1.993  18.520   4.784  0.0270 -0.0411  0.0916
 2242W        W18716   9.912  15.937  13.593 -0.3579  0.0958 -0.0085
 2243W        W18717  18.990  10.956   2.567 -0.1550 -0.3308 -0.0436
 2244W        W18718   3.537   2.269  12.939  0.2917  0.1814 -0.1640
 2245W        W18719  13.180   3.426  12.069 -0.0215  0.2168  0.5286
 2246W        W18720  15.027   8.633   3.535 -0.2355  0.3648  0.0152
 2247W        W18721  14.729  18.415   1.858  0.1507  0.0549  0.3931
 2248W        W18722   5.381  18.289   1.562  0.3863  0.0482 -0.0455
 2249W        W18723   0.596   9.425   0.686  0.2792 -0.0191 -0.0205
 2250W        W18724   4.419  11.733   2.449 -0.0503  0.0907 -0.0067
 2251W        W18725  10.279  10.027  11.066  0.2948  0.2742  0.1274
 2252W        W18726  10.837   2.634   2.850  0.2386  0.3065  0.0786
 2253W        W18727   2.148  12.787   3.028 -0.0384  0.1392  0.1766
 2254W        W18728  16.276  11.144  11.520 -0.0541 -0.2323  0.1832
 2255W        W18729   2.530   8.722   2.251  0.4421 -0.3813 -0.1873
 2256W        W18730  15.227   4.048  12.890 -0.0675  0.2624  0.1644
 2257W        W18731  13.429   2.895   0.926  0.0805  0.0309 -0.1792
 2258W        W18732   9.992  17.562   0.609 -0.1950 -0.3158 -0.1746
 2259W        W18733  18.762   0.379   3.939 -0.0050 -0.0851  0.4707
 2260W        W18734  14.096   2.998  12.967 -0.2011 -0.0050  0.1769
 2261W        W18735   1.793  12.141  11.980 -0.0927 -0.0037 -0.0568
 2262W        W18736   5.695   0.670  10.317 -0.1666  0.1523 -0.1473
 2263W        W18737   8.326   1.415  14.039  0.1709 -0.0041  0.3245
 2264W        W18738   8.972  18.843   1.609 -0.0805  0.0023  0.1017
 2265W        W18739   9.449   8.375   3.819 -0.1790 -0.3036 -0.1947
 2266W        W18740  11.746   0.492   1.680 -0.0766  0.0081 -0.1126
 2267W        W18741   2.191   7.850  11.203 -0.0745  0.0753 -0.4013
 2268W        W18742  13.292  12.117   0.151 -0.1055 -0.2206 -0.1288
 2269W        W18743   2.891   9.857   1.548 -0.1684  0.0439  0.1859
 2270W        W18744  12.325   7.376  12.182  0.0438  0.0603 -0.3621
 2271W        W18745   7.731   9.033   3.664  0.1087  0.2931 -0.0104
 2272W        W18746   5.494  13.585   4.945  0.0042  0.0987 -0.0772
 2273W        W18747  16.301  14.725  12.919  0.2460 -0.1592  0.0530
 2274W        W18748  13.730   0.430   0.258 -0.1335 -0.0826 -0.0491
 2275W        W18749   1.246   3.440   1.085 -0.1317  0.1706 -0.0955
 2276W        W18750   0.855   6.040   4.746  0.1256 -0.0183  0.2736
 2277W        W18751   3.210   0.373  12.258 -0.2619  0.0891 -0.3117
 2278W        W18752   1.434  10.857  11.769  0.2715  0.1827 -0.3359
 2279W        W18753   7.246  17.396  11.734 -0.0595 -0.0101  0.0971
 2280W        W18754   1.129   2.287  11.049 -0.0172 -0.3263 -0.2628
 2281W        W18755   0.638   4.013  14.617  0.1584  0.4047 -0.1042
 2282W        W18756  13.498  16.167  13.462  0.0393 -0.5345 -0.3677
 2283W        W18757   3.098  14.508   5.445  0.1854 -0.0119  0.1525
 2284W        W18758   6.722  16.223   1.917  0.0248  0.0197  0.0732
 2285W        W18759  14.282   5.121  13.090 -0.0100  0.0657  0.3184
 2286W        W18760   0.222   1.370   2.926  0.0883 -0.0888  0.0020
 2287W        W18761  15.096  10.847   1.661 -0.0846  0.4639 -0.1134
 2288W        W18762  18.762   4.817   1.682 -0.0829 -0.2488  0.1863
 2289W        W18763   4.434  15.927  11.596  0.0976  0.0824  0.1277
 2290W        W18764   7.157   3.431  11.255 -0.1151  0.0967 -0.1366
 2291W        W18765   7.969  13.911   0.217  0.0707 -0.3423 -0.0787
 2292W        W18766  10.332   0.500   3.965 -0.0354 -0.0670 -0.1960
 2293W        W18767   6.440   2.865   3.590 -0.0373 -0.1271 -0.0958
 2294W        W18768   5.719  19.248   0.364 -0.0046  0.2038  0.1446
 2295W        W18769  14.364   9.134   4.018  0.1025  0.2472  0.2855
 2296W        W18770   4.799   8.947   3.874  0.1975 -0.2872  0.0672
 2297W        W18771  18.796  16.441  14.327  0.0187  0.6201  0.0600
 2298W        W18772   8.203   7.605   4.002 -0.1035 -0.1564  0.1888
 2299W        W18773   7.342   3.187  12.241 -0.2211 -0.0685  0.1098
 2300W        W18774  18.277  15.098   3.981 -0.0804 -0.1121 -0.1553
 2301W        W18775   9.792  12.238  13.839 -0.3030 -0.1353 -0.0243
 2302W        W18776   4.273   0.087  14.543 -0.1085 -0.2753  0.0229
 2303W        W18777  16.880  17.963   0.351  0.2717 -0.1847 -0.0351
 2304W        W18778  12.582  13.902   3.880 -0.2167  0.4162  0.1611
 2305W        W18779   9.279   5.575  14.229  0.1249  0.0368 -0.0169
 2306W        W18780   0.349  11.493   0.021  0.2666 -0.0759  0.0762
 2307W        W18781   9.278   7.934   2.155 -0.1711  0.0016 -0.1473
 2308W        W18782  10.854  18.445  12.489 -0.0845 -0.2089  0.1497
 2309W        W18783  10.318  14.402  13.021 -0.0696  0.1732  0.0889
 2310W        W18784   3.085   5.252  12.313  0.1347  0.2174 -0.2893
 2311W        W18785   0.715  15.065   1.847  0.1141  0.0679 -0.3655
 2312W        W18786   3.664  16.435  11.401 -0.2736  0.1391  0.2203
 2313W        W18787  17.578   7.916   1.815  0.1777  0.1372 -0.0130
 2314W        W18788   1.281  18.490   0.266 -0.0434 -0.4262  0.3042
 2315W        W18789  13.257   8.331  12.957  0.4083  0.0384  0.0270
 2316W        W18790   3.811  10.612   0.388  0.3025  0.1374  0.0941
 2317W        W18791  13.443  12.525  10.323 -0.1529 -0.1263  0.0616
 2318W        W18792  13.958  15.387  12.636 -0.0284  0.1324  0.0195
 2319W        W18793   7.667   2.324  10.928 -0.0170 -0.2715 -0.2056
 2320W        W18794  17.387   6.360   0.410  0.0190  0.1992  0.2185
 2321W        W18795  15.406   9.545   0.654  0.0363 -0.0933 -0.3362
 2322W        W18796  11.142   5.939  13.702 -0.1752  0.1222  0.0218
 2323W        W18797   6.422  13.050  13.591  0.1072  0.2249 -0.0986
 2324W        W18798  15.043   9.299  13.596 -0.1948 -0.1769 -0.0118
 2325W        W18799   1.874   7.349  14.545 -0.1568 -0.0976 -0.0496
 2326W        W18800   7.343   7.762   0.574 -0.1831  0.2944  0.0046
 2327W        W18801   3.427   5.266  11.413  0.2504 -0.3500  0.0270
 2328W        W18802  17.560  12.418   5.671  0.1531 -0.0737 -0.0911
 2329W        W18803  17.639  10.848   1.364  0.1406 -0.0135  0.0550
 2330W        W18804   2.236  14.646  14.037 -0.2798  0.2243 -0.3989
 2331W        W18805   2.020   9.086  13.732  0.0753 -0.3937 -0.3888
 2332W        W18806   6.434   1.020   4.917  0.3539 -0.3013  0.2194
 2333W        W18807   2.654  15.930   1.771 -0.3988 -0.1509 -0.1872
 2334W        W18808   2.278   6.937  11.731  0.1310  0.4016 -0.0039
 2335W        W18809   4.790  16.613  12.766  0.0728  0.1011  0.1909
 2336W        W18810  17.164  12.078  11.529 -0.1502  0.2096 -0.2300
 2337W        W18811   7.999  11.046   0.740  0.2013 -0.1133 -0.2762
 2338W        W18812   8.396   6.068   1.294  0.0736 -0.1255 -0.2619
 2339W        W18813  12.863  17.861  12.706  0.3960  0.2337 -0.0581
 2340W        W18814  18.026  18.956   0.082 -0.1107 -0.0624 -0.0684
 2341W        W18815   2.634   8.461  14.591 -0.1040  0.0265  0.2017
 2342W        W18816  13.142   1.902   5.218 -0.2870  0.0021  0.2009
 2343W        W18817   3.121   3.454  10.602  0.0551  0.1919  0.2653
 2344W        W18818  18.626  13.773  13.923 -0.2744  0.2716 -0.2531
 2345W        W18819   3.897  11.534   3.532 -0.0012  0.2550  0.1138
 2346W        W18820  17.909   7.053   2.720 -0.3717 -0.0513  0.1178
 2347W        W18821  10.000  16.180   5.051  0.1197  0.0516 -0.1840
 2348W        W18822   3.778   1.355  11.314  0.1381 -0.2487 -0.0870
 2349W        W18823   7.708  18.548   4.913 -0.0222  0.2174 -0.3145
 2350W        W18824  15.779   0.666   0.258 -0.2236  0.1338 -0.1043
 2351W        W18825  10.880  18.349  11.042  0.0010 -0.2257 -0.0711
 2352W        W18826   3.582  12.256   3.104  0.1308 -0.0728 -0.5610
 2353W        W18827  14.469  18.460   0.843 -0.1565  0.1561 -0.0105
 2354W        W18828  16.770   7.218   1.280  0.0996  0.0471 -0.0350
 2355W        W18829   8.820  14.150   1.379 -0.0056  0.0591  0.0123
 2356W        W18830   9.220  14.555   2.628 -0.2399 -0.0053 -0.2056
 2357W        W18831  16.372   7.514  13.465 -0.1707 -0.1092  0.1613
 2358W        W18832  12.795  10.521  10.369  0.2117  0.4594  0.2044
 2359W        W18833  10.639  19.199  14.854  0.0522  0.1693 -0.1591
 2360W        W18834  11.812   9.087   2.859  0.2487  0.4875  0.3166
 2361W        W18835  11.239  18.290   4.064 -0.0977 -0.0912  0.0512
 2362W        W18836   0.962   4.994   2.546  0.2547  0.0611 -0.0317
 2363W        W18837  14.752  16.712   2.218  0.1256  0.1066  0.3204
 2364W        W18838   7.623  13.978  10.344 -0.1795 -0.1641  0.0863
 2365W        W18839  12.526  12.926  11.353  0.2366  0.0263  0.0264
 2366W        W18840  18.039  15.441   1.890  0.0884  0.2497 -0.1119
 2367W        W18841   3.674  17.591   4.865 -0.1557 -0.1026 -0.4368
 2368W        W18842  14.676   9.361  14.820 -0.1331  0.3427 -0.2001
 2369W        W18843   3.536  14.757  12.552  0.0241 -0.1315  0.3639
 2370W        W18844   5.979   6.562  12.468  0.3234 -0.0739  0.0170
 2371W        W18845   2.548   8.451  12.968  0.2390 -0.0989 -0.0907
 2372W        W18846   0.848   3.763  12.055 -0.0235  0.1648 -0.2953
 2373W        W18847  15.629   1.844   0.619  0.1213  0.3861 -0.0277
 2374W        W18848   1.090   7.619  12.163  0.0202  0.2359 -0.1395
 2375W        W18849   9.449  15.275  12.194 -0.3123  0.0961  0.0949
 2376W        W18850  12.547   2.782  10.663  0.1225 -0.1906  0.2849
 2377W        W18851  11.502  18.092  13.737  0.0022  0.0375 -0.0414
 2378W        W18852  10.436   9.381  10.384  0.2712  0.0668  0.3532
 2379W        W18853  10.370  16.532  14.139 -0.1833  0.0753  0.1209
 2380W        W18854   7.449   4.204   0.730 -0.1576  0.0012 -0.3246
 2381W        W18855  14.714   8.312  12.451  0.0892  0.1978 -0.2662
 2382W        W18856  11.965   6.542   4.824  0.0595  0.1122  0.0033
 2383W        W18857   1.279  11.386   4.399  0.1128  0.1177 -0.0313
 2384W        W18858  11.201  17.932  12.398  0.1531  0.2045  0.3152
 2385W        W18859  17.107   5.718   5.023 -0.3663  0.0725  0.0023
 2386W        W18860   0.569  14.672   2.757  0.1057 -0.2650  0.1603
 2387W        W18861   1.244  14.411  14.239 -0.0093 -0.0468  0.1552
 2388W        W18862  18.800   5.112   5.130  0.0681  0.0684  0.0111
 2389W        W18863   3.335   8.736   3.135  0.2937 -0.3477  0.0802
 2390W        W18864   7.886   0.160   3.076 -0.3398 -0.0179  0.0540
 2391W        W18865   7.114   4.765  13.561  0.0458 -0.0076  0.1618
 2392W        W18866   2.717  17.765  14.426 -0.0493 -0.4526  0.2758
 2393W        W18867   7.143   4.080   1.165  0.0804 -0.2614  0.3621
 2394W        W18868   2.466  15.320  10.083  0.1942 -0.3822  0.2431
 2395W        W18869  16.671   3.105   3.649  0.0711 -0.0706  0.1727
 2396W        W18870   3.633  17.677   2.606  0.0887 -0.1674  0.1855
 2397W        W18871  13.119   0.944   9.577 -0.1611 -0.0744  0.1430
 2398W        W18872   9.644   7.250   3.965 -0.1212  0.0496  0.0619
 2399W        W18873  14.972  17.893   0.146 -0.0919 -0.2227 -0.1559
 2400W        W18874  16.571   2.750   0.766 -0.2193  0.0215 -0.0649
 2401W        W18875  13.561   7.427   1.018  0.2567  0.3270  0.0777
 2402W        W18876   6.822   8.155  10.491  0.2091  0.2289 -0.0184
 2403W        W18877  11.182  13.669   3.555  0.2836 -0.0700 -0.0429
 2404W        W18878   1.899  10.250   4.035 -0.0779  0.0945 -0.3403
 2405W        W18879  13.787   0.899   2.740 -0.3493 -0.0657 -0.0411
 2406W        W18880   5.763  17.673   3.132  0.0978  0.0670 -0.2444
 2407W        W18881   2.203  15.001   5.135  0.1632 -0.3655 -0.0600
 2408W        W18882   6.816   8.467  14.380 -0.0929  0.0849 -0.1191
 2409W        W18883  17.964  11.142  11.522  0.0714 -0.1406  0.3223
 2410W        W18884   3.214  11.653   1.375 -0.0144  0.2893 -0.0093
 2411W        W18885   1.076  13.140   4.220 -0.0266  0.1953 -0.2370
 2412W        W18886   0.507   3.869   3.370 -0.1224  0.0454 -0.1746
 2413W        W18887  11.465  13.439  11.129  0.1128  0.2579  0.1537
 2414W        W18888  11.016   7.208   3.338  0.3880 -0.0545 -0.0936
 2415W        W18889  12.288  12.981   4.027 -0.1633  0.0670 -0.0404
 2416W        W18890  14.812  10.671   0.140 -0.0662 -0.2630 -0.2537
 2417W        W18891   7.586   3.201  14.766  0.2799  0.0318  0.2753
 2418W        W18892  14.382   1.630  12.844  0.1933 -0.2455  0.1316
 2419W        W18893  10.452   9.918   3.834  0.0823 -0.3836  0.0185
 2420W        W18894  15.319   6.753  11.360  0.0953 -0.1188  0.1941
 2421W        W18895   3.544   8.995  10.888  0.3186 -0.1354  0.1589
 2422W        W18896   9.720   4.074   2.263 -0.0326 -0.2381  0.4279
 2423W        W18897  14.006   8.200  13.336  0.0394 -0.0246  0.0804
 2424W        W18898   6.816  12.458   1.684 -0.2245  0.0185  0.0564
 2425W        W18899  14.528  17.552   3.583 -0.1507  0.3961 -0.0549
 2426W        W18900   2.560   3.733  13.712 -0.0752  0.1527 -0.2552
 2427W        W18901   2.221  15.153   4.568  0.4243 -0.2864  0.0816
 2428W        W18902   6.234  10.711   3.555  0.0491  0.3631  0.1980
 2429W        W18903  11.938   3.561   0.735 -0.0109  0.1362  0.1005
 2430W        W18904  14.263  16.555   2.360  0.4858  0.1027 -0.1793
 2431W        W18905   4.346  13.427   1.884  0.1040 -0.0900 -0.1254
 2432W        W18906   5.676   3.383  11.036  0.3128  0.0345 -0.1357
 2433W        W18907  15.020   6.596   2.603 -0.2678  0.0587  0.3220
 2434W        W18908   8.725   8.380   9.879  0.3453 -0.0158  0.1821
 2435W        W18909   5.486   5.253  10.600  0.0547 -0.0833  0.1551
 2436W        W18910   3.020   3.755   0.232  0.0106 -0.2517 -0.0641
 2437W        W18911   9.996   5.935  12.944 -0.1872 -0.0339  0.0373
 2438W        W18912   1.889   6.196  11.744  0.2199 -0.1685 -0.0099
 2439W        W18913  12.808   4.750   2.047 -0.0169  0.1664 -0.4043
 2440W        W18914  14.864   9.574  13.261 -0.3158 -0.2011 -0.0303
 2441W        W18915  11.351  10.332  10.501 -0.3061  0.2240  0.1692
 2442W        W18916  10.830   5.062  10.115 -0.0075  0.1313  0.3613
 2443W        W18917  11.984  10.381   2.180  0.2003  0.2783 -0.2327
 2444W        W18918  14.062  16.911   2.913  0.0859 -0.0729 -0.0467
 2445W        W18919  17.298  12.010   3.765  0.1843  0.1456  0.0732
 2446W        W18920  12.913  18.575  12.603  0.0143  0.2055  0.0333
 2447W        W18921   1.885   4.666   1.826 -0.2096  0.2603 -0.0296
 2448W        W18922  17.161  12.659   0.110  0.2022 -0.3041 -0.0950
 2449W        W18923  14.429  12.182  12.752 -0.1324 -0.2259  0.1331
 2450W        W18924  19.318   3.205   3.894  0.0253 -0.0610 -0.3288
 2451W        W18925   2.693  13.034   0.278  0.0366 -0.0025  0.2516
 2452W        W18926   5.758  17.201  11.888 -0.2058 -0.3576  0.3304
 2453W        W18927   9.962   8.754  10.355 -0.0078 -0.0671  0.1392
 2454W        W18928  11.849  11.760  10.656  0.2095 -0.0787  0.0292
 2455W        W18929   3.601  18.278   4.123 -0.0036 -0.1285  0.0421
 2456W        W18930   6.667  12.837   2.668  0.1433  0.3737  0.0821
 2457W        W18931   1.781  14.696   1.674  0.1378  0.1898  0.1496
 2458W        W18932   8.114  10.486   1.035 -0.0713  0.0403  0.1344
 2459W        W18933  12.454   6.666   0.769 -0.4562 -0.0034  0.0378
 2460W        W18934   6.091   4.887   0.694  0.0609 -0.1564 -0.2880
 2461W        W18935   2.450  12.088  14.142  0.1148 -0.2895  0.4393
 2462W        W18936   7.333  16.873   5.702  0.2812 -0.1012 -0.0090
 2463W        W18937  10.907   1.211  12.876 -0.0920  0.0168 -0.2154
 2464W        W18938  16.638  11.550   3.120  0.2125  0.0353  0.4048
 2465W        W18939   0.779  16.282   1.228  0.0809 -0.0324  0.2508
 2466W        W18940  14.962  16.691   4.276 -0.0288 -0.0284  0.1415
 2467W        W18941   8.104   7.349  13.391 -0.0682  0.2102  0.0465
 2468W        W18942   1.547   6.022   3.558 -0.5669 -0.0484 -0.1469
 2469W        W18943  15.989   1.485   0.522 -0.1258  0.2376  0.2055
 2470W        W18944   1.208   8.670   0.505 -0.2189 -0.2246 -0.2859
 2471W        W18945   8.023  19.123  11.045  0.1697  0.0416 -0.1630
 2472W        W18946  18.588  16.254  13.295 -0.2267 -0.1093  0.0550
 2473W        W18947   6.393   1.549   9.944 -0.2677  0.2354 -0.0821
 2474W        W18948  15.308   2.565   4.826 -0.0849 -0.1096 -0.2119
 2475W        W18949   5.686   4.999  14.205 -0.1001 -0.2701 -0.1659
 2476W        W18950  17.441  11.845   1.203 -0.1801  0.0563  0.1399
 2477W        W18951  11.426   2.240  11.887 -0.1375 -0.4563 -0.1586
 2478W        W18952   9.385  15.177   4.916  0.0171  0.1473  0.1433
 2479W        W18953  19.263  18.580  11.850  0.5804  0.2004  0.3047
 2480W        W18954   5.393   1.988  10.627  0.2281  0.0516  0.1172
 2481W        W18955   4.913   4.563   9.772 -0.1093 -0.2472  0.0609
 2482W        W18956   2.940   8.426  12.594  0.0361  0.1025  0.0559
 2483W        W18957  16.239   8.247  12.994  0.0210 -0.2999  0.1894
 2484W        W18958   8.058   2.805   0.009  0.1995 -0.0508  0.1537
 2485W        W18959  10.793   2.847   2.370  0.3422  0.0320 -0.1206
 2486W        W18960   9.333  14.223  10.253 -0.0086 -0.0809  0.1453
 2487W        W18961   3.918   2.600   1.258 -0.0822  0.2241 -0.1059
 2488W        W18962   9.125  13.901  12.470 -0.1415  0.0132  0.0740
 2489W        W18963  12.428  13.456   3.691 -0.2263  0.0980  0.2425
 2490W        W18964  16.122  16.515   4.395 -0.0322  0.2420 -0.0538
 2491W        W18965   4.255  16.647  14.220 -0.0939 -0.2305  0.0587
 2492W        W18966  10.372   7.981  10.887 -0.1183 -0.0465  0.0500
 2493W        W18967   2.844   9.047  14.007  0.0597 -0.0610  0.0558
 2494W        W18968   7.830  18.191   0.206 -0.1126 -0.2568  0.3397
 2495W        W18969   5.162  18.931  10.689 -0.0426  0.3390 -0.1901
 2496W        W18970   0.862   6.095   1.422  0.1592  0.0836  0.2250
 2497W        W18971  14.705  12.599   1.051  0.2120  0.0313 -0.4059
 2498W        W18972  16.065  16.517  12.175  0.1888 -0.2798  0.0720
 2499W        W18973  14.152   9.855   1.843 -0.0392  0.0025  0.3107
 2500W        W18974   5.912   8.021   3.444  0.0996  0.2223 -0.0759
 2501W        W18975  13.842  11.960   1.084 -0.0493  0.1024  0.0472
 2502W        W18976  11.962   4.863  14.569  0.0663 -0.0646 -0.2846
 2503W        W18977  16.794  17.805  11.228  0.0296  0.1540 -0.0791
 2504W        W18978   2.026   6.363  14.853  0.4086  0.0805  0.2186
 2505W        W18979   3.026   8.605  10.287  0.0228  0.1152  0.1382
 2506W        W18980  11.397   3.758   0.780 -0.1812 -0.0979  0.3871
 2507W        W18981  17.209   9.927   3.061 -0.0843 -0.1298 -0.0753
 2508W        W18982   9.118  17.455   2.454 -0.0675 -0.4252 -0.1361
 2509W        W18983  18.561  10.068  11.205 -0.2493  0.0055  0.1266
 2510W        W18984   3.528   6.713   2.546  0.3100  0.1514  0.0252
 2511W        W18985   1.924   5.503  11.044  0.0252 -0.1928  0.0936
 2512W        W18986   8.172   5.244   4.867 -0.0604 -0.2045 -0.0503
 2513W        W18987   0.077  12.926  14.334 -0.1468 -0.2467 -0.1445
 2514W        W18988   9.799   8.680   1.606 -0.1223 -0.1027 -0.0916
 2515W        W18989   0.970  16.715  13.279 -0.2352  0.1534 -0.1286
 2516W        W18990  14.420  12.643   1.508  0.2393  0.1083 -0.1009
 2517W        W18991   1.562   5.242  11.198  0.0654  0.1315  0.4020
 2518W        W18992   3.183   7.650   9.452 -0.0537 -0.2518 -0.2542
 2519W        W18993  14.567   6.354   4.029  0.2196  0.0057  0.1136
 2520W        W18994   9.539  10.904  10.642  0.0148 -0.2152  0.1718
 2521W        W18995   8.869   8.001  12.513  0.1168  0.1865 -0.0414
 2522W        W18996  13.356   8.394   4.146 -0.3378  0.1822 -0.1984
 2523W        W18997  17.310  17.849  12.125 -0.0595 -0.0714 -0.0132
 2524W        W18998   4.148   1.182  14.872  0.1414 -0.2840  0.0913
 2525W        W18999   8.488   6.408  12.827 -0.0745 -0.2166 -0.0999
 2526W        W19000   7.826   4.159   3.213  0.1821 -0.0703 -0.0680
 2527W        W19001   5.483  11.968  11.983 -0.2744  0.0958 -0.1815
 2528W        W19002  18.794   3.056  11.964  0.1509 -0.0341  0.0497
 2529W        W19003  15.067   1.802  11.859  0.2262  0.2309  0.1520
 2530W        W19004   2.614   8.352  10.078 -0.0447 -0.1238  0.0900
 2531W        W19005  13.232   4.605   4.143  0.0207  0.0100  0.1113
 2532W        W19006   3.985   0.523  12.780 -0.1071  0.1646 -0.2648
 2533W        W19007   7.399  12.869  10.365 -0.1425  0.0626 -0.1268
 2534W        W19008   0.047   2.987  10.741 -0.0248  0.4296  0.0454
 2535W        W19009  13.748   5.802  10.411  0.0144  0.4131  0.1097
 2536W        W19010   1.751   0.883  13.956  0.0118  0.0136 -0.0160
 2537W        W19011  12.168   0.283  11.630 -0.5697  0.1444  0.0894
 2538W        W19012   7.261   9.705  12.792 -0.0242 -0.1088 -0.0004
 2539W        W19013   7.553   4.400  14.798 -0.1432  0.1964  0.3521
 2540W        W19014   5.998  18.095   9.552  0.1419 -0.3702  0.2056
 2541W        W19015  12.072  11.561   1.102 -0.0574  0.0323  0.2397
 2542W        W19016  16.503   8.798   5.579  0.1814 -0.1963  0.1548
 2543W        W19017   1.347  15.505   3.684 -0.0612 -0.0861 -0.0278
 2544W        W19018  18.470  14.545   1.034  0.2670 -0.1787 -0.1278
 2545W        W19019  17.189  18.522   3.474 -0.0256 -0.1015 -0.0830
 2546W        W19020  18.996  10.309  11.406 -0.0264 -0.1121  0.0249
 2547W        W19021  10.484   1.577   3.904  0.4513  0.0974  0.2611
 2548W        W19022   5.292  15.780   2.628 -0.1791 -0.0351 -0.0952
 2549W        W19023  11.597  19.245  14.741  0.0240  0.4064  0.0287
 2550W        W19024   6.591   2.408   3.643 -0.3606  0.0762 -0.2162
 2551W        W19025   4.047  15.413  10.547 -0.2549 -0.0680 -0.0666
 2552W        W19026  18.802  16.360   3.083 -0.1593  0.1003 -0.1905
 2553W        W19027  12.277  14.863  11.801  0.0391  0.0043  0.1180
 2554W        W19028   9.828   3.557   4.277  0.1787  0.0361 -0.2263
 2555W        W19029  10.056   2.602  10.585  0.1644  0.0560 -0.0698
 2556W        W19030   6.979  11.209  10.923 -0.2046  0.1235  0.1680
 2557W        W19031   5.358  18.155   0.974  0.0183  0.2871 -0.2143
 2558W        W19032   9.631   7.007   1.867 -0.2286  0.1882 -0.0229
 2559W        W19033   3.807  16.220   0.773  0.0818  0.2382 -0.0075
 2560W        W19034   4.446   6.035   3.059  0.5055  0.0891 -0.1824
 2561W        W19035  18.203  11.795  14.243  0.3731 -0.0421 -0.0193
 2562W        W19036  10.332   7.199  11.605 -0.0478  0.0207  0.1903
 2563W        W19037   7.950   0.938   2.784 -0.1062 -0.3049  0.1759
 2564W        W19038  13.888  15.839  11.870 -0.1905  0.1677 -0.0116
 2565W        W19039   6.952  19.269  10.743 -0.1498 -0.2648  0.1731
 2566W        W19040  16.320  10.620   1.527  0.1048 -0.0131 -0.0381
 2567W        W19041   3.893   0.781  12.376  0.2198  0.0012 -0.1076
 2568W        W19042  11.410   3.286  11.488  0.0927  0.1297 -0.1461
 2569W        W19043   4.871   2.202  11.540 -0.0982 -0.0270  0.0398
 2570W        W19044   4.461  11.933  12.796  0.0698 -0.2148 -0.2363
 2571W        W19045  15.750   6.320   4.258  0.0571  0.2651  0.4775
 2572W        W19046   4.114  11.234   4.883  0.1400 -0.1422 -0.2601
 2573W        W19047   0.805  14.996  14.854  0.0760 -0.0522  0.0082
 2574W        W19048  17.221   8.907  12.364  0.1364 -0.0144  0.0686
 2575W        W19049  11.984   7.707  10.423 -0.0202  0.0607  0.3233
 2576W        W19050  12.990   1.756   3.521 -0.1336  0.2068 -0.1753
 2577W        W19051  10.211   2.516   3.449 -0.0264  0.2238  0.0729
 2578W        W19052   2.446   5.369   4.397 -0.0473 -0.0375  0.0680
 2579W        W19053  18.547   2.903   4.935  0.2658  0.1315  0.1531
 2580W        W19054   0.093   6.581  12.908  0.0302 -0.2360 -0.0488
 2581W        W19055  11.198  12.523  11.020 -0.1486  0.1590  0.1749
 2582W        W19056  11.132  11.079  12.814  0.0269  0.0554  0.3023
 2583W        W19057   8.731   8.467  14.073  0.0277  0.1234  0.0480
 2584W        W19058  12.226   1.396  12.559 -0.0481 -0.0376  0.1304
 2585W        W19059   5.129  12.445   5.627 -0.0909  0.1043 -0.2855
 2586W        W19060   8.370   9.377   9.978 -0.0571  0.1153  0.2483
 2587W        W19061   6.222   7.226  11.045  0.0346 -0.2367 -0.1833
 2588W        W19062   3.035   8.635  14.322 -0.1066  0.1655 -0.1981
 2589W        W19063  15.506   1.720  10.585  0.1132 -0.2123  0.0916
 2590W        W19064  17.336   5.488  14.312  0.1664 -0.2404  0.0239
 2591W        W19065   1.514   0.765   4.271 -0.1980 -0.0791  0.0775
 2592W        W19066   0.209   4.049   3.825  0.2412  0.2547  0.2228
 2593W        W19067  19.323  16.296  13.358  0.1078 -0.0221  0.2017
 2594W        W19068  13.003  13.545   3.868 -0.1676  0.5379 -0.0877
 2595W        W19069  10.696   3.634   3.752  0.1559 -0.0965 -0.0748
 2596W        W19070  18.302   5.364  13.059 -0.0007  0.2980  0.1340
 2597W        W19071  19.139  14.969   1.056 -0.1385  0.1325 -0.1731
 2598W        W19072  18.586  13.177   1.697 -0.1117  0.0482  0.3162
 2599W        W19073  18.946  16.893   3.524 -0.0395  0.0640  0.0157
 2600W        W19074  11.543   0.963   5.398 -0.3660 -0.1515 -0.0722
 2601W        W19075   5.249   9.951  11.725 -0.3196  0.1443 -0.1098
 2602W        W19076   5.656  12.436  14.034 -0.0572 -0.0389 -0.0300
 2603W        W19077   8.428   0.396   0.031  0.1134  0.0671 -0.0246
 2604W        W19078  14.779  14.496  10.552  0.0677 -0.2196 -0.3252
 2605W        W19079  11.003   8.310   5.125  0.0328  0.0717  0.1620
 2606W        W19080  11.986  17.963  12.033  0.2698 -0.2221 -0.0389
 2607W        W19081  15.464   5.080   0.819 -0.1462 -0.2462  0.0420
 2608W        W19082  16.711   0.807  11.905 -0.0923 -0.3153  0.1716
 2609W        W19083   0.876  18.207   3.817 -0.0780  0.1345  0.1177
 2610W        W19084   6.915  15.598  11.259  0.2091  0.1910 -0.0748
 2611W        W19085  14.828   9.217   5.606 -0.0998  0.1792 -0.3444
 2612W        W19086   0.698   4.775  11.135  0.0944 -0.2170 -0.0379
 2613W        W19087   1.302  15.889  13.249  0.0650  0.1803 -0.0559
 2614W        W19088   6.710   7.670  10.558  0.0221 -0.1776 -0.2476
 2615W        W19089   6.734  11.535  13.542  0.1338  0.2663 -0.0989
 2616W        W19090  12.866   3.553   1.269  0.1148  0.0846 -0.1417
 2617W        W19091   8.183  16.160   0.376  0.0505 -0.0373  0.2349
 2618W        W19092  17.831   9.430  10.547  0.0021 -0.1505 -0.2440
 2619W        W19093   8.534   9.369  14.098 -0.3453 -0.0168  0.0873
 2620W        W19094   1.251  18.362  11.662 -0.4992  0.1384 -0.0554
 2621W        W19095  17.286  10.483   1.245 -0.1464  0.4101  0.0537
 2622W        W19096   6.557   0.648   0.615 -0.2492 -0.2478  0.1206
 2623W        W19097   8.452  11.974  10.858  0.0262 -0.1608  0.4372
 2624W        W19098   6.692  14.680   2.803 -0.2573  0.0292 -0.1066
 2625W        W19099   5.191   5.262   0.270  0.1548  0.2581  0.1017
 2626W        W19100  15.856  17.047  14.191  0.0290 -0.1240  0.1112
 2627W        W19101   7.868   5.171  10.031 -0.2785 -0.2760  0.2224
 2628W        W19102   2.056   7.317   5.184  0.3394  0.1248  0.1011
 2629W        W19103   7.204  10.841   0.818 -0.0464  0.1524  0.3907
 2630W        W19104   0.612  18.102  12.131  0.2345  0.0980 -0.1395
 2631W        W19105   2.372  13.284  11.681 -0.2012 -0.1332 -0.1076
 2632W        W19106   0.652  14.261  14.731  0.1765  0.0051  0.1722
 2633W        W19107   4.034  19.079   1.278  0.1628 -0.1134 -0.0069
 2634W        W19108   9.885   0.530  11.238 -0.3660 -0.0663  0.1471
 2635W        W19109   9.685  16.142  11.278  0.0526  0.1596  0.1021
 2636W        W19110  15.475  12.708   2.184  0.1537 -0.0333 -0.1407
 2637W        W19111  16.879  14.006   5.049  0.2082 -0.3490  0.2385
 2638W        W19112   2.609   3.309  14.508  0.1029 -0.2501 -0.0502
 2639W        W19113  16.347   1.104  12.219  0.0474  0.1461 -0.0516
 2640W        W19114   5.029  17.266   3.568  0.0578  0.1248  0.1693
 2641W        W19115  17.570   5.558   3.942  0.0384 -0.3085  0.3722
 2642W        W19116  16.009   2.024   4.980 -0.4329  0.0217  0.2423
 2643W        W19117  16.820  19.072   0.979 -0.1260  0.1574 -0.1378
 2644W        W19118   9.743  13.710   1.552  0.2867 -0.0680 -0.2027
 2645W        W19119   7.996   8.041   2.114 -0.1326  0.1320  0.1666
 2646W        W19120  15.781   9.136   4.089 -0.1088 -0.1968 -0.5252
 2647W        W19121  12.725   0.966  11.455 -0.2633 -0.1296  0.0009
 2648W        W19122   8.600   5.940  12.657 -0.1977  0.0704  0.1198
 2649W        W19123  12.609   4.894  11.304  0.2862 -0.0671  0.0657
 2650W        W19124   0.705  15.458   0.206  0.0526 -0.1432  0.0350
 2651W        W19125   2.476   4.737  11.988  0.2092 -0.0201  0.0665
 2652W        W19126  17.928   0.565   2.463  0.1455 -0.1778 -0.0093
 2653W        W19127  16.896  16.912  11.654  0.1677  0.2749  0.0251
 2654W        W19128  18.671  16.548   0.533  0.3180  0.0170  0.0285
 2655W        W19129   4.126  13.299   1.364 -0.0380 -0.1861  0.0838
 2656W        W19130   6.328  10.327  13.893 -0.1748 -0.3172 -0.3419
 2657W        W19131   3.222   5.593   4.386 -0.0917 -0.0608  0.0531
 2658W        W19132  11.971   4.253   4.064 -0.0345 -0.0516 -0.2723
 2659W        W19133  14.815  18.833   0.163 -0.3006  0.0121  0.1196
 2660W        W19134   9.241  12.209   2.556 -0.1209 -0.1373 -0.0329
 2661W        W19135   5.827   4.365  11.635  0.2871 -0.0938  0.0691
 2662W        W19136   5.547  19.004  13.021  0.1441 -0.0109 -0.3236
 2663W        W19137   3.110   7.194  13.951  0.2282 -0.0103  0.1357
 2664W        W19138  10.389  16.059  13.280  0.1991  0.3856 -0.2088
 2665W        W19139  16.259  15.865  13.947 -0.2994  0.1796 -0.2324
 2666W        W19140  16.135  16.440  11.618  0.2050  0.1181  0.2126
 2667W        W19141   1.150   3.845  14.729  0.0140  0.1542 -0.0129
 2668W        W19142   7.916  14.435  11.980 -0.1229  0.1678  0.0540
 2669W        W19143  16.576  15.134  14.535 -0.0926  0.1151 -0.1352
 2670W        W19144  10.724   0.315  14.683 -0.1022  0.1673 -0.1505
 2671W        W19145   1.801   7.486  11.320 -0.0155  0.4447  0.0182
 2672W        W19146  16.342   6.815   0.965 -0.0926  0.0368 -0.1642
 2673W        W19147   7.032   9.354   2.654  0.0455  0.0349  0.0199
 2674W        W19148  11.785  12.536   0.272 -0.2079 -0.1640  0.0061
 2675W        W19149  16.694   3.494   4.549  0.2237  0.3332 -0.1144
 2676W        W19150   4.891  14.211  14.729 -0.0242  0.1439  0.1288
 2677W        W19151  13.591   2.712   2.737 -0.1061  0.1461 -0.1732
 2678W        W19152  14.039   6.301  10.499  0.3061 -0.1424  0.2050
 2679W        W19153  17.665  15.281  12.491 -0.2359 -0.0277 -0.3601
 2680W        W19154   1.848   9.074   1.180 -0.1886  0.2514  0.4226
 2681W        W19155  12.003   5.888   4.263 -0.2219  0.0080 -0.0093
 2682W        W19156   4.747  11.400  11.665 -0.3184  0.0313  0.3008
 2683W        W19157  10.918   9.735  14.201  0.1317 -0.1464  0.0641
 2684W        W19158   2.682  12.783  13.919  0.1787  0.2160  0.3660
 2685W        W19159   7.346  12.373  12.407  0.4082 -0.1028  0.4025
 2686W        W19160  12.338   6.378  11.951  0.2520 -0.1310 -0.0158
 2687W        W19161   8.657  13.329   0.195 -0.1303  0.0914 -0.0213
 2688W        W19162  16.638  19.021  12.046  0.2840  0.2864 -0.0927
 2689W        W19163   1.744  13.366   3.612 -0.0199  0.0903  0.1678
 2690W        W19164  13.967   7.257   0.704  0.1940  0.0177 -0.2270
 2691W        W19165  10.678   6.618   2.915  0.0790  0.2400 -0.0896
 2692W        W19166   3.629   7.184   3.038 -0.0426  0.3833  0.2624
 2693W        W19167   9.203  12.503   4.069  0.2054 -0.0473 -0.2193
 2694W        W19168   5.243  18.725   3.894 -0.0258  0.3068  0.1597
 2695W        W19169   4.721   7.316  10.465  0.0158 -0.1024 -0.0500
 2696W        W19170  10.269   8.516   0.956 -0.1076 -0.0978  0.1077
 2697W        W19171  18.923  15.451  14.719  0.0831  0.1755  0.0483
 2698W        W19172  12.596  16.448  12.953 -0.2266  0.0153 -0.2601
 2699W        W19173  10.100  16.006   0.059  0.2773 -0.0418  0.0031
 2700W        W19174   0.636   2.235   2.261 -0.1002 -0.0074 -0.0701
 2701W        W19175   4.946  15.643   0.568  0.0400  0.1079  0.3875
 2702W        W19176   1.198   8.773   1.737 -0.4465  0.1469 -0.1919
 2703W        W19177   5.932   7.806  11.779  0.2338  0.0635  0.1092
 2704W        W19178  10.373  10.631  12.925 -0.3532  0.0671 -0.1652
 2705W        W19179  12.086  17.108  11.905 -0.1179 -0.3437  0.0809
 2706W        W19180  11.243   3.749   2.760 -0.0160  0.1557 -0.2301
 2707W        W19181  18.384   2.374  13.326 -0.2618  0.1807  0.1255
 2708W        W19182  14.493   5.648  14.011  0.1115 -0.2724 -0.0063
 2709W        W19183   0.387   2.200   3.561  0.1005  0.1005 -0.1361
 2710W        W19184  17.432  16.640   2.493 -0.0379  0.3326 -0.2871
 2711W        W19185   9.772   7.179  10.906  0.1603  0.0070 -0.0239
 2712W        W19186   0.810  17.553  14.787 -0.4029  0.2488  0.0310
 2713W        W19187   5.139  14.374  10.635 -0.1357 -0.1215 -0.0117
 2714W        W19188   0.689  13.742   4.073  0.0999 -0.0739  0.5233
 2715W        W19189  15.537   0.909   3.713  0.0104  0.0467  0.4936
 2716W        W19190   0.334  19.249  10.215 -0.0833 -0.0359  0.3395
 2717W        W19191  19.108  12.559  14.812  0.0708  0.2190 -0.0551
 2718W        W19192   5.766  13.246   0.847 -0.2808 -0.0822 -0.1461
 2719W        W19193   7.497  11.420   3.786 -0.0143  0.1221 -0.0124
 2720W        W19194  15.038   6.296   3.914 -0.0657  0.1361 -0.2767
 2721W        W19195   5.009   4.346   2.756  0.1416 -0.2715  0.0898
 2722W        W19196   0.629   0.224   0.541 -0.1792  0.0778 -0.0572
 2723W        W19197   4.103  15.357   2.444 -0.0759 -0.0881 -0.2119
 2724W        W19198   8.224   3.199   0.746  0.0504 -0.1020 -0.2235
 2725W        W19199   3.508  12.120   2.565 -0.0286  0.0060  0.2931
 2726W        W19200   3.514  15.594  11.425 -0.1257  0.2413  0.1924
 2727W        W19201   3.818  17.672  10.390  0.1090 -0.0039  0.0251
 2728W        W19202  14.447  11.104  11.823 -0.0786  0.0377 -0.1242
 2729W        W19203   7.116  13.442  11.162  0.1176  0.1988 -0.0084
 2730W        W19204   8.122  12.685  13.929  0.0152  0.2514 -0.0490
 2731W        W19205  12.288   6.117  11.439  0.1509 -0.0015  0.2477
 2732W        W19206  14.953  13.820   2.759  0.2311  0.1535  0.1568
 2733W        W19207   9.660  15.115  10.231 -0.0225 -0.1417 -0.0136
 2734W        W19208  19.008   3.518  12.564 -0.1648  0.2480 -0.3094
 2735W        W19209   5.266   5.794  12.052  0.0294  0.0121  0.1030
 2736W        W19210  18.547   1.884  12.481 -0.0955 -0.2651  0.2066
 2737W        W19211  16.716  18.644   4.398  0.1233  0.0950  0.0594
 2738W        W19212   0.131  14.172  10.892 -0.0279  0.0464  0.0670
 2739W        W19213   2.001  18.188  14.770 -0.5062  0.0954 -0.1241
 2740W        W19214   5.125   2.725   3.794 -0.2275  0.1902  0.1009
 2741W        W19215  18.054   1.982   2.349 -0.1653 -0.1986  0.1986
 2742W        W19216   0.068   8.127   4.945 -0.3161  0.1300 -0.1206
 2743W        W19217   4.873  17.861  13.513 -0.2131  0.0412 -0.1636
 2744W        W19218   0.787   2.568   4.303 -0.1461 -0.0921 -0.0326
 2745W        W19219  18.220  17.458   5.616 -0.1328 -0.1537  0.4753
 2746W        W19220  16.433  16.255  12.002  0.3104 -0.0258  0.3033
 2747W        W19221   2.348   1.901   3.747 -0.2644  0.4142 -0.1262
 2748W        W19222   4.584  13.559   0.872 -0.1102  0.1927  0.1419
 2749W        W19223   5.028   4.171   3.600  0.0596 -0.0344  0.2007
 2750W        W19224  11.499  12.575  13.465 -0.0265 -0.0958 -0.2068
 2751W        W19225  11.829  11.744   2.496 -0.1550  0.0602 -0.0677
 2752W        W19226   7.643   7.325   0.690 -0.0243  0.1368 -0.0937
 2753W        W19227   6.625  15.096   4.442  0.0062 -0.2464  0.1433
 2754W        W19228  11.417   0.251  12.275 -0.0060 -0.2356 -0.1956
 2755W        W19229  17.186   4.260  14.712  0.0640 -0.1306 -0.3837
 2756W        W19230  14.681  12.646   0.066  0.0914  0.2977  0.0590
 2757W        W19231   8.700  10.671   1.863  0.1816  0.2299  0.2868
 2758W        W19232  12.530  17.112   0.226  0.0157 -0.1231  0.3437
 2759W        W19233   9.890   6.670   4.588  0.3521 -0.1988  0.1127
 2760W        W19234   8.113   7.880  12.209  0.1617  0.1487  0.2654
 2761W        W19235   9.198  14.263   1.016 -0.0344 -0.0725  0.2543
 2762W        W19236   5.434   4.797   0.148 -0.4269  0.3439  0.1960
 2763W        W19237  18.894  16.031  13.628  0.2466  0.2319  0.3385
 2764W        W19238   8.188   5.625   1.629 -0.1694  0.0577 -0.1293
 2765W        W19239  11.290   7.805  12.464  0.1552 -0.0033 -0.0778
 2766W        W19240  18.511   3.453   2.892  0.0735 -0.2744  0.0938
 2767W        W19241  16.854   1.609  14.175 -0.0043  0.0770 -0.0061
 2768W        W19242   0.012   7.410   0.633 -0.0826  0.2143  0.1084
 2769W        W19243   3.392  10.557  10.170 -0.1354  0.0642 -0.1575
 2770W        W19244   6.475   7.570   0.695  0.1193  0.2688 -0.2973
 2771W        W19245   2.027  10.103   0.884 -0.0977  0.0021  0.2942
 2772W        W19246   7.586   9.913   9.962  0.2524 -0.0093 -0.1985
 2773W        W19247  14.015  11.178   0.396  0.0183 -0.1137 -0.0151
 2774W        W19248  14.398  17.244  14.326  0.2615 -0.1969  0.0859
 2775W        W19249  15.618  17.985  13.992  0.2324  0.1194  0.3172
 2776W        W19250   2.074   9.037   2.260 -0.1068  0.1083 -0.4744
 2777W        W19251  14.896  17.315   2.986 -0.0110 -0.2013 -0.0226
 2778W        W19252   9.940  11.227  12.543 -0.1150 -0.2477 -0.2740
 2779W        W19253   1.387   7.661  14.365 -0.0720 -0.3063 -0.1273
 2780W        W19254  14.912   6.652   2.156 -0.1601  0.0718  0.0244
 2781W        W19255   8.705   9.488   3.439  0.0271  0.1527  0.4684
 2782W        W19256  16.686   0.906  12.427 -0.0232  0.3492  0.0548
 2783W        W19257  10.543   7.064   3.263  0.1082 -0.4043 -0.3319
 2784W        W19258   9.189  13.483  12.200 -0.2353 -0.0761 -0.2532
 2785W        W19259   5.647  16.148   4.573  0.0177 -0.2133  0.0035
 2786W        W19260   8.615  12.857  11.168  0.0602 -0.1519 -0.2825
 2787W        W19261  18.653   8.652  10.221  0.0932  0.2675 -0.1068
 2788W        W19262   6.375  19.308   4.198  0.0196  0.0388 -0.1950
 2789W        W19263  11.368   5.016  13.194  0.1826  0.2743 -0.0310
 2790W        W19264   6.890  10.280   1.712  0.1755 -0.2314  0.5986
 2791W        W19265  12.936   8.394   2.502 -0.2165 -0.1237 -0.1074
 2792W        W19266   3.328   6.807  12.006  0.1892 -0.1380 -0.2956
 2793W        W19267  12.346  17.114  14.643 -0.3821 -0.1023  0.0600
 2794W        W19268  16.488  10.447   5.316  0.0194 -0.1711 -0.2536
 2795W        W19269   3.571  18.686  14.446  0.2660  0.0922  0.2271
 2796W        W19270  15.110   7.178   0.263 -0.0354 -0.1457  0.0185
 2797W        W19271   4.603   8.394  13.866  0.2562 -0.3132 -0.1949
 2798W        W19272   9.605   1.678   0.401 -0.1598  0.3038  0.1466
 2799W        W19273   8.686  13.427  10.186 -0.0720 -0.1106 -0.1368
 2800W        W19274   7.805   8.810  13.780 -0.1484  0.0797 -0.2575
 2801W        W19275   9.323  14.883   1.636 -0.0493 -0.2397  0.0877
 2802W        W19276   9.752  17.975   1.111  0.1682 -0.0490 -0.3842
 2803W        W19277   8.958  14.187  11.579  0.2044  0.0345 -0.0485
 2804W        W19278  18.784   1.927   3.430  0.3963  0.1238 -0.1377
 2805W        W19279   1.318   5.756  14.739 -0.0843 -0.2467  0.2761
 2806W        W19280   2.349   5.888  13.731 -0.2678  0.1305  0.1592
 2807W        W19281   7.918   1.634   3.287  0.0372  0.1299 -0.1849
 2808W        W19282   1.696   9.777  10.054 -0.1613 -0.0931 -0.0831
 2809W        W19283   6.659   5.618   1.678  0.0978 -0.3415  0.0672
 2810W        W19284  11.401   7.919  10.738  0.1548 -0.3175  0.1850
 2811W        W19285  10.193   3.999  14.387  0.2380  0.1591 -0.0438
 2812W        W19286  18.622  15.995  10.707  0.1007 -0.0438 -0.1565
 2813W        W19287  11.777   4.757   2.336 -0.0320 -0.0544 -0.1185
 2814W        W19288  19.242  11.221   3.487  0.0907  0.0641  0.1276
 2815W        W19289  12.300   8.012  10.709 -0.1071 -0.1076 -0.2638
 2816W        W19290  18.083  16.845  14.682  0.3020  0.2761 -0.0730
 2817W        W19291  11.917  13.917  10.533 -0.1584 -0.0962 -0.0584
 2818W        W19292   0.407   9.184  12.991 -0.0080 -0.2738  0.1954
 2819W        W19293  18.415   8.292  13.747 -0.1880  0.1935  0.2010
 2820W        W19294  13.296   0.922   2.949  0.1385  0.4524 -0.0317
 2821W        W19295   8.532  10.089   3.458  0.1427  0.4400  0.3038
 2822W        W19296   2.064   6.104  12.214 -0.0142  0.2290 -0.2397
 2823W        W19297   4.930  18.930  12.995 -0.2126 -0.1994 -0.0312
 2824W        W19298   9.927   0.886  12.974 -0.1800 -0.0589  0.2265
 2825W        W19299  16.738   9.947   2.873  0.1332 -0.2794  0.3646
 2826W        W19300   1.746  16.508   0.470  0.3299 -0.0314  0.2315
 2827W        W19301  10.193  15.335  11.908 -0.2131  0.2583  0.0439
 2828W        W19302   0.560  16.436  14.560  0.1889 -0.1381  0.1462
 2829W        W19303   4.219   3.469  13.189  0.0133  0.0199  0.1220
 2830W        W19304  15.741   0.429   3.628 -0.1862 -0.1900  0.1544
 2831W        W19305  13.252  13.900  12.986 -0.3726  0.4225  0.0799
 2832W        W19306   8.550   1.970  10.918  0.1746 -0.2828 -0.0472
 2833W        W19307   6.014  15.539   0.220 -0.0395  0.0854 -0.2522
 2834W        W19308  15.518  16.142   2.302  0.1574 -0.0119 -0.0961
 2835W        W19309   2.157   0.887  13.659 -0.1800  0.0717 -0.1054
 2836W        W19310   8.431  14.734   1.487  0.0182 -0.2750  0.4894
 2837W        W19311  10.457  19.372   3.699 -0.0256 -0.1565 -0.0887
 2838W        W19312  12.156  17.739   2.507 -0.1394 -0.0413 -0.0042
 2839W        W19313   8.146  10.289   2.447  0.1583 -0.1560 -0.1753
 2840W        W19314   4.348   5.675  11.184 -0.0170  0.0525 -0.3823
 2841W        W19315  16.766   9.910  13.420 -0.1926  0.2549  0.2813
 2842W        W19316  15.587   8.479   2.045 -0.0182 -0.1943  0.0194
 2843W        W19317   8.622  12.323   1.398 -0.1682 -0.2650 -0.0277
 2844W        W19318  18.308   0.564  10.532  0.3226  0.0237  0.0881
 2845W        W19319   1.538  10.241   0.016  0.0835 -0.1534  0.1714
 2846W        W19320   2.078  10.817   3.916 -0.1137  0.1330 -0.1545
 2847W        W19321  10.554  15.554   3.066 -0.2637  0.1126 -0.1307
 2848W        W19322   5.674  17.501  12.824  0.4786 -0.2781 -0.0506
 2849W        W19323   3.366   7.436   0.850 -0.0093 -0.2883  0.1921
 2850W        W19324   5.329  10.013   3.617 -0.1113  0.1282 -0.3135
 2851W        W19325   6.528   2.806   0.195  0.0598 -0.0111 -0.2652
 2852W        W19326  13.903  16.482  11.009 -0.0550 -0.2629  0.1957
 2853W        W19327  18.768  11.208   1.192 -0.1425  0.0160  0.1599
 2854W        W19328   9.316  11.359   1.596 -0.0606  0.0768 -0.0759
 2855W        W19329   9.197  19.309   1.758 -0.1188  0.1724  0.1760
 2856W        W19330   2.010  12.963   1.597  0.1289 -0.1510 -0.1046
 2857W        W19331   0.461   8.153   2.072 -0.1822 -0.0293  0.0960
 2858W        W19332   3.093  18.549   3.307 -0.1468  0.1693 -0.3237
 2859W        W19333  12.021  12.575   1.172  0.0130 -0.0906  0.1084
 2860W        W19334   7.327  10.585   0.221  0.2154 -0.1989 -0.2270
 2861W        W19335  14.164  13.434   3.152  0.0568  0.0991  0.2651
 2862W        W19336  17.863  11.540   6.010 -0.1956  0.2098  0.0458
 2863W        W19337   7.660  16.270   3.748 -0.0616  0.1197  0.0910
 2864W        W19338  15.623   2.969  14.151 -0.1159 -0.1652 -0.1692
 2865W        W19339   2.797  13.268  11.205  0.0961 -0.2038  0.3220
 2866W        W19340   7.845  13.379   2.634 -0.0033 -0.1105 -0.1401
 2867W        W19341  12.693   8.357  10.865 -0.0759 -0.0778  0.1654
 2868W        W19342  18.029  11.270   1.827 -0.0468  0.1018  0.0590
 2869W        W19343  18.583   4.940   1.093 -0.2012 -0.0749 -0.1145
 2870W        W19344  18.046  15.734  10.736 -0.0304 -0.0823  0.0935
 2871W        W19345  13.478   0.305   2.799 -0.1422  0.3353  0.1566
 2872W        W19346  11.540   2.773   3.067  0.1358  0.0360 -0.6577
 2873W        W19347   0.821   9.052   3.875 -0.0235  0.0561  0.2430
 2874W        W19348  13.011  14.353   1.349  0.1901 -0.3954 -0.1965
 2875W        W19349  18.117   6.870  10.846  0.0836 -0.0378 -0.3339
 2876W        W19350  19.066   9.594  12.688  0.2533 -0.0504 -0.0474
 2877W        W19351  11.989  13.653  12.270 -0.1503  0.0617  0.0089
 2878W        W19352  10.798   7.649   3.562  0.2797 -0.3812 -0.0682
 2879W        W19353   9.956  18.341   2.199  0.2910 -0.3307 -0.3321
 2880W        W19354  13.183   3.896   4.569 -0.0697  0.3673 -0.2406
 2881W        W19355  18.427   2.600  14.254 -0.1232 -0.0905  0.2084
 2882W        W19356  15.019   8.994   5.069 -0.0997  0.2540 -0.0330
 2883W        W19357  17.858  12.614  11.867 -0.0752  0.0024  0.0560
 2884W        W19358   3.207  17.277   3.535 -0.2045 -0.3411  0.0752
 2885W        W19359   2.420  19.233   3.801 -0.2391  0.2270  0.0147
 2886W        W19360   9.143  10.397   4.104  0.1506  0.0849  0.0449
 2887W        W19361  13.703  13.682   0.063 -0.0365  0.0359 -0.0195
 2888W        W19362  19.262   7.660   5.098  0.2616  0.1493  0.1394
 2889W        W19363   3.487   8.356   3.939 -0.1408 -0.0809 -0.4063
 2890W        W19364  10.156   0.264   4.476  0.1810 -0.1172 -0.2527
 2891W        W19365   9.778   2.676  12.651  0.1512 -0.1772  0.0439
 2892W        W19366  10.903   2.699   0.743 -0.4771  0.1164  0.1290
 2893W        W19367  12.911   4.127   0.220 -0.0614 -0.3138 -0.1369
 2894W        W19368   0.436   9.777   3.650  0.1265  0.0198  0.0225
 2895W        W19369   1.434   8.968   5.581 -0.0064  0.0685 -0.0048
 2896W        W19370   6.176   9.739   3.928  0.4263 -0.3602 -0.1856
 2897W        W19371  14.084   0.971  10.439 -0.1493  0.0856  0.0710
 2898W        W19372  16.316   0.767   4.857  0.0197  0.2257  0.0210
 2899W        W19373   0.724   4.754   5.632  0.0094 -0.0176  0.2999
 2900W        W19374  11.679   0.168  11.838  0.1024 -0.0237  0.2043
 2901W        W19375   5.461   6.120  14.055 -0.0797 -0.1679  0.0644
 2902W        W19376  13.798   0.811   5.258 -0.0616 -0.0792  0.0843
 2903W        W19377  17.176   0.779  12.571 -0.0593  0.0323  0.5730
 2904W        W19378  18.815  10.077  13.715  0.1900 -0.1630 -0.2211
 2905W        W19379   1.011   2.228  12.474  0.1246 -0.0861 -0.0215
 2906W        W19380   7.957  15.921  12.444  0.2848 -0.0076 -0.0871
 2907W        W19381  14.468  18.364   1.328  0.0670  0.2074  0.0521
 2908W        W19382   9.055   9.666  12.364 -0.0430 -0.2307  0.1055
 2909W        W19383  13.638   4.914   0.461  0.2527  0.2140  0.2880
 2910W        W19384   0.238   8.544   1.087 -0.0142  0.0511  0.1062
 2911W        W19385  16.292  13.803  12.477 -0.1124  0.1727  0.1967
 2912W        W19386   1.558   7.978  10.451  0.4123  0.0967 -0.2603
 2913W        W19387  15.078   0.557  12.584  0.0338 -0.0671 -0.0857
 2914W        W19388  10.664   8.312  12.847  0.0731  0.1934 -0.0157
 2915W        W19389  17.522  10.018  13.302 -0.1038  0.2092  0.1621
 2916W        W19390   8.802  14.261   3.762  0.3580  0.1586 -0.0332
 2917W        W19391  12.347  16.725  10.571 -0.1019 -0.2002  0.1130
 2918W        W19392  13.954   3.887   3.401  0.0477  0.0618 -0.3182
 2919W        W19393  12.440  17.577   0.664 -0.3119  0.3324  0.0320
 2920W        W19394   1.182  10.584   0.477 -0.1801 -0.4411  0.3181
 2921W        W19395  10.689   3.977   1.251  0.1688 -0.0535 -0.2739
 2922W        W19396   5.276   2.769  14.623  0.2457  0.1526 -0.1957
 2923W        W19397  12.457   1.042  13.518  0.2116 -0.0923  0.0746
 2924W        W19398   3.217  18.001   4.289 -0.1674  0.1294  0.0808
 2925W        W19399  15.170   0.719   3.451  0.2340 -0.2018  0.1282
 2926W        W19400   0.738   8.981  11.944  0.2498 -0.1722 -0.3582
 2927W        W19401   8.439   7.308   3.577  0.1146 -0.1800 -0.0102
 2928W        W19402   9.002  10.242  13.087 -0.1393 -0.2859 -0.0706
 2929W        W19403   0.719  10.440  13.191  0.1846  0.1782  0.0722
 2930W        W19404  18.926  11.440  11.095 -0.2992 -0.3208 -0.0906
 2931W        W19405  14.972   8.128   3.504  0.3055 -0.0849  0.5532
 2932W        W19406   2.569  17.129   0.583 -0.2120 -0.0600  0.1283
 2933W        W19407   2.799  18.652  12.648 -0.2066  0.3346  0.1302
 2934W        W19408   5.555   6.797  11.634  0.0220 -0.1860  0.0845
 2935W        W19409   3.537   9.330  14.597 -0.1085 -0.0162 -0.0827
 2936W        W19410  15.388   3.971   0.996  0.1163  0.0541  0.0666
 2937W        W19411   5.248   4.217   3.135 -0.1462  0.0506 -0.0858
 2938W        W19412   4.856  10.230  10.747 -0.3318  0.3596  0.4323
 2939W        W19413   0.136  10.192   0.348  0.0141 -0.0589 -0.0474
 2940W        W19414   9.936   3.164   2.762 -0.0066  0.1271 -0.0644
 2941W        W19415  18.624   9.337   2.942 -0.2142  0.0072 -0.1949
 2942W        W19416  10.829   0.296   4.089  0.0121 -0.4192 -0.1350
 2943W        W19417   4.595   2.387  13.286 -0.1054  0.2070 -0.4296
 2944W        W19418  12.779   3.777   0.765  0.1226  0.0514 -0.1268
 2945W        W19419  10.726   9.679   1.386 -0.0935  0.1180 -0.2239
 2946W        W19420   9.975  19.304   3.565 -0.2599  0.0570 -0.1880
 2947W        W19421   8.332  11.078   3.947 -0.1730 -0.1746  0.1522
 2948W        W19422   5.391   4.681  11.408  0.1211 -0.2893  0.2137
 2949W        W19423  12.073  15.180  10.400  0.3852  0.1019  0.1076
 2950W        W19424  13.817   8.766   2.128  0.3624 -0.1878 -0.5028
 2951W        W19425  14.306   5.840   1.421 -0.3135  0.2152  0.1310
 2952W        W19426   5.536  11.398   2.326  0.0620 -0.0725 -0.1981
 2953W        W19427   8.532  15.138   2.460  0.0745 -0.0912  0.0315
 2954W        W19428   3.018   6.965  11.219  0.0891 -0.0658 -0.1718
 2955W        W19429  17.771  16.587  13.839 -0.0030  0.2114  0.1565
 2956W        W19430   9.293   7.465  13.751 -0.0173  0.1698  0.0376
 2957W        W19431  14.362   8.841  11.605  0.2552  0.2235  0.0812
 2958W        W19432  12.232   1.855  14.586  0.1620  0.4064 -0.2165
 2959W        W19433   8.712  19.354   1.659  0.0196 -0.0761 -0.1800
 2960W        W19434   2.158   0.008   2.120  0.0065  0.3073  0.2292
 2961W        W19435   9.718  18.212   0.664  0.3330  0.0167 -0.0331
 2962W        W19436  15.084   9.862  12.919 -0.1061 -0.3521  0.0773
 2963W        W19437   1.852   0.986  10.114  0.0650  0.0516 -0.0026
 2964W        W19438   7.861  17.691  10.440 -0.2150  0.1693 -0.1507
 2965W        W19439  18.743  11.479  12.536 -0.1761  0.4594 -0.0092
 2966W        W19440   1.517  14.678   3.099 -0.1793 -0.1892  0.4393
 2967W        W19441   3.887  11.020   3.752 -0.0069 -0.2579  0.0877
 2968W        W19442  17.210   9.335   3.477  0.5066  0.0295  0.0147
 2969W        W19443  16.379  10.355  12.719  0.3475  0.0842 -0.2494
 2970W        W19444  19.256  18.540  14.073 -0.1853 -0.0042 -0.1826
 2971W        W19445   6.394  14.745  10.047 -0.1179  0.0582  0.0152
 2972W        W19446  12.993   5.573  10.883  0.1230  0.0664 -0.1704
 2973W        W19447   7.453   6.950  14.255 -0.3498 -0.1353  0.1399
 2974W        W19448  12.159  15.148   0.879  0.1355 -0.0845 -0.0729
 2975W        W19449  11.837   4.325  13.030  0.0299 -0.1039  0.0578
 2976W        W19450   2.558  14.557  12.354  0.2171 -0.1990 -0.0324
 2977W        W19451  15.876  12.826   5.059  0.0968 -0.0601  0.0299
 2978W        W19452   2.573   1.197   3.464  0.1685 -0.3324  0.2677
 2979W        W19453   8.587   0.399   2.452 -0.1566 -0.1458  0.0609
 2980W        W19454  10.290  15.531   3.857  0.1213 -0.1498  0.1115
 2981W        W19455  10.029   8.057  12.329 -0.1708  0.2609  0.1238
 2982W        W19456   8.095   3.753  10.744  0.1119 -0.1618 -0.2606
 2983W        W19457  14.556   9.585   1.124  0.0716  0.1284 -0.0167
 2984W        W19458  12.445  11.533   2.205 -0.1241 -0.2464 -0.3713
 2985W        W19459   4.166  10.261   2.279  0.0963  0.3398 -0.0841
 2986W        W19460   1.005  16.171   0.600 -0.2026  0.1136  0.0479
 2987W        W19461   3.831   6.141  14.697  0.1563  0.0780 -0.1784
 2988W        W19462  10.809  11.668   9.978 -0.1306 -0.1226 -0.2527
 2989W        W19463   7.828   6.275   2.216  0.2979 -0.1968  0.3254
 2990W        W19464  16.425  14.146  12.128  0.1068 -0.0990 -0.1769
 2991W        W19465  11.976   5.163  12.889 -0.2713  0.1101  0.0002
 2992W        W19466   9.429  17.756   0.788  0.3254 -0.0347 -0.0377
 2993W        W19467   4.406   1.202  10.483  0.0822  0.1159 -0.2182
 2994W        W19468  15.176  10.173   4.775 -0.2389 -0.1003  0.1060
 2995W        W19469  12.806   6.748   2.140  0.1586  0.0983  0.0219
 2996W        W19470   7.333  10.621  14.613 -0.3272 -0.1161  0.0476
 2997W        W19471   8.487  13.656  10.633 -0.1891 -0.2881  0.1135
 2998W        W19472  15.719   8.427  14.537  0.2363  0.0233  0.0595
 2999W        W19473   8.614  13.773  14.328 -0.0398  0.3078 -0.1678
 3000W        W19474   9.766  16.842   0.811 -0.2385 -0.1476  0.0867
 3001W        W19475  18.551   6.772  12.280 -0.0490 -0.2487 -0.1762
 3002W        W19476  14.992  13.534  13.853 -0.3205 -0.0633 -0.2004
 3003W        W19477   8.433   3.898  12.073 -0.0068 -0.2154 -0.1920
 3004W        W19478  14.991  17.368  11.731  0.0500  0.1070  0.0698
 3005W        W19479   1.288  10.441   1.804  0.1738 -0.0805 -0.0686
 3006W        W19480  12.596  12.169   1.607  0.2826 -0.1268  0.5111
 3007W        W19481   4.288  13.879  12.602 -0.2202 -0.0094  0.1668
 3008W        W19482   9.622   1.324   0.046 -0.1283 -0.4357  0.2326
 3009W        W19483  10.463  10.713   4.120  0.3777 -0.1254  0.4423
 3010W        W19484  12.300   9.962   1.854  0.0939  0.0053 -0.2458
 3011W        W19485  18.235   9.988   4.760 -0.0329 -0.0640 -0.0031
 3012W        W19486  16.204  11.651  14.155 -0.0444  0.2477  0.2745
 3013W        W19487  18.127  17.605  12.768 -0.0192 -0.4202 -0.2515
 3014W        W19488   1.963   5.134   5.302 -0.1741  0.0982 -0.1830
 3015W        W19489   5.859   2.548  13.871 -0.3041  0.5633 -0.0415
 3016W        W19490   4.669  11.199  11.091 -0.0014  0.3215  0.1891
 3017W        W19491  10.726  10.288   3.943  0.2117  0.0300 -0.1690
 3018W        W19492  13.062   0.840  10.540  0.2412 -0.0603  0.1437
 3019W        W19493   7.748   8.987   2.193  0.0513  0.2662  0.0501
 3020W        W19494   7.268   5.918   9.822  0.0861  0.0055 -0.0454
 3021W        W19495  14.742   8.794   6.020 -0.1179 -0.2673 -0.0012
 3022W        W19496   0.271   6.393   3.538  0.3584 -0.2766  0.0112
 3023W        W19497  10.461   2.037  11.448 -0.1741 -0.2101 -0.0325
 3024W        W19498  15.410   7.478   3.683 -0.1312  0.1862  0.0502
 3025W        W19499   7.793   5.536   1.965  0.0258 -0.0761 -0.0687
 3026W        W19500  11.167   2.972  10.187 -0.0893 -0.0373 -0.2108
 3027W        W19501   0.592  17.359   2.202 -0.0696  0.1136  0.0081
 3028W        W19502  10.197   0.470  14.667  0.0215  0.4309 -0.0873
 3029W        W19503   8.466  18.946   2.469 -0.0129 -0.0389 -0.0632
 3030W        W19504   1.918   2.043  11.353  0.1767 -0.0773  0.1667
 3031W        W19505   5.028  15.866  12.722 -0.2512 -0.0460 -0.2079
 3032W        W19506   1.722  16.565   1.050 -0.4025  0.2059 -0.0014
 3033W        W19507   3.990  17.895  13.525  0.0811  0.2664 -0.0895
 3034W        W19508   7.141   9.592  10.318  0.1892 -0.2166 -0.0265
 3035W        W19509  18.648   6.391   5.149  0.1124 -0.0216  0.0468
 3036W        W19510  18.113  10.652   1.622 -0.3016  0.0299  0.0696
 3037W        W19511  14.671  18.704  12.268  0.3679 -0.0382 -0.0772
 3038W        W19512  12.947   8.792   3.790  0.1263 -0.1200 -0.1943
 3039W        W19513  19.354  14.485   5.704 -0.0550  0.2318 -0.0644
 3040W        W19514  15.761  17.280  12.133 -0.1796  0.0555  0.5385
 3041W        W19515   1.265   8.673  11.260 -0.0703  0.2861  0.0472
 3042W        W19516   0.402   3.896   1.363  0.1783  0.4746  0.0339
 3043W        W19517  16.699  17.196   0.949 -0.3437  0.2020  0.1531
 3044W        W19518  17.385   8.684   5.127 -0.1771  0.2277 -0.1000
 3045W        W19519  14.389  18.184   4.401  0.1331  0.0056  0.2022
 3046W        W19520   6.222   3.749  13.849  0.1602 -0.0066 -0.1669
 3047W        W19521   6.043   8.396  10.722  0.2516  0.1497 -0.0285
 3048W        W19522  18.234   4.047   5.937  0.1712  0.3342  0.0999
 3049W        W19523   6.995   1.607   1.919 -0.0969 -0.3282 -0.0212
 3050W        W19524  11.031  10.582  12.082  0.0731 -0.4055  0.1264
 3051W        W19525  17.995   3.274  14.853  0.0114  0.0258 -0.0880
 3052W        W19526   1.516   9.452  14.319  0.0097  0.3265  0.2634
 3053W        W19527   4.307   2.537   0.856  0.0181 -0.0472 -0.1591
 3054W        W19528  13.554   8.960  11.988 -0.2868 -0.0307  0.1028
 3055W        W19529   8.912  10.324  14.687 -0.1308 -0.0035 -0.1381
 3056W        W19530   9.465   2.513   1.984 -0.0245  0.0269 -0.1073
 3057W        W19531   2.521  11.063  12.141  0.0523 -0.0937  0.0118
 3058W        W19532  13.819  11.517  11.525  0.0133  0.4245  0.5325
 3059W        W19533   6.533   8.696   3.383 -0.0288  0.2247 -0.2446
 3060W        W19534   0.454   9.930   0.658  0.0884  0.3530  0.0461
 3061W        W19535   2.269  18.164   3.762  0.0710  0.2382 -0.1285
 3062W        W19536   9.952  12.316   0.587 -0.1149 -0.1369  0.0497
 3063W        W19537  12.753   9.599  11.213  0.4909 -0.1495  0.4363
 3064W        W19538  10.905   8.536   2.636  0.1422  0.3354  0.0577
 3065W        W19539  10.005   5.112  11.203  0.0431  0.5448  0.1259
 3066W        W19540  12.059  12.964  13.937  0.1631 -0.0732  0.1846
 3067W        W19541  15.208   6.000  11.001 -0.1098  0.5344 -0.1026
 3068W        W19542   6.422  13.415   3.545  0.0793  0.1770  0.2170
 3069W        W19543  11.215   1.786  12.151 -0.0329  0.2562 -0.2382
 3070W        W19544  14.438   9.385  11.616 -0.0347  0.2064  0.0730
 3071W        W19545   0.328  15.713  14.820  0.3744  0.0936 -0.1626
 3072W        W19546   2.596   8.856   3.593 -0.2395 -0.2935 -0.1097
 3073W        W19547   7.497   3.749   3.506 -0.0800 -0.0299  0.3198
 3074W        W19548  17.466  11.684  13.813  0.0968 -0.1025  0.0508
 3075W        W19549  16.361   9.350   2.372 -0.1834 -0.5358  0.1327
 3076W        W19550   7.663   3.881   8.518  0.2937 -0.2073 -0.3743
 3077W        W19551   1.288   0.747  10.725  0.0815  0.1626  0.2654
 3078W        W19552  18.077   0.228  10.199 -0.0123 -0.0300 -0.0108
 3079W        W19553   3.138  14.976   5.283  0.1819 -0.3110 -0.3512
 3080W        W19554  16.762   7.877  11.247  0.1272 -0.0018  0.2494
 3081W        W19555  13.170  12.762   2.260  0.0576 -0.0983  0.1428
 3082W        W19556   2.686  12.139  12.817 -0.2444  0.0670 -0.4761
 3083W        W19557  18.938   0.681  13.656  0.0825 -0.2193  0.1183
 3084W        W19558  13.705  14.204  13.126 -0.2273  0.1888 -0.4370
 3085W        W19559   0.788   6.272  13.381 -0.1799 -0.3130 -0.1238
 3086W        W19560   9.364   6.111   0.567 -0.3038 -0.2147  0.1331
 3087W        W19561   4.771  13.733  14.793 -0.0683  0.0477 -0.1732
 3088W        W19562   1.805  18.982  14.468 -0.0625  0.0518  0.2140
 3089W        W19563   8.390  15.869  13.029  0.3149 -0.0285 -0.3018
 3090W        W19564  13.879   3.192   4.408  0.3132  0.0662 -0.0310
 3091W        W19565   3.073  12.082   2.843 -0.1530  0.0848 -0.1150
 3092W        W19566  17.520  10.606   3.834  0.1914  0.4586  0.0834
 3093W        W19567  15.632   0.920  10.958  0.0303 -0.1185 -0.0646
 3094W        W19568  18.943  11.241  13.077 -0.1149 -0.0870 -0.1358
 3095W        W19569  13.078  10.059  11.462  0.2538  0.2674  0.0385
 3096W        W19570   9.545  15.601   5.417  0.1340 -0.0957  0.1567
 3097W        W19571  10.927   6.846  13.681 -0.0825 -0.1569  0.2988
 3098W        W19572   0.849   7.773   3.886 -0.0118  0.0608 -0.3119
 3099W        W19573   3.758   8.768  13.883  0.0259 -0.0344  0.0589
 3100W        W19574  17.905   8.579   0.259  0.2956  0.3404  0.1895
 3101W        W19575   5.582   7.441   0.452  0.0204 -0.0841  0.0879
 3102W        W19576  11.004  17.502   3.895 -0.0739 -0.0057 -0.0910
 3103W        W19577   7.510  12.782   1.562 -0.3008  0.2264  0.1747
 3104W        W19578   5.415   1.100  11.455 -0.0990  0.4452 -0.1350
 3105W        W19579  16.935   8.031   1.512  0.2681 -0.1003 -0.1651
 3106W        W19580   1.553   8.304  13.626 -0.0001 -0.2244  0.2263
 3107W        W19581  13.104   4.236  12.563  0.2304 -0.1308  0.0507
 3108W        W19582  18.159  17.287   3.896 -0.0112 -0.0944  0.0970
 3109W        W19583   6.537  13.226   3.090  0.0613 -0.2073 -0.0091
 3110W        W19584  12.135   1.252  10.384  0.1819 -0.3306  0.1159
 3111W        W19585  14.232   3.712   2.367  0.1950  0.1188 -0.1784
 3112W        W19586   0.993   8.128   2.231 -0.3656  0.2118 -0.0883
 3113W        W19587  12.919  17.398   1.490 -0.1715  0.0214  0.2230
 3114W        W19588  16.912  19.207   4.174  0.2685 -0.1522  0.1142
 3115W        W19589   4.845   7.045   4.039 -0.1374 -0.3488 -0.2010
 3116W        W19590   3.173   7.595   4.751  0.3577  0.0701 -0.2784
 3117W        W19591   3.243   0.008   3.243  0.0801  0.1290 -0.1337
 3118W        W19592  13.235   6.993   3.908 -0.0830  0.3591  0.2337
 3119W        W19593   6.240   5.157   1.115  0.0422 -0.3885  0.0019
 3120W        W19594   8.376   5.335  11.995  0.2360  0.3001  0.0388
 3121W        W19595  18.710  12.499  12.904  0.0218  0.1996  0.2738
 3122W        W19596  11.892  15.185  11.994 -0.0395 -0.1345 -0.0034
 3123W        W19597  14.390   0.282   3.169 -0.3070  0.0286 -0.2848
 3124W        W19598  19.275  15.271  13.836  0.1957  0.0747  0.1984
 3125W        W19599   9.323  10.985   5.724  0.2896  0.1920  0.0627
 3126W        W19600   2.177   3.252   2.227  0.2071 -0.1108 -0.0964
 3127W        W19601  10.638   1.291  13.793 -0.2882 -0.0499  0.1619
 3128W        W19602  12.664   7.536  12.793 -0.1947  0.0200  0.5643
 3129W        W19603   8.623   9.450  13.070  0.2623 -0.1223 -0.4402
 3130W        W19604   1.371  13.990  13.359 -0.1672  0.0683 -0.0917
 3131W        W19605  15.216   7.686   1.590  0.1494 -0.1909 -0.1496
 3132W        W19606  13.313  15.389   1.584 -0.1998 -0.0662 -0.1924
 3133W        W19607  18.010   2.474   3.774 -0.2983 -0.2895 -0.1393
 3134W        W19608   6.454   6.189  14.216  0.3831  0.1222  0.1545
 3135W        W19609  16.779   1.450  11.236  0.3293 -0.0173  0.0406
 3136W        W19610   9.627   8.125   1.816 -0.3161  0.2122 -0.0621
 3137W        W19611  13.992  15.371   0.875 -0.0574  0.1979  0.1102
 3138W        W19612  15.263   4.791  11.591  0.3066 -0.1518  0.1656
 3139W        W19613   8.773  11.925   3.645  0.1704  0.0700 -0.0502
 3140W        W19614  14.235   7.227  12.082  0.2835  0.0746  0.3571
 3141W        W19615   5.185   0.885   9.630  0.3172 -0.1127  0.0357
 3142W        W19616  18.148  14.454  14.591 -0.0589  0.1441  0.0246
 3143W        W19617  17.312   2.485   1.061 -0.0596 -0.0468  0.1534
 3144W        W19618   0.279  14.089   1.585  0.1023  0.0869 -0.1804
 3145W        W19619   5.493   6.706  12.624  0.0434  0.0390 -0.1614
 3146W        W19620  14.889   1.071   4.628 -0.0325 -0.2355 -0.1058
 3147W        W19621  15.966  14.796  14.126  0.0929  0.0475  0.1257
 3148W        W19622   7.499  10.409   2.417 -0.0779  0.1543  0.0241
 3149W        W19623   6.828   4.103  14.118 -0.0450 -0.3045 -0.0047
 3150W        W19624  18.960  10.371  13.340  0.2481  0.3840  0.2596
 3151W        W19625   3.534  14.499  14.403 -0.2488  0.2483  0.2594
 3152W        W19626   8.673  15.093   3.992  0.2882  0.0810  0.0612
 3153W        W19627   7.973   2.713  14.108  0.0955 -0.4047  0.0312
 3154W        W19628  10.633   4.618  14.798 -0.1486  0.1243 -0.0772
 3155W        W19629   8.746  16.331   4.653  0.1322 -0.1382 -0.2382
 3156W        W19630   3.845  13.116  12.457  0.1627  0.1005  0.1999
 3157W        W19631   1.623   5.424  14.305  0.3242 -0.1980  0.0199
 3158W        W19632   2.896   2.755   2.360 -0.2866  0.2303  0.1946
 3159W        W19633   5.999   2.683  12.783 -0.0265  0.0579 -0.1649
 3160W        W19634   9.804   5.033   3.900 -0.0403  0.0327  0.1070
 3161W        W19635   4.368   8.546  12.096 -0.1692  0.0044 -0.3874
 3162W        W19636   8.192  12.726   2.097  0.1435 -0.0427  0.1024
 3163W        W19637  13.303   8.550  11.831  0.1765  0.1388 -0.4201
 3164W        W19638   4.168  17.767   3.297  0.0913  0.2588  0.0197
 3165W        W19639   7.308   6.138  13.772 -0.1418  0.2380  0.0076
 3166W        W19640  13.868  10.312  11.921  0.1318  0.0042 -0.0332
 3167W        W19641   5.642   1.964   9.730 -0.1053  0.0823 -0.0689
 3168W        W19642   6.104   2.754  11.437  0.2005 -0.4719  0.0460
 3169W        W19643   9.365  12.964   3.510 -0.4046  0.0800  0.1605
 3170W        W19644  17.313  15.751   0.725  0.2891  0.1523 -0.0126
 3171W        W19645   1.940   9.344  12.747 -0.0084 -0.1086 -0.0544
 3172W        W19646   4.030  14.353  11.575  0.1610 -0.0718 -0.0383
 3173W        W19647   9.553   2.152   3.298 -0.1836  0.0983  0.0620
 3174W        W19648  16.859  16.180   4.114 -0.0957 -0.1319  0.1846
 3175W        W19649  15.596   9.410   2.676  0.1393 -0.1723 -0.2277
 3176W        W19650  12.616  16.194   3.902 -0.0341 -0.4387  0.1604
 3177W        W19651  10.695  18.724  10.512  0.2773  0.1745 -0.1497
 3178W        W19652  12.513  12.579   0.228  0.2444  0.2619  0.0423
 3179W        W19653  11.844  18.791  14.734 -0.1706  0.0702  0.0664
 3180W        W19654   8.538  10.478   5.164  0.3600 -0.0925 -0.0850
 3181W        W19655  11.664   0.150  13.260  0.2808 -0.0598 -0.0404
 3182W        W19656   3.755  15.719   1.059 -0.0819  0.0823 -0.0982
 3183W        W19657  18.926  15.842   2.158  0.3592 -0.1312  0.0637
 3184W        W19658   1.270  16.960  11.745 -0.0751 -0.0238 -0.2556
 3185W        W19659  17.475   0.637   3.809  0.1723  0.1796  0.1889
 3186W        W19660  14.791  15.054   0.463  0.0111 -0.2567  0.2888
 3187W        W19661   3.707  12.689  11.949 -0.2863 -0.4361 -0.0099
 3188W        W19662  13.788  18.569   1.450  0.3743 -0.2842 -0.1775
 3189W        W19663  13.347   1.241   5.016 -0.1105 -0.2166 -0.0132
 3190W        W19664   9.814  19.022   3.919 -0.0835 -0.2059  0.0287
 3191W        W19665  15.479   3.290  10.821 -0.0975 -0.2090  0.0750
 3192W        W19666  14.779   5.616   3.244  0.3935  0.0283  0.0509
 3193W        W19667   1.164   7.639   1.410  0.2586 -0.1650 -0.0551
 3194W        W19668  18.763   4.700  14.716  0.4347  0.3207  0.0450
 3195W        W19669   6.330   0.252   1.963 -0.4108  0.0989 -0.1271
 3196W        W19670  18.830   0.870   4.324  0.0556 -0.0893  0.1280
 3197W        W19671   1.953  13.672   5.098  0.0078 -0.1095  0.3023
 3198W        W19672   8.352  18.967  11.550  0.0603  0.1727  0.2898
 3199W        W19673  15.475  13.311   0.901  0.0578 -0.1362  0.1209
 3200W        W19674   3.507  15.043  12.164  0.4343 -0.0766  0.0760
 3201W        W19675  12.991  15.191  12.281 -0.2418 -0.1968  0.1266
 3202W        W19676  16.693   2.251   3.769 -0.2391  0.0441  0.0843
 3203W        W19677   4.530   4.838   3.720 -0.5422  0.1017  0.0608
 3204W        W19678  14.832  12.520   2.831 -0.4115 -0.0049  0.1035
 3205W        W19679   4.553  17.731  10.439  0.2523 -0.0208 -0.1451
 3206W        W19680  16.121   9.883  12.879 -0.0488 -0.1975 -0.1459
 3207W        W19681   3.312   1.108  12.952 -0.1447 -0.0169  0.0419
 3208W        W19682   6.134   8.399  13.294  0.3470 -0.1588 -0.1962
 3209W        W19683   7.619   8.815  10.284  0.1124 -0.0488 -0.0258
 3210W        W19684   0.186   5.798  14.001  0.0949 -0.0699  0.0088
 3211W        W19685   5.382  19.049   3.512  0.3135  0.1170 -0.2432
 3212W        W19686   2.611   2.332   2.899 -0.0587 -0.0627  0.1008
 3213W        W19687   1.816  13.793   3.124 -0.0875  0.1588 -0.4028
 3214W        W19688  14.640   0.488  12.307 -0.0449  0.1028  0.2842
 3215W        W19689  16.945  16.095  11.548 -0.0477  0.2045  0.4691
 3216W        W19690  16.838   6.013  10.551 -0.1572  0.1803 -0.2645
 3217W        W19691   8.257  14.158   3.926  0.2448  0.2393  0.2269
 3218W        W19692  15.242  16.552   2.732 -0.3297 -0.3159 -0.0661
 3219W        W19693  17.640  11.304   4.839 -0.4571 -0.1398  0.0404
 3220W        W19694  14.708   2.269  14.266 -0.1337 -0.2778 -0.1858
 3221W        W19695  16.551  12.900   2.291 -0.1694  0.2012 -0.0949
 3222W        W19696   6.179  16.087   4.501  0.1751  0.4712  0.2256
 3223W        W19697  10.177   3.994  11.562 -0.0245  0.1198 -0.0020
 3224W        W19698  11.447   5.330  12.775 -0.0419 -0.1615 -0.2925
 3225W        W19699  14.242  15.725   4.414  0.2234 -0.0191 -0.4048
 3226W        W19700  13.812   9.849   9.624  0.3177  0.3220  0.0055
 3227W        W19701   2.891  13.955   1.171 -0.0751 -0.1192  0.1876
 3228W        W19702  16.724  12.357  11.703 -0.0548  0.2205 -0.0524
 3229W        W19703  15.343   3.612  14.613 -0.1199 -0.1194 -0.0822
 3230W        W19704  15.035  13.000   1.052 -0.0921 -0.0303  0.1893
 3231W        W19705   7.430  19.094  11.787  0.1306 -0.2157  0.0541
 3232W        W19706  11.166   0.991   3.464  0.0682  0.0752 -0.1240
 3233W        W19707   5.910  18.267   0.876 -0.0839  0.2176 -0.0948
 3234W        W19708  14.972  12.010  12.420  0.0224  0.0489 -0.3156
 3235W        W19709   0.831  18.738   0.096  0.0152  0.2842 -0.0652
 3236W        W19710  18.370   5.608  11.047 -0.0969 -0.1086 -0.3368
 3237W        W19711   2.609   7.199   3.917  0.0005  0.2546  0.0899
 3238W        W19712   3.142   9.695   3.982 -0.0245  0.3430 -0.2037
 3239W        W19713   0.277   7.864   3.458  0.4795 -0.0576 -0.1747
 3240W        W19714   7.356  17.610   3.097 -0.2861  0.0195  0.1903
 3241W        W19715  17.831   4.003   3.798 -0.0212  0.2260  0.0157
 3242W        W19716   4.728   8.075  12.017  0.2425 -0.1130  0.0184
 3243W        W19717  19.198  16.271   2.168  0.1553  0.0540 -0.2771
 3244W        W19718   6.795   8.306   0.449 -0.2014 -0.3897  0.2897
 3245W        W19719   3.807   3.696   2.842 -0.0863 -0.1684 -0.1494
 3246W        W19720   5.867   7.073   1.244  0.4046  0.0848 -0.2672
 3247W        W19721   2.673   6.648  11.384 -0.0922  0.0730 -0.1870
 3248W        W19722  11.071   2.873   5.191 -0.3207  0.6165 -0.2098
 3249W        W19723  19.089   1.225   4.483  0.1635  0.0957 -0.2341
 3250W        W19724  19.168   2.441   0.933 -0.1304 -0.0875  0.0366
 3251W        W19725  17.049  11.205   0.639 -0.0741  0.4634 -0.1367
 3252W        W19726   7.923  16.639   1.035  0.0903 -0.1673 -0.0879
 3253W        W19727   1.978  11.188  14.844 -0.0308 -0.0795  0.0270
 3254W        W19728   6.974   7.962  12.480  0.0536 -0.0752  0.0546
 3255W        W19729   2.755  12.633  14.840  0.4335 -0.0805  0.1122
 3256W        W19730   2.926   9.360  14.737 -0.0639 -0.0046 -0.3696
 3257W        W19731  13.299  10.254   3.881 -0.3595  0.0055  0.3280
 3258W        W19732   9.910  13.672  13.515  0.1444  0.2951 -0.1222
 3259W        W19733  12.868   3.375  13.187  0.0955  0.0103 -0.0464
 3260W        W19734  13.923   6.720   4.067 -0.2439  0.1388 -0.1075
 3261W        W19735  13.581   6.316   4.144 -0.1674 -0.2506 -0.2873
 3262W        W19736  11.503  13.298   0.819  0.0422  0.1099  0.3422
 3263W        W19737  12.782   2.924   2.107 -0.1909  0.0475  0.1945
 3264W        W19738  14.158   7.687  12.183 -0.1714  0.1447 -0.0872
 3265W        W19739  15.395   8.300   3.496 -0.2437 -0.1809  0.1447
 3266W        W19740  15.092  17.369  13.832 -0.0267  0.1169  0.0702
 3267W        W19741   1.609   4.716   3.700  0.0757  0.1642  0.1164
 3268W        W19742  18.152   9.313   0.993  0.2724 -0.0912  0.0508
 3269W        W19743  16.543   0.063   2.027  0.0868  0.2896  0.4257
 3270W        W19744   0.167   2.194  11.203  0.0292 -0.1929 -0.0006
 3271W        W19745  16.428  17.655   2.641 -0.1900  0.0401 -0.0998
 3272W        W19746   8.960   0.929  13.060 -0.1009 -0.2558 -0.2483
 3273W        W19747  14.190   9.577  12.824  0.1500  0.2892 -0.0842
 3274W        W19748  13.673  14.097  11.432 -0.3887  0.2545 -0.2531
 3275W        W19749   5.745   2.541   0.636  0.0896  0.1010  0.2792
 3276W        W19750  15.585   6.362  13.395  0.0007 -0.2477 -0.0842
 3277W        W19751  10.959   2.439   2.033 -0.1882  0.0520 -0.3520
 3278W        W19752  14.664   7.917   2.316  0.0201 -0.1380 -0.0406
 3279W        W19753   6.765   4.548   0.479  0.3712  0.0542  0.3333
 3280W        W19754  12.166  18.290   3.218 -0.0630 -0.2016 -0.2339
 3281W        W19755  17.672   8.327  13.313  0.0766  0.2262 -0.0676
 3282W        W19756   9.173  14.740  10.012 -0.2410  0.0614 -0.1880
 3283W        W19757  10.726  17.848   1.820 -0.1062  0.2257 -0.3014
 3284W        W19758   9.882  15.053  13.897  0.1453  0.1874  0.0383
 3285W        W19759  16.063  15.125  14.562  0.0637 -0.0517  0.1261
 3286W        W19760  14.409  14.600  13.859 -0.4803  0.1152 -0.1285
 3287W        W19761   3.114   7.858   2.619 -0.1280  0.0993 -0.3104
 3288W        W19762   4.148  13.364   3.457 -0.2747 -0.2158 -0.1344
 3289W        W19763  16.998   7.115  14.282 -0.1799  0.0190  0.1638
 3290W        W19764  12.905   1.464   5.151 -0.2534  0.0770 -0.2927
 3291W        W19765  12.425   3.541   4.795  0.0776 -0.4557 -0.2863
 3292W        W19766   2.062  10.733  13.853 -0.0853 -0.2022  0.0353
 3293W        W19767   5.874  11.099   0.382 -0.1423  0.2493  0.0134
 3294W        W19768   2.902  18.934   3.869 -0.0136  0.0509  0.2370
 3295W        W19769  17.876   6.100  11.048  0.3343  0.0940  0.0666
 3296W        W19770   5.328  17.316  14.326  0.1476 -0.3747 -0.1679
 3297W        W19771   1.333  10.866   4.462  0.2095 -0.4254 -0.0801
 3298W        W19772  15.023  11.652   3.887  0.0762  0.1318 -0.1371
 3299W        W19773  17.119  13.457  11.983  0.1277 -0.1241  0.2702
 3300W        W19774  12.956   3.484   4.801 -0.1962  0.1043  0.0426
 3301W        W19775   8.946   6.855  13.570  0.1937  0.2001 -0.0757
 3302W        W19776  15.191  18.618   0.418 -0.2491 -0.1840 -0.0971
 3303W        W19777  11.374   9.204   3.104 -0.1811 -0.0369 -0.1149
 3304W        W19778   1.696  13.560  13.352  0.1171  0.0935 -0.0654
 3305W        W19779  18.953   8.863  12.079  0.1736 -0.1639 -0.0941
 3306W        W19780   0.785   8.594   0.236  0.1147  0.0885  0.0182
 3307W        W19781  19.206   1.000   2.904  0.1115  0.0684 -0.2618
 3308W        W19782   4.274   6.691  11.666  0.0501 -0.0279 -0.1501
 3309W        W19783  18.079  11.836   2.934  0.0091  0.2620  0.3429
 3310W        W19784  19.361   0.101   4.381 -0.1413 -0.0733 -0.1164
 3311W        W19785   5.350  16.610   1.157 -0.2784  0.2017 -0.2289
 3312W        W19786  11.166   2.000   2.186  0.1162  0.2818  0.1704
 3313W        W19787  16.741  10.706   0.090 -0.2888  0.1355 -0.1115
 3314W        W19788   8.483   0.188   0.504 -0.1666  0.0665  0.1116
 3315W        W19789   2.624   9.147  10.875  0.1098 -0.3828 -0.0537
 3316W        W19790  16.952  10.186  10.885  0.1799  0.0344 -0.0043
 3317W        W19791   8.737  19.367   2.683  0.0525  0.0885 -0.2144
 3318W        W19792   4.560   0.785  11.716 -0.3310  0.1583 -0.1035
 3319W        W19793   0.259   7.669  13.832 -0.1819  0.1044  0.0868
 3320W        W19794  15.676  12.406   4.818 -0.1515  0.0993  0.1274
 3321W        W19795  10.369   1.344  12.619  0.0118  0.0565  0.1561
 3322W        W19796  11.951   9.273  13.044 -0.0323 -0.0839 -0.1099
 3323W        W19797   7.397   2.186   1.139 -0.0135  0.2122 -0.0246
 3324W        W19798   6.369  17.329   0.845 -0.0992  0.1866  0.0140
 3325W        W19799   8.291   2.435   3.429  0.0938 -0.0902 -0.0611
 3326W        W19800   8.546   1.890   4.085  0.3137  0.1597  0.0176
 3327W        W19801  15.999   3.844  12.225  0.2787  0.1916  0.2897
 3328W        W19802   2.531  13.304  12.300  0.1968 -0.0659  0.2077
 3329W        W19803   4.880  18.529  13.840 -0.0196  0.0865  0.2683
 3330W        W19804  15.848  19.233  11.320  0.1476 -0.0474 -0.1449
 3331W        W19805  12.418   3.887   5.193 -0.3577  0.1208  0.0737
 3332W        W19806   4.898   0.508   0.596 -0.2899 -0.1687 -0.3936
 3333W        W19807   7.129   4.232   3.836 -0.1143 -0.2037 -0.3469
 3334W        W19808  13.976  16.885  10.728  0.2458  0.0627  0.0291
 3335W        W19809  13.252   2.361  13.235 -0.1128 -0.1074 -0.1383
 3336W        W19810  18.426   2.194   3.879 -0.2236 -0.0573 -0.4206
 3337W        W19811   2.591  15.007  14.160 -0.3363 -0.2356 -0.0798
 3338W        W19812  15.654   9.715   3.099  0.1361  0.4061  0.2261
 3339W        W19813   0.633  13.246  13.621  0.0536  0.0870 -0.2602
 3340W        W19814   9.012   3.701   8.425  0.1340 -0.0879 -0.0590
 3341W        W19815   8.625  15.879   4.928  0.0252 -0.3773 -0.0824
 3342W        W19816   0.672   1.025   4.241 -0.0178 -0.1386 -0.1771
 3343W        W19817   4.149   8.672   2.060 -0.2323  0.4177  0.3408
 3344W        W19818   1.046   5.182  13.191  0.1780 -0.2110 -0.0539
 3345W        W19819   5.297  11.080  12.550  0.3591  0.2654 -0.2172
 3346W        W19820  11.403  15.732   2.751  0.1142  0.4318  0.3241
 3347W        W19821   8.592  14.805  12.733  0.1310  0.0995  0.2246
 3348W        W19822  16.511  16.450   0.748 -0.3298 -0.2898  0.1795
 3349W        W19823  16.828   9.402   0.287 -0.2027 -0.0263 -0.3429
 3350W        W19824   6.520   2.149  11.707 -0.4226 -0.0609 -0.0503
 3351W        W19825  16.213  15.214   1.667  0.1601 -0.1019 -0.0076
 3352W        W19826  13.899   8.425   3.630 -0.0759  0.1329  0.0687
 3353W        W19827   8.010   8.286   0.703  0.1821  0.1453 -0.4132
 3354W        W19828  16.978  16.467   2.689 -0.0190 -0.1323 -0.1028
 3355W        W19829   1.731   3.799  12.614 -0.0087 -0.0029 -0.2090
 3356W        W19830   8.457   1.739   1.829  0.1796  0.0167 -0.0411
 3357W        W19831  17.058   9.595   4.328 -0.1622  0.2902 -0.0164
 3358W        W19832   2.274   5.041  12.320 -0.3706 -0.4055  0.1074
 3359W        W19833  14.324   2.575   0.505 -0.1764 -0.1705 -0.0834
 3360W        W19834   6.117  17.404  14.561  0.0034 -0.0636 -0.1186
 3361W        W19835   0.561  18.227   2.258  0.2400  0.1279 -0.2258
 3362W        W19836  10.741   7.511   0.261 -0.2045 -0.1638 -0.3412
 3363W        W19837  13.242  16.264   2.477 -0.0560 -0.1077 -0.1415
 3364W        W19838   4.388   3.799   3.042 -0.1585  0.1097 -0.2666
 3365W        W19839   7.254   2.569  14.340  0.1811 -0.0708  0.2834
 3366W        W19840  13.072  12.163  11.551  0.1033  0.2103  0.2473
 3367W        W19841   6.055   4.712  12.326 -0.1793  0.0654 -0.6720
 3368W        W19842  16.911  14.470   4.849  0.7465  0.0775  0.1540
 3369W        W19843   0.199   9.616   2.042 -0.1024  0.0333 -0.0482
 3370W        W19844  14.321   1.105   5.107 -0.2397  0.3005 -0.1296
 3371W        W19845   6.951   6.197  11.522 -0.0485 -0.2788  0.1402
 3372W        W19846  15.452  14.379  14.687 -0.1514  0.1664 -0.5923
 3373W        W19847  10.283   5.746  11.423 -0.1614 -0.0042 -0.2170
 3374W        W19848  15.797  15.679   0.382  0.3022 -0.1704 -0.1067
 3375W        W19849   0.337  16.218   0.029  0.0349  0.2784 -0.0937
 3376W        W19850   3.105   8.161  12.097 -0.2146 -0.1384  0.2055
 3377W        W19851  11.964   4.552  14.155 -0.1799  0.2719  0.0155
 3378W        W19852   5.635   0.044  14.796  0.2475 -0.1359  0.0959
 3379W        W19853  10.698  10.930  12.637  0.0953 -0.1715 -0.0798
 3380W        W19854  11.243  17.857   0.537  0.2115  0.1973  0.4614
 3381W        W19855   5.118   3.905  11.718 -0.2045 -0.1387  0.0747
 3382W        W19856   1.028  19.297   0.491  0.0449 -0.1236  0.0237
 3383W        W19857  10.622  17.016  12.396  0.2796 -0.0948  0.1426
 3384W        W19858  17.450   4.707   1.622 -0.0577  0.0625  0.1269
 3385W        W19859   0.600  15.657   5.654 -0.2892 -0.2607  0.2158
 3386W        W19860  15.218   5.580  14.723 -0.2775  0.0003  0.1132
 3387W        W19861  19.281   9.993  14.046 -0.1538  0.2705 -0.3124
 3388W        W19862  18.244   3.622   1.096 -0.1814 -0.0753  0.1330
 3389W        W19863   8.063  13.966   1.759  0.2214 -0.1456  0.1316
 3390W        W19864   9.642   9.386   0.564 -0.1147 -0.4219  0.0148
 3391W        W19865  12.219  18.090  14.202 -0.0906 -0.0310  0.2026
 3392W        W19866  15.623   9.287   1.445 -0.0886  0.1916 -0.2433
 3393W        W19867  18.470   2.178  14.536 -0.1816  0.0226 -0.2079
 3394W        W19868   8.349   8.257   2.481  0.5914 -0.4082  0.1027
 3395W        W19869  15.773  10.237   2.183 -0.0744 -0.0730  0.1594
 3396W        W19870   7.218   4.821   2.143  0.0240  0.1006 -0.0420
 3397W        W19871  17.489  12.889   2.358  0.0553 -0.4572 -0.2999
 3398W        W19872  11.949   7.864  14.071  0.0029  0.0276 -0.1610
 3399W        W19873   2.263   0.639  12.402  0.2746 -0.2352  0.0939
 3400W        W19874   0.780   2.687   1.087 -0.1581  0.1564 -0.0847
 3401W        W19875   4.611   8.235   4.686 -0.0993  0.2432  0.1187
 3402W        W19876   3.362   5.025   0.228  0.0960  0.0273  0.2476
 3403W        W19877  12.907  10.595   5.368  0.0265 -0.1109 -0.0627
 3404W        W19878  10.615   8.012   3.224 -0.0427  0.3003  0.0442
 3405W        W19879   9.909   7.253   0.724 -0.1521  0.0673 -0.4306
 3406W        W19880  14.803   7.218   3.822 -0.2483  0.0220  0.1466
 3407W        W19881  18.991  13.181  14.241  0.0842 -0.2384  0.2418
 3408W        W19882   6.602  13.807  12.196  0.2478  0.1253  0.0049
 3409W        W19883   1.889  17.418  13.749 -0.0023  0.1290 -0.0187
 3410W        W19884  15.930  11.523  13.755 -0.0387 -0.1770 -0.1415
 3411W        W19885   5.617  10.628  10.244  0.2060 -0.1143 -0.1795
 3412W        W19886   1.779  17.990   5.422  0.1338  0.1521  0.1887
 3413W        W19887   5.690  17.307   2.778 -0.0012  0.0394  0.0282
 3414W        W19888   2.825  16.507   3.090  0.1333 -0.3305  0.0045
 3415W        W19889   5.956  16.511   1.652 -0.1289 -0.0647  0.2753
 3416W        W19890  10.248  11.131  14.717  0.1380 -0.0676  0.2804
 3417W        W19891  19.016   8.333   4.610  0.0814  0.3955  0.0532
 3418W        W19892  10.328   8.744  13.067 -0.3493  0.3519 -0.0721
 3419W        W19893   1.481   6.337   0.775 -0.0486 -0.0416 -0.1063
 3420W        W19894  13.759   2.407  12.772  0.1080  0.5338  0.1619
 3421W        W19895  17.566   7.316  13.315 -0.0175  0.1432 -0.3114
 3422W        W19896   5.572   6.441   4.169  0.1421 -0.1179  0.3404
 3423W        W19897  18.496   0.876  14.888 -0.2545 -0.1177 -0.0361
 3424W        W19898   6.673  13.263   4.418 -0.1743  0.0340 -0.1651
 3425W        W19899   5.425   9.772  12.190 -0.0067 -0.1976  0.0971
 3426W        W19900   8.046  12.057  11.170 -0.1824 -0.0398 -0.0840
 3427W        W19901   2.007  11.294   3.990  0.0534  0.1258 -0.1412
 3428W        W19902   6.012   8.328   0.573  0.4189  0.0502  0.4189
 3429W        W19903  13.942   1.024  11.387  0.1535 -0.0034 -0.2300
 3430W        W19904   5.096  15.124   3.945 -0.2700  0.1219  0.2124
 3431W        W19905   2.848  17.332  12.917  0.2058  0.0206  0.4212
 3432W        W19906   5.041   2.692  12.479 -0.3126 -0.0549  0.1868
 3433W        W19907   4.100   6.864   0.339 -0.0703  0.3170 -0.1449
 3434W        W19908   3.107   4.629   3.807  0.1273 -0.2747  0.2478
 3435W        W19909  15.781   2.774   5.033 -0.0770  0.0855 -0.1460
 3436W        W19910   0.511  12.611   0.828  0.1173  0.1000 -0.2696
 3437W        W19911  14.941  10.668   2.694 -0.0160  0.4422  0.2208
 3438W        W19912  13.083   6.415  10.758 -0.1872  0.3495  0.3114
 3439W        W19913   8.752   6.233  10.176  0.0392 -0.0447 -0.0720
 3440W        W19914  17.272   2.025   4.371 -0.2168 -0.1757 -0.0889
 3441W        W19915  16.435   6.236   1.169 -0.2054 -0.0322 -0.0424
 3442W        W19916  18.426  15.833  13.859  0.0197  0.0238  0.2440
 3443W        W19917  12.881   1.815  12.867 -0.0193 -0.0380  0.3196
 3444W        W19918  14.188   5.174  11.341  0.0048  0.1143 -0.2006
 3445W        W19919  17.678  11.305  12.755 -0.5646 -0.4637  0.1071
 3446W        W19920   4.581  14.531   5.251 -0.1704 -0.1003 -0.1724
 3447W        W19921   2.951   6.515  14.548  0.0881 -0.0865  0.0224
 3448W        W19922   8.955  17.680   4.014 -0.0557 -0.1575 -0.2563
 3449W        W19923  17.767  13.475  13.154  0.1877 -0.0143  0.0068
 3450W        W19924  16.985  15.406  13.477 -0.1043 -0.0238  0.0677
 3451W        W19925  16.196   5.648  11.824  0.1310 -0.0058 -0.2526
 3452W        W19926  13.996   6.136   2.658  0.2078 -0.1507  0.1298
 3453W        W19927   9.294  14.649   4.415 -0.0698  0.0568 -0.0114
 3454W        W19928  12.733   4.697   4.211  0.1580 -0.2411  0.1911
 3455W        W19929  13.463   0.307   1.716 -0.1143 -0.1446 -0.1185
 3456W        W19930   6.814  10.141   3.046  0.1102 -0.1713  0.1889
 3457W        W19931   5.406   3.018  11.462  0.3886 -0.0977 -0.1376
 3458W        W19932   4.693   6.326   5.363 -0.0076 -0.1986 -0.1474
 3459W        W19933   5.086  14.547   1.491  0.0735  0.4054  0.0464
 3460W        W19934   9.651   6.097   1.615  0.1431  0.2660 -0.3955
 3461W        W19935  16.837   9.177  11.129  0.0141  0.1350 -0.1800
 3462W        W19936  10.418   7.502   1.983  0.0930  0.0263  0.2675
 3463W        W19937  14.180  14.391  13.051  0.2034 -0.1449 -0.1674
 3464W        W19938   2.863  12.181   0.206  0.0617 -0.1588  0.1994
 3465W        W19939   4.689   2.781   0.692  0.0971 -0.2004  0.1650
 3466W        W19940  16.199   0.943  13.871  0.0870 -0.0516 -0.2770
 3467W        W19941   7.998   0.455   0.850 -0.2596 -0.1215 -0.2247
 3468W        W19942   3.666  17.293   4.017 -0.0065 -0.0949  0.1283
 3469W        W19943   4.187   1.345  10.064  0.3108 -0.1310  0.2135
 3470W        W19944  16.924  17.229   4.636  0.0735 -0.0606  0.0794
 3471W        W19945   9.110  10.695   1.064  0.0599  0.3464 -0.0762
 3472W        W19946  10.607   5.912  11.755  0.0215  0.0226  0.1266
 3473W        W19947   3.839  18.205  12.738 -0.1108  0.0538 -0.1611
 3474W        W19948   0.180   8.409  13.093 -0.1881 -0.3206  0.0622
 3475W        W19949  15.794   9.704   4.928 -0.2482 -0.2406  0.1606
 3476W        W19950   9.633  13.833  13.937 -0.1389  0.0907  0.0080
 3477W        W19951   3.285   3.597  11.133  0.0810 -0.0938  0.0795
 3478W        W19952  13.012  18.104  11.729 -0.3291 -0.3107 -0.0523
 3479W        W19953  10.224  18.072   4.245  0.1959 -0.1457 -0.2303
 3480W        W19954  14.507   8.481   3.532 -0.0867  0.0104  0.0818
 3481W        W19955  12.576   9.674   4.185 -0.0034 -0.3267  0.1273
 3482W        W19956   1.362  14.843   2.486  0.2170  0.0405  0.2366
 3483W        W19957   5.003  18.432   2.568 -0.0055  0.2546 -0.1464
 3484W        W19958   1.999  12.665  10.782 -0.4855  0.2526 -0.2171
 3485W        W19959   0.744  11.295   2.405 -0.1447  0.0036 -0.3586
 3486W        W19960  16.638   5.200  12.209  0.0277 -0.2102 -0.0201
 3487W        W19961  15.474  12.236   0.743 -0.1361  0.2679 -0.2830
 3488W        W19962  16.103  14.794   4.513 -0.2315  0.2764 -0.1202
 3489W        W19963   3.726  14.289  13.489  0.1925  0.1603 -0.0458
 3490W        W19964  12.099   3.835   1.689 -0.1871 -0.1797  0.1135
 3491W        W19965   9.931  17.090  12.692  0.2134 -0.0579 -0.0314
 3492W        W19966   4.373  10.414  11.634  0.1453 -0.1743 -0.5696
 3493W        W19967   0.381   8.557  14.431 -0.3003  0.1508 -0.1288
 3494W        W19968  10.719  13.433  12.215  0.1435 -0.1171  0.0794
 3495W        W19969  17.513  18.242   3.221  0.0699  0.4367  0.0298
 3496W        W19970   7.076   0.923   4.790 -0.2347 -0.1799 -0.2193
 3497W        W19971  18.104  15.735   0.931  0.1045  0.3553  0.0022
 3498W        W19972   5.440  16.430   0.153  0.0207 -0.0626 -0.2774
 3499W        W19973   5.869   3.211  11.458  0.4717  0.0504 -0.2649
 3500W        W19974   1.710   7.336   0.677  0.0575 -0.2828 -0.0157
 3501W        W19975  11.260   8.812   2.789 -0.1268 -0.2004 -0.0757
 3502W        W19976  18.113   1.990  11.312  0.7412  0.0757 -0.1327
 3503W        W19977   7.360  19.168  12.265  0.1715 -0.1245  0.0008
 3504W        W19978  14.664   0.808  14.596  0.3743  0.2102 -0.0278
 3505W        W19979  15.950  10.552   1.182  0.0101 -0.1329 -0.1748
 3506W        W19980  15.369  16.624   5.541  0.0128 -0.2506  0.1252
 3507W        W19981   3.791   4.504  12.553  0.3285 -0.0393  0.1013
 3508W        W19982  16.237  11.522   1.126 -0.1497 -0.2095  0.1530
 3509W        W19983   9.233   6.647   4.474  0.3713  0.1500 -0.0823
 3510W        W19984   8.562   8.038  14.222  0.0350 -0.1074 -0.1353
 3511W        W19985  16.949  17.461   0.557 -0.0019 -0.0642 -0.1974
 3512W        W19986   3.707   6.799   9.158  0.0530 -0.2481 -0.0839
 3513W        W19987   3.139  19.307   1.362 -0.1450  0.0149 -0.1412
 3514W        W19988  13.044   7.312   0.824 -0.0544 -0.2942 -0.1043
 3515W        W19989   5.349   6.159   1.014 -0.0224 -0.1683  0.2148
 3516W        W19990   6.985  15.533   3.899  0.0496  0.3206  0.0842
 3517W        W19991   9.091   6.454  14.734 -0.0927  0.0867 -0.1302
 3518W        W19992   2.416  17.052  11.301 -0.0886  0.3625  0.1288
 3519W        W19993  10.029   2.809   1.124 -0.1308  0.0687  0.2167
 3520W        W19994  15.749   6.460   5.621  0.1356 -0.0026 -0.0364
 3521W        W19995  14.344  13.276   0.701  0.1545 -0.1430 -0.0509
 3522W        W19996  19.131  14.026   1.521 -0.1458 -0.3074 -0.1206
 3523W        W19997   7.582  12.637   5.468 -0.1952 -0.2271 -0.1471
 3524W        W19998  16.353   0.856   1.806 -0.1185  0.2523 -0.0541
 3525W        W19999   9.732   4.131   1.148  0.1774 -0.1488  0.3526
 3526W        W20000   6.352   8.055   0.419  0.0381  0.3425 -0.3598
 3527W        W20001  11.467   6.415   2.293  0.1900  0.0855 -0.0110
 3528W        W20002   9.259  10.600  12.667 -0.0923 -0.1008 -0.1314
 3529W        W20003  12.214  11.067   0.001  0.0730  0.2903  0.2483
 3530W        W20004   8.348  14.566  12.331 -0.3256  0.0769  0.1929
 3531W        W20005   4.612   3.380  12.414 -0.2374  0.1951  0.0424
 3532W        W20006  12.316  14.397   9.247 -0.0617  0.2433  0.2683
 3533W        W20007  14.383  15.708   1.058 -0.3134  0.1855 -0.1679
 3534W        W20008  17.271  17.474   1.566 -0.2900  0.0184 -0.0907
 3535W        W20009  15.235   0.237   3.443  0.2467  0.0111  0.0789
 3536W        W20010   7.425  15.920  12.509  0.1426 -0.2544  0.0517
 3537W        W20011  15.188  18.178  11.906 -0.1309 -0.1104  0.1478
 3538W        W20012   8.611  19.076  13.705  0.1492 -0.0556 -0.0864
 3539W        W20013  11.397   1.045   4.896 -0.1305 -0.2937  0.0035
 3540W        W20014   6.959   9.728  14.735 -0.2401 -0.0771 -0.0372
 3541W        W20015   7.607  11.596   4.743  0.0007  0.1700  0.0853
 3542W        W20016  11.686   1.050  10.708 -0.2979 -0.1268 -0.0527
 3543W        W20017   9.613   7.770  12.284 -0.2645  0.0515 -0.2479
 3544W        W20018  11.709  12.158  11.593 -0.3565  0.0093  0.0498
 3545W        W20019   9.791  13.260   2.802 -0.0971 -0.2393 -0.2309
 3546W        W20020   1.496   6.501  12.781  0.0378  0.0192 -0.0568
 3547W        W20021  10.529  18.896   2.841  0.1879  0.2100  0.1707
 3548W        W20022  11.256   7.900   2.923  0.2002 -0.1166 -0.0481
 3549W        W20023   7.396   0.662  13.349 -0.3584 -0.4160  0.2699
 3550W        W20024   7.245  11.998   2.902 -0.1975 -0.1086  0.0026
 3551W        W20025   8.337   8.624   9.649 -0.3308  0.0594  0.0453
 3552W        W20026   4.291  13.355   2.519 -0.0756 -0.0251 -0.0569
 3553W        W20027   8.099   6.792   1.365  0.1901  0.3646 -0.0460
 3554W        W20028   3.536   5.806   1.092  0.0894  0.1507 -0.2211
 3555W        W20029  11.097  12.013   3.825  0.2234 -0.1152  0.3246
 3556W        W20030   5.703   1.815   1.988  0.1969 -0.2138  0.1578
 3557W        W20031   0.077   7.563  13.328  0.1079  0.3546 -0.3122
 3558W        W20032   8.720  12.211  12.860  0.0595  0.0818  0.1018
 3559W        W20033  10.472  12.284  13.086 -0.1408  0.0814 -0.4078
 3560W        W20034  14.416  16.695   1.830  0.4989 -0.0601  0.1987
 3561W        W20035   7.889   0.001   0.637 -0.2878  0.1193 -0.1286
 3562W        W20036   8.563  11.939   3.144 -0.1084 -0.0601  0.0778
 3563W        W20037   9.282  19.108  13.898 -0.1059 -0.0030 -0.0152
 3564W        W20038   1.586  15.085  10.674  0.0539  0.1954  0.1977
 3565W        W20039   4.412  14.839   2.599 -0.1426 -0.2374  0.1312
 3566W        W20040  15.548   5.897   2.437  0.0306  0.1704 -0.0260
 3567W        W20041  18.037   5.397   3.265 -0.2079 -0.1945  0.0232
 3568W        W20042   5.871  11.743   0.392  0.0308 -0.0146  0.3216
 3569W        W20043  12.303   5.321  14.294  0.2199 -0.0873  0.0598
 3570W        W20044  14.449  14.002   0.287  0.1649 -0.1225 -0.1104
 3571W        W20045  11.571  13.897   3.050  0.3222 -0.2769  0.1146
 3572W        W20046  14.234   6.787  12.248 -0.0594  0.4123  0.0630
 3573W        W20047  16.020  14.647   4.945 -0.2114  0.1568  0.2301
 3574W        W20048  12.865   2.394   2.069  0.1494 -0.3236 -0.0373
 3575W        W20049   6.844   1.495  12.179 -0.0728 -0.1010  0.6284
 3576W        W20050  16.067  16.445   1.021 -0.0071 -0.0350  0.1320
 3577W        W20051   5.890  15.429  12.151  0.0748  0.3139 -0.1428
 3578W        W20052  10.601  16.256  14.850  0.0632 -0.2441  0.2898
 3579W        W20053  11.635   1.826  10.099  0.0861  0.0093  0.0909
 3580W        W20054   4.591  18.705   4.162  0.3251  0.0198 -0.0434
 3581W        W20055   8.262  11.029   0.225 -0.1945  0.1712  0.1021
 3582W        W20056  13.756  10.438  14.689  0.1599 -0.1131 -0.0613
 3583W        W20057  16.507   3.808   1.005 -0.0655 -0.0862  0.1404
 3584W        W20058  14.742   5.309   4.035  0.1991 -0.0769  0.2202
 3585W        W20059  17.299  14.549   2.655  0.5564 -0.0940  0.0266
 3586W        W20060  18.931  14.958  14.653  0.1568  0.0819 -0.0758
 3587W        W20061  17.217   4.562   1.993  0.0546  0.1259 -0.0152
 3588W        W20062   2.763  11.992   1.014  0.0101  0.1432  0.1828
 3589W        W20063  12.123   0.815  12.704  0.0346 -0.1184 -0.4512
 3590W        W20064  17.828   8.677   5.872  0.0997  0.0974  0.1027
 3591W        W20065  13.373   7.845  10.917  0.5495  0.0295 -0.0278
 3592W        W20066  15.932   5.906  10.370  0.1139 -0.0538  0.1079
 3593W        W20067   0.747   2.153   9.458  0.0326  0.3664  0.2379
 3594W        W20068   0.049   0.056   0.712 -0.0154  0.2595 -0.1638
 3595W        W20069   4.138   3.735  13.598  0.1367  0.3044  0.0844
 3596W        W20070   9.002  10.252  14.098 -0.3229 -0.0217 -0.0054
 3597W        W20071  18.069   9.955  14.074 -0.2733  0.0066 -0.1278
 3598W        W20072  10.903  12.592   1.910  0.1866  0.0175  0.2318
 3599W        W20073   8.574   7.237  14.727  0.0766  0.2460  0.0990
 3600W        W20074  11.864  16.648   3.794  0.0247  0.0261  0.0225
 3601W        W20075  18.162   3.900   1.562  0.1940  0.0373  0.2338
 3602W        W20076  16.723   8.420  13.325 -0.1840 -0.1623 -0.0348
 3603W        W20077   6.072   2.285   5.528  0.0449 -0.3183  0.3441
 3604W        W20078   6.378   5.887  14.620  0.2235  0.2157  0.2547
 3605W        W20079  19.298   5.087  13.623 -0.1026 -0.1210  0.0658
 3606W        W20080   3.912  18.093   1.161 -0.1226  0.0543  0.0429
 3607W        W20081   1.469   9.710   4.612 -0.0519 -0.1690 -0.3542
 3608W        W20082  10.042  10.668   4.366 -0.0784 -0.1443  0.0077
 3609W        W20083   3.434   2.162  11.745 -0.0461 -0.1433 -0.0196
 3610W        W20084   6.120  16.007   2.778 -0.0341 -0.0603 -0.2123
 3611W        W20085   3.295  16.493   1.417  0.0122 -0.2958 -0.1380
 3612W        W20086  10.927  13.571   4.922  0.2139 -0.4876  0.0820
 3613W        W20087   5.154  14.033   5.236  0.2201  0.3886  0.1551
 3614W        W20088   8.537   4.546   1.357  0.0278  0.2710 -0.0065
 3615W        W20089   8.719   8.926  13.951  0.0537 -0.0746  0.1241
 3616W        W20090   4.727   2.401   2.000 -0.0729 -0.2774  0.0990
 3617W        W20091  19.039  11.708  11.860 -0.0423  0.1481 -0.3530
 3618W        W20092  19.184   3.244   1.633  0.0363 -0.1477  0.0489
 3619W        W20093   9.206  18.948   3.822 -0.4708 -0.1593 -0.1399
 3620W        W20094   6.721  10.765   2.529  0.1101  0.4671  0.1635
 3621W        W20095  12.613   8.226  11.356 -0.2762 -0.1489 -0.0952
 3622W        W20096  16.523  12.085   1.556  0.2275 -0.1100 -0.0148
 3623W        W20097  16.183  18.338  14.172  0.2449  0.5544 -0.0255
 3624W        W20098  17.233  15.209  12.812  0.1166  0.1003  0.0712
 3625W        W20099  18.570  18.935   0.197  0.0945 -0.2152  0.1499
 3626W        W20100  12.433  14.916   3.272  0.1756 -0.1037  0.2782
 3627W        W20101  18.818   5.423  13.349 -0.2614 -0.0880  0.2043
 3628W        W20102   1.752  14.192  13.036  0.0528  0.1081 -0.2152
 3629W        W20103   5.886  10.369  11.680  0.0560  0.0750  0.1722
 3630W        W20104   1.886  12.996  11.678 -0.2352  0.1813 -0.0498
 3631W        W20105  10.798  18.704   4.133  0.0665  0.3295  0.0178
 3632W        W20106  14.273  17.900   3.925 -0.2776 -0.0144 -0.2939
 3633W        W20107   7.186  16.609  13.084  0.2139 -0.0373 -0.3954
 3634W        W20108   2.096  12.284  10.006 -0.1456  0.0894 -0.1851
 3635W        W20109   0.497  18.262   4.233 -0.0610 -0.1199  0.0490
 3636W        W20110  17.826   0.604  14.156  0.0705  0.2379 -0.0490
 3637W        W20111   9.227  13.280  14.382  0.2258 -0.1610  0.0212
 3638W        W20112  17.480  13.747  12.648 -0.4268  0.3353 -0.1003
 3639W        W20113  14.151   9.770   0.952 -0.1085 -0.1442  0.2792
 3640W        W20114   1.913  19.080   1.719  0.0668  0.2284  0.3465
 3641W        W20115   0.832  17.959  12.534 -0.4026 -0.3099  0.4832
 3642W        W20116  10.718  15.640  11.251  0.1352  0.1368  0.0948
 3643W        W20117  13.124   0.948   3.564  0.0770 -0.2914 -0.1978
 3644W        W20118  14.111  10.649   2.135 -0.2684  0.1808 -0.2047
 3645W        W20119  15.388   8.311  10.306 -0.1535  0.1662 -0.1420
 3646W        W20120  13.154  16.405  11.763  0.3073 -0.1448 -0.1600
 3647W        W20121  18.773  14.588  12.671 -0.1373 -0.1126 -0.0451
 3648W        W20122  16.237  10.544   0.298 -0.2135  0.2998  0.0617
 3649W        W20123   1.717   7.947  12.554  0.2661 -0.0239 -0.0173
 3650W        W20124  10.935   7.322  12.606  0.0952 -0.1806 -0.3496
 3651W        W20125  11.107   7.537   5.217 -0.3199 -0.2077  0.1549
 3652W        W20126  12.014  14.201   2.814 -0.1173  0.0660 -0.1698
 3653W        W20127   6.257  14.800   4.728 -0.1698  0.1049 -0.0825
 3654W        W20128  13.895  13.304  14.610 -0.3152  0.1149 -0.2074
 3655W        W20129   6.638   9.534  11.295  0.0270 -0.0350 -0.0854
 3656W        W20130   7.970   6.037   0.932  0.3618  0.1452  0.2208
 3657W        W20131   4.854   1.913   3.163  0.1509 -0.1211 -0.0838
 3658W        W20132   2.107  11.152  12.932 -0.1306 -0.0861 -0.0055
 3659W        W20133  19.134  10.790   3.256 -0.0854 -0.1253 -0.4496
 3660W        W20134   8.735  15.111  13.785 -0.1431  0.0965  0.1490
 3661W        W20135  10.968  13.328  13.671 -0.1358  0.1789 -0.0118
 3662W        W20136   1.602   6.664   0.021 -0.0358 -0.0372  0.2036
 3663W        W20137  13.511   5.483  10.994 -0.2366 -0.2833 -0.3231
 3664W        W20138   0.779   4.361  11.424 -0.2719  0.0624  0.2107
 3665W        W20139   3.792   5.735   2.820  0.0184 -0.3753 -0.0430
 3666W        W20140  14.477  10.147   2.661  0.1873  0.1119  0.0687
 3667W        W20141   4.199  13.941   0.592 -0.1418 -0.3400  0.0156
 3668W        W20142  12.195   2.057   1.349  0.0736 -0.3492  0.1123
 3669W        W20143   8.750  17.456   3.569 -0.0699 -0.2792 -0.1739
 3670W        W20144   9.665  10.926  10.151 -0.0897  0.0036  0.1401
 3671W        W20145  15.667  15.290   1.490 -0.3213 -0.0414  0.2063
 3672W        W20146   2.329   0.905  13.170 -0.1845  0.3184  0.4199
 3673W        W20147   8.132  11.228  13.079 -0.0340  0.1202 -0.0696
 3674W        W20148   0.749   3.512   0.450 -0.1953 -0.0465  0.0960
 3675W        W20149  11.757  13.411  11.937 -0.0432 -0.0400  0.2236
 3676W        W20150   8.336  17.023  13.686 -0.0726 -0.1396 -0.4099
 3677W        W20151  11.655   5.183  11.947  0.1789 -0.0069 -0.0468
 3678W        W20152   8.575   6.755  10.819 -0.0644 -0.0324  0.1049
 3679W        W20153  18.388  15.507   3.725  0.4220  0.3670  0.2024
 3680W        W20154   4.679  14.824   1.288 -0.4444  0.2475  0.1105
 3681W        W20155   6.139   3.338   0.610 -0.1732 -0.0566  0.1693
 3682W        W20156   1.059   3.172  11.427  0.0480  0.2207 -0.2522
 3683W        W20157  12.568  11.958  12.030  0.1326  0.0566 -0.1223
 3684W        W20158  18.763   1.410  13.297  0.3327  0.0862  0.2957
 3685W        W20159  16.060  11.461   3.250 -0.2595 -0.2365 -0.0183
 3686W        W20160  16.804  14.273   0.364 -0.2940  0.0170 -0.3502
 3687W        W20161   1.602   0.568   2.740  0.0600 -0.2638 -0.0375
 3688W        W20162   0.327   9.965  10.686  0.1397  0.1331  0.1686
 3689W        W20163  12.450   6.348  12.497 -0.1172  0.0990 -0.0815
 3690W        W20164  14.507  10.875   3.709  0.0880 -0.1928 -0.0781
 3691W        W20165  15.334   0.582  14.161  0.3406 -0.1195 -0.4193
 3692W        W20166  19.303  11.742   1.760 -0.0142  0.1273  0.2418
 3693W        W20167   8.434   2.003   2.542 -0.3916  0.1526  0.3014
 3694W        W20168  17.202   5.600   4.464 -0.1693  0.0725  0.3431
 3695W        W20169  16.484  12.792   1.817  0.4220  0.1626 -0.2159
 3696W        W20170  13.855  18.991   4.588 -0.1011  0.0348  0.0242
 3697W        W20171   7.967   8.476   1.147  0.2670 -0.5049  0.1405
 3698W        W20172  16.769  14.722  14.741  0.2008 -0.2486 -0.2283
 3699W        W20173  15.451   7.461  13.678  0.0187  0.1464  0.2174
 3700W        W20174  15.514  12.389  14.202 -0.1405 -0.2511  0.1278
 3701W        W20175  14.618   3.353   1.247  0.0096  0.1380  0.2961
 3702W        W20176  15.575  19.039   1.922 -0.2661  0.3814 -0.0772
 3703W        W20177  11.731   2.435  10.883  0.2738 -0.0473 -0.2785
 3704W        W20178   0.316   9.514  10.492 -0.3033 -0.1803  0.0431
 3705W        W20179   3.972   1.759  11.119 -0.0001 -0.0601  0.0248
 3706W        W20180  13.324  14.727   2.101 -0.0161 -0.0633 -0.3500
 3707W        W20181  14.144  12.100   4.118  0.1141 -0.0545  0.1378
 3708W        W20182   0.892   4.871  11.579 -0.1000 -0.0157 -0.1086
 3709W        W20183  15.372   8.015  13.569  0.0311 -0.1072 -0.3640
 3710W        W20184  14.945  17.212   4.344 -0.0207 -0.1840 -0.0135
 3711W        W20185  12.976  12.212   1.298  0.1981  0.3266 -0.3688
 3712W        W20186  18.952   3.250  10.559  0.1819  0.1284 -0.4073
 3713W        W20187  14.243  18.773   1.254 -0.0692 -0.1182  0.0299
 3714W        W20188   7.764  10.899   2.928 -0.1526  0.0942 -0.0707
 3715W        W20189  17.795  13.398   3.579 -0.1363  0.1936  0.0455
 3716W        W20190   1.385   1.869   1.822  0.2745 -0.1015  0.1469
 3717W        W20191  13.057  18.903   1.760 -0.0920  0.0158  0.1672
 3718W        W20192  17.271   9.147   4.225 -0.4164 -0.3601  0.3732
 3719W        W20193   9.327   3.903   0.741  0.0274 -0.0709 -0.0486
 3720W        W20194  18.623  17.139   0.629  0.0091  0.0374  0.0735
 3721W        W20195   7.082  17.953  14.491  0.0433 -0.4328 -0.3502
 3722W        W20196   8.042   8.993   1.286  0.0884 -0.1143 -0.0791
 3723W        W20197   9.973  13.949   3.521 -0.2265  0.0753 -0.1346
 3724W        W20198   3.699  17.505  13.973  0.1016  0.1399 -0.1891
 3725W        W20199   3.662   9.441   0.468 -0.2216 -0.1724 -0.0154
 3726W        W20200   7.383  17.292   2.638 -0.0309 -0.0884  0.1656
 3727W        W20201  15.421   9.825   2.235  0.0170 -0.0599 -0.0477
 3728W        W20202   2.923   4.406   4.282 -0.2647 -0.1587 -0.1110
 3729W        W20203  11.914   8.076   1.441  0.0328 -0.2078 -0.1310
 3730W        W20204  11.024   2.622  11.978  0.3439 -0.0905  0.1930
 3731W        W20205  10.236   4.246   1.295  0.0078 -0.1030  0.1603
 3732W        W20206  11.347  14.978   3.351 -0.0277 -0.2598 -0.0768
 3733W        W20207  14.576   0.363  11.479 -0.0229 -0.0117  0.2260
 3734W        W20208   5.154  13.105  10.402 -0.1452 -0.0979 -0.1953
 3735W        W20209   5.934   0.427  11.638  0.1358 -0.1121  0.4510
 3736W        W20210   9.816   6.586  12.304 -0.0617  0.0761  0.0965
 3737W        W20211   7.857  10.751  12.959 -0.0938  0.0827 -0.2465
 3738W        W20212  17.729   0.527   3.366  0.2730  0.2275  0.0682
 3739W        W20213   0.879   6.860  11.312  0.3712  0.0194 -0.3336
 3740W        W20214   6.822  16.115   3.225 -0.1699 -0.1318 -0.0554
 3741W        W20215  19.177  15.540  14.278 -0.1630 -0.2105 -0.2248
 3742W        W20216   3.428   5.177  13.139  0.0081  0.0128  0.1529
 3743W        W20217   6.061   7.763  13.407  0.3571  0.1795  0.2062
 3744W        W20218  17.345  10.221  11.215  0.1024  0.0084 -0.0987
 3745W        W20219  18.050  10.945  11.922 -0.5045  0.0014  0.1526
 3746W        W20220   0.305   1.358   4.509 -0.3020  0.0653  0.0689
 3747W        W20221  11.390   6.637  13.727 -0.3548 -0.0601  0.1256
 3748W        W20222   8.289  12.988   4.499  0.0409 -0.1062  0.0222
 3749W        W20223  17.135   5.221   3.562 -0.0251 -0.0563  0.1013
 3750W        W20224  11.255   5.110  11.219 -0.0858 -0.0272  0.2473
 3751W        W20225  15.727  15.769  13.245 -0.0451 -0.2570  0.1982
 3752W        W20226  16.147   0.581   3.837  0.0567  0.0905 -0.0595
 3753W        W20227  18.400  16.108  14.248  0.1086 -0.1189 -0.2030
 3754W        W20228   5.823   2.845  14.567 -0.0772  0.1257 -0.0160
 3755W        W20229   4.908   7.218  14.706  0.1141 -0.1823  0.0508
 3756W        W20230   3.790   5.621  11.264  0.0432 -0.1045  0.1295
 3757W        W20231   0.768  18.785   4.801  0.1286 -0.1127 -0.0028
 3758W        W20232   5.159  11.015   4.264 -0.4823  0.0673  0.0720
 3759W        W20233  11.606  17.251   4.452  0.2119 -0.1456 -0.1962
 3760W        W20234  17.078  16.853   2.208  0.0855 -0.4458 -0.0582
 3761W        W20235  16.397  17.228  14.276 -0.1158 -0.0726  0.2366
 3762W        W20236   6.178  14.792  12.413  0.1597  0.0339 -0.0266
 3763W        W20237  16.722  17.585  13.058  0.0062 -0.0729 -0.1940
 3764W        W20238  17.629   2.120  11.498 -0.2844 -0.0349 -0.0414
 3765W        W20239  16.795   4.374  13.166  0.0609 -0.0211 -0.1944
 3766W        W20240   0.059  11.839   4.224  0.1860 -0.0425 -0.1893
 3767W        W20241  16.084   3.419   1.694  0.0124 -0.0649 -0.3634
 3768W        W20242  10.672   2.768  12.868 -0.3974 -0.1404  0.0962
 3769W        W20243   0.993   7.303  11.186  0.0477  0.2117  0.0930
 3770W        W20244   2.336  14.415  13.596 -0.4143  0.1466 -0.1572
 3771W        W20245  13.332   1.801   0.506  0.2916  0.1316 -0.1148
 3772W        W20246  14.209  14.589   5.618  0.2628 -0.0805  0.0546
 3773W        W20247   3.232  14.108   0.743 -0.3463  0.1873 -0.1071
 3774W        W20248   8.195   0.362   4.474 -0.1190  0.2931 -0.1464
 3775W        W20249  13.235  15.809  12.053  0.1563  0.1036 -0.0969
 3776W        W20250   5.987   8.618  13.977  0.2061 -0.1465 -0.1299
 3777W        W20251   3.791   2.604  14.852  0.2096  0.1071  0.5122
 3778W        W20252   9.800  14.917  10.633  0.1487  0.2356 -0.0010
 3779W        W20253   7.605   7.132  13.401 -0.4431 -0.1819 -0.2522
 3780W        W20254  14.472   8.245   1.435 -0.2586  0.0456  0.2278
 3781W        W20255  14.420  11.631   3.027  0.1544 -0.0280 -0.1407
 3782W        W20256   4.669   8.838   2.457  0.1716 -0.2314 -0.0561
 3783W        W20257  17.387  16.518   1.956 -0.1275 -0.2174  0.0015
 3784W        W20258   5.655   3.258   2.101  0.0272 -0.0943 -0.1631
 3785W        W20259   3.051   7.800  11.270 -0.0118 -0.1092  0.0552
 3786W        W20260  14.845  15.151   0.981 -0.0491 -0.1245  0.1858
 3787W        W20261   7.478  13.650  11.583 -0.1025 -0.1857  0.2563
 3788W        W20262   7.194  18.449  13.099 -0.0467 -0.0875  0.1675
 3789W        W20263  16.853  15.286  10.265  0.2470 -0.2008  0.3246
 3790W        W20264  18.870   4.520   3.954 -0.2165  0.4570  0.0284
 3791W        W20265  15.011  17.330   1.670 -0.0240 -0.3965  0.1422
 3792W        W20266  17.998  16.070  11.649  0.2251 -0.2927 -0.2847
 3793W        W20267  14.786   1.460   2.332  0.0102  0.0728 -0.1690
 3794W        W20268  12.948  15.797  11.211  0.0969  0.0269 -0.1451
 3795W        W20269  15.872   7.121   2.171  0.0867  0.6570 -0.5799
 3796W        W20270  16.589  11.862  10.788  0.1288 -0.1497 -0.0837
 3797W        W20271   3.568   1.971   2.441  0.1252 -0.0191  0.3355
 3798W        W20272  15.561  11.626   5.163  0.1359  0.0457 -0.4029
 3799W        W20273  16.131   5.151   2.175 -0.2262  0.1190  0.0431
 3800W        W20274  15.983  15.529   3.119 -0.1125  0.0509 -0.0323
 3801W        W20275  12.130  12.443   4.993 -0.2740  0.1860  0.1055
 3802W        W20276  16.273   4.072  13.548  0.0053  0.0098  0.1990
 3803W        W20277  11.718   2.187   1.205 -0.0911 -0.1337 -0.0102
 3804W        W20278   6.828  17.951   1.073 -0.0134  0.1854 -0.2020
 3805W        W20279   5.276   1.544   0.239 -0.0422 -0.0278  0.2435
 3806W        W20280   1.939   9.999   3.154  0.1776 -0.1170 -0.3089
 3807W        W20281   1.123   4.007   4.013  0.0264 -0.3077 -0.0279
 3808W        W20282  17.912   4.995   1.588 -0.0468  0.2545 -0.3256
 3809W        W20283  13.077  13.539   5.500 -0.0443  0.1202  0.1069
 3810W        W20284   9.386  10.709  12.068 -0.4981  0.1065 -0.0138
 3811W        W20285   6.292   6.435  14.712 -0.0028  0.1972 -0.3166
 3812W        W20286   1.787   5.567  12.939 -0.1321 -0.0441 -0.0825
 3813W        W20287   2.347  18.315   1.596  0.1212  0.0693  0.1047
 3814W        W20288  14.868   1.030  10.879  0.2223 -0.0713 -0.0116
 3815W        W20289  11.604   6.443  12.818 -0.3022 -0.1304  0.1087
 3816W        W20290   4.633  17.289  13.670 -0.0286  0.1305  0.2552
 3817W        W20291  14.123   5.785   4.914  0.3772 -0.0484  0.0514
 3818W        W20292  17.293  11.687   4.820 -0.0451 -0.0592 -0.2500
 3819W        W20293   5.349  11.953  14.270 -0.4374  0.0561 -0.0970
 3820W        W20294  10.871   8.936  14.052  0.0646 -0.2701  0.5042
 3821W        W20295  14.755   7.032  12.652 -0.1303  0.0862  0.0133
 3822W        W20296   3.066  11.562  11.655  0.2839  0.0546  0.0734
 3823W        W20297  15.351  14.790   2.181  0.1785 -0.1151  0.0135
 3824W        W20298  11.122   4.023   0.477  0.1993  0.1318 -0.2393
 3825W        W20299   3.185   9.837  10.265 -0.3982 -0.1621  0.0413
 3826W        W20300   9.093  17.212   3.849  0.3846  0.1630  0.0484
 3827W        W20301   2.601   3.468   0.121 -0.2746 -0.2227 -0.0202
 3828W        W20302   8.443  18.928  14.425 -0.0998 -0.0361  0.0580
 3829W        W20303  10.013   2.330   9.819 -0.3361 -0.1998  0.0292
 3830W        W20304   0.587   6.234   0.371 -0.0177 -0.0952 -0.0273
 3831W        W20305   8.746   2.188   4.966 -0.3499 -0.2590 -0.1137
 3832W        W20306   3.795  19.363   0.004  0.1704  0.0733  0.0560
 3833W        W20307  11.197  15.471   4.238  0.3257  0.0792 -0.0864
 3834W        W20308   2.102  15.165   0.361  0.0440  0.3137 -0.0610
 3835W        W20309  12.551  12.916   1.626  0.1230  0.2029 -0.2202
 3836W        W20310  12.726   3.541   3.370  0.2810  0.2140  0.0786
 3837W        W20311  13.511  17.389   5.135 -0.1789 -0.0837  0.3967
 3838W        W20312   7.682  13.674  10.904  0.0022 -0.0846 -0.1015
 3839W        W20313  16.456  11.978   3.815 -0.0280 -0.1097 -0.0327
 3840W        W20314   8.862   9.362  13.627  0.4942  0.1453  0.2358
 3841W        W20315  14.149  16.293   1.943  0.0011  0.1488 -0.3187
 3842W        W20316  16.390   2.925  13.015  0.1853  0.2741 -0.2555
 3843W        W20317   6.994   4.080   0.603  0.1643 -0.1497  0.2605
 3844W        W20318  15.574   0.626  11.405 -0.1043  0.0920  0.0911
 3845W        W20319   2.817   4.189  14.876 -0.0597  0.2447  0.1008
 3846W        W20320  13.549  15.947  11.032 -0.0704 -0.0988 -0.0906
 3847W        W20321   5.274   2.501  11.506 -0.2189  0.1451 -0.3621
 3848W        W20322   5.423  12.625   1.626 -0.0403 -0.1173  0.0314
 3849W        W20323   0.881  18.912  13.049  0.0689 -0.1572  0.0535
 3850W        W20324  16.472   0.100  11.411 -0.1302 -0.2241  0.0235
 3851W        W20325  13.353  18.297   2.333 -0.1333 -0.2455 -0.0358
 3852W        W20326  12.206   8.436  10.856 -0.0723 -0.1284  0.1859
 3853W        W20327  13.714   7.155   4.024 -0.0428  0.0332 -0.1436
 3854W        W20328   5.713   5.193   3.843  0.0619  0.3679  0.2664
 3855W        W20329  12.955  15.833   1.579 -0.2255 -0.0944  0.0757
 3856W        W20330   5.165   5.292  13.293  0.3467 -0.0447 -0.3110
 3857W        W20331   9.603   9.182  10.712 -0.1854 -0.1096  0.1961
 3858W        W20332   6.960  13.585   9.836 -0.4582  0.0006  0.0943
 3859W        W20333  15.353  10.044  14.554 -0.0224  0.1696 -0.0339
 3860W        W20334   3.950   2.195   3.628 -0.2838 -0.2290 -0.0063
 3861W        W20335   6.558   5.209   8.683  0.2156 -0.1310 -0.1496
 3862W        W20336  16.256   1.825   1.769 -0.2304  0.2541 -0.0751
 3863W        W20337   6.101  13.446   2.251 -0.1646 -0.0346 -0.2640
 3864W        W20338  13.661  16.207   1.278  0.3926  0.3667  0.1732
 3865W        W20339  12.991  11.356   1.461  0.0085 -0.1600 -0.1062
 3866W        W20340   3.669  18.060   0.657  0.0111  0.2596 -0.0670
 3867W        W20341   6.398  11.155  10.682 -0.0428 -0.0857  0.0861
 3868W        W20342  11.207  15.099   1.866  0.0634  0.0302  0.1545
 3869W        W20343  11.006   0.774   0.158  0.1259 -0.1498  0.3511
 3870W        W20344  16.699  18.980  12.614  0.3921  0.1749 -0.1841
 3871W        W20345  12.043  18.283   5.255  0.3325 -0.1896 -0.1012
 3872W        W20346   5.986  12.001   3.103 -0.0818  0.1681  0.2266
 3873W        W20347   2.495  18.292  13.572  0.0092  0.2658  0.1523
 3874W        W20348  18.307  16.149   4.428  0.2362 -0.1395 -0.2226
 3875W        W20349  11.768  18.542  13.542  0.0068  0.3177 -0.3089
 3876W        W20350   6.509   6.883   2.588  0.0421  0.0488  0.0546
 3877W        W20351  10.156   0.636  12.214  0.1533 -0.0707 -0.3059
 3878W        W20352   6.352  17.867   3.004 -0.0546 -0.1552 -0.0967
 3879W        W20353  14.565  14.404  12.721  0.2460 -0.2586 -0.0607
 3880W        W20354   3.315  15.212  11.049  0.0907 -0.0820  0.3695
 3881W        W20355   4.846  12.040   2.329 -0.3519 -0.1738  0.2244
 3882W        W20356  18.082  12.679   4.508 -0.2160 -0.0742 -0.3419
 3883W        W20357   3.166  12.379  11.337 -0.0485  0.1107  0.0749
 3884W        W20358  13.674   9.457  11.842  0.3091 -0.3749 -0.0299
 3885W        W20359  13.493   1.833   3.555 -0.1175 -0.2603  0.1078
 3886W        W20360   0.063   9.465  11.735  0.0677 -0.1438 -0.3546
 3887W        W20361   5.182   7.213   3.117 -0.1197  0.1315  0.1231
 3888W        W20362   8.021  11.549   1.110 -0.1996 -0.0103 -0.0539
 3889W        W20363  18.011  15.245  14.657  0.3369  0.0243 -0.1846
 3890W        W20364   6.510   8.859  13.019 -0.2575 -0.0198  0.1238
 3891W        W20365  15.845  11.450   1.852  0.1802 -0.3369 -0.3201
 3892W        W20366   4.921   2.062   2.494  0.0570 -0.0147 -0.1308
 3893W        W20367  10.809   4.170  10.395 -0.4032 -0.0041 -0.2422
 3894W        W20368  13.046   5.772   0.871 -0.0241  0.3724  0.1387
 3895W        W20369   4.818   9.326  14.637  0.2516  0.1943  0.2289
 3896W        W20370   1.348   3.269  12.752  0.0827 -0.1890  0.0275
 3897W        W20371   3.609   0.482  11.197 -0.0956  0.1481  0.2994
 3898W        W20372  18.406   3.050  14.525  0.0744 -0.4286  0.0071
 3899W        W20373  15.928   4.499  14.015  0.1278  0.0869  0.1445
 3900W        W20374   7.927  11.607   2.867  0.0665 -0.0978  0.1766
 3901W        W20375  16.066   7.196  11.227 -0.0537  0.0286 -0.3895
 3902W        W20376   5.563  18.863   1.781  0.0055  0.3112 -0.1963
 3903W        W20377  17.437   6.054  14.324 -0.0358 -0.0424 -0.0989
 3904W        W20378  11.606  16.945  12.147 -0.1150  0.1179  0.0473
 3905W        W20379  17.461  10.863   5.124 -0.0668 -0.1903 -0.1292
 3906W        W20380   7.294   4.425   0.312  0.0013  0.2359 -0.1166
 3907W        W20381  15.116  13.342  13.122  0.0970  0.2145  0.4018
 3908W        W20382   1.064  15.140  14.109  0.1068  0.1375 -0.2694
 3909W        W20383  16.455   6.086   4.577  0.1714 -0.2204  0.3851
 3910W        W20384  12.991  10.108   4.187  0.2066  0.1120 -0.1383
 3911W        W20385   9.359   9.588   5.029 -0.1553 -0.2202 -0.4543
 3912W        W20386   6.672   4.738  12.885  0.2698  0.0538 -0.0045
 3913W        W20387  13.758  13.005  13.332  0.0990  0.0710 -0.0088
 3914W        W20388   2.800  11.881  12.399 -0.0815 -0.1841  0.0015
 3915W        W20389  15.919  11.703   0.324  0.0898  0.4541 -0.0855
 3916W        W20390  18.022  14.580  10.229 -0.0874  0.1334 -0.0283
 3917W        W20391   0.572  15.340  10.609  0.2331 -0.2081 -0.2048
 3918W        W20392   9.118  14.490   0.113  0.0089  0.0174  0.0433
 3919W        W20393   0.920  14.012   0.187  0.0028 -0.0575  0.1778
 3920W        W20394   3.081   2.887   4.313 -0.1277  0.3012  0.0930
 3921W        W20395   6.832  16.671  13.718 -0.1593  0.0689  0.1151
 3922W        W20396   7.885  15.518   4.063  0.0063 -0.1052  0.1076
 3923W        W20397   0.740   0.414   4.599 -0.0093 -0.1175 -0.0627
 3924W        W20398  11.231   2.697  10.649 -0.0237  0.0232 -0.2164
 3925W        W20399  17.768  18.501   2.348  0.0372 -0.0679  0.0953
 3926W        W20400   1.726   4.628  10.500 -0.0284  0.1387  0.2163
 3927W        W20401   8.534   6.945   2.943  0.1965  0.0164 -0.1181
 3928W        W20402  19.105   4.701   2.275  0.1086  0.1571  0.1406
 3929W        W20403   3.477  16.585   0.724 -0.0898 -0.0912 -0.2164
 3930W        W20404  11.342   3.586   1.244  0.2559  0.0952  0.1137
 3931W        W20405   9.134  17.343   9.970 -0.0386 -0.1489  0.2069
 3932W        W20406  14.237   1.329   2.413  0.2428  0.0218  0.2501
 3933W        W20407  16.030   4.095   0.889 -0.2464  0.0323  0.0483
 3934W        W20408   6.410  10.287   0.728 -0.2914 -0.1396  0.0277
 3935W        W20409  11.445   4.454   4.771 -0.2573 -0.1288 -0.1563
 3936W        W20410  13.747   6.599   5.516 -0.2949  0.0204 -0.0723
 3937W        W20411  15.459   3.535   1.251 -0.0318  0.0444  0.3345
 3938W        W20412  11.972  11.007  10.291  0.0283 -0.0738  0.2418
 3939W        W20413   9.864   9.418   1.967 -0.1569 -0.0778 -0.0695
 3940W        W20414   1.706  17.617   4.960  0.1294  0.0972 -0.1905
 3941W        W20415  12.888  18.192   2.610 -0.0748  0.1622 -0.0481
 3942W        W20416  15.492   9.704  12.303 -0.4071  0.3195 -0.1369
 3943W        W20417  18.215  13.740  13.298 -0.2154 -0.0916 -0.4735
 3944W        W20418   3.291  19.218  10.578 -0.5125  0.2589 -0.0916
 3945W        W20419  16.286   9.934   3.496  0.1629 -0.2087  0.1147
 3946W        W20420   5.904  14.562   4.466  0.1513  0.3339 -0.1512
 3947W        W20421   3.219   8.691  12.119 -0.1891 -0.0207  0.1733
 3948W        W20422   2.869   8.694   1.864  0.0101  0.1616 -0.2425
 3949W        W20423   8.162   9.956  10.020  0.3763 -0.3152 -0.2049
 3950W        W20424   1.466   3.610  11.403  0.1468 -0.2493  0.0021
 3951W        W20425   5.279   1.132  10.070  0.1814 -0.3166 -0.0405
 3952W        W20426   9.533   3.936   2.823 -0.1328  0.1503 -0.3757
 3953W        W20427   3.486   1.654   4.761 -0.0476 -0.1729 -0.2436
 3954W        W20428  13.809  18.264   3.186  0.4060  0.0101  0.0160
 3955W        W20429  19.147   1.329  10.027  0.0985  0.4396  0.0384
 3956W        W20430   1.593   3.364  12.293 -0.2275  0.0855  0.4608
 3957W        W20431  12.483   9.710  10.820  0.0740  0.0987  0.1200
 3958W        W20432   6.343   1.691  11.476 -0.5453  0.2958 -0.1527
 3959W        W20433  17.843  16.226   4.611 -0.3853  0.2297  0.3746
 3960W        W20434   3.775   7.529  10.931 -0.0860  0.2465 -0.0129
 3961W        W20435  16.323   9.119  11.020 -0.1883  0.1126  0.0130
 3962W        W20436   4.158   2.244   4.746 -0.0025 -0.0625  0.1927
 3963W        W20437   3.304  14.790   4.355  0.0461  0.0527  0.0551
 3964W        W20438  13.437   2.008   1.179  0.3169  0.0673  0.1867
 3965W        W20439  13.514  16.516   0.208  0.0775 -0.3301 -0.1265
 3966W        W20440  11.433  10.719   1.488 -0.3405 -0.1307 -0.0252
 3967W        W20441  13.141  19.317  10.490 -0.1878  0.1206  0.0561
 3968W        W20442   0.348  17.842   0.907 -0.1861 -0.2439  0.0641
 3969W        W20443  10.458   8.488  11.660 -0.1641  0.2240 -0.0951
 3970W        W20444   1.547  18.169  11.088  0.1651 -0.0677  0.2109
 3971W        W20445  16.523   1.590   3.140 -0.0240  0.1011  0.0603
 3972W        W20446  13.109  17.582  11.758  0.1913  0.1900 -0.0419
 3973W        W20447  17.088   1.293  13.844  0.1191  0.0856  0.0941
 3974W        W20448   3.420   9.027   0.272  0.6079  0.0376  0.0973
 3975W        W20449   0.298  17.078   1.178  0.5346 -0.1927  0.2568
 3976W        W20450   6.489   5.995  11.514  0.1873 -0.1742  0.1238
 3977W        W20451   3.216   7.586  14.429 -0.3031 -0.0570 -0.1812
 3978W        W20452  15.007  14.012  12.994 -0.0698  0.3179 -0.1580
 3979W        W20453   5.480   7.368   3.950 -0.1878  0.1904  0.3688
 3980W        W20454   9.785  18.593  13.137 -0.3657 -0.0205 -0.0721
 3981W        W20455  13.063   9.639   4.394 -0.1706  0.0106 -0.1723
 3982W        W20456   0.427  13.234  14.238 -0.3271 -0.0890  0.4011
 3983W        W20457   0.243   4.558   5.439 -0.1856 -0.1436  0.1678
 3984W        W20458  18.450   6.118   3.688 -0.0688 -0.2363 -0.1380
 3985W        W20459  10.230  18.827   1.247  0.3794  0.0599  0.2195
 3986W        W20460   7.295  11.474   9.836  0.2175  0.0161  0.0423
 3987W        W20461  10.821   3.327   0.695 -0.0151 -0.0173  0.2042
 3988W        W20462   8.413  15.681   2.852 -0.0699 -0.5314  0.0629
 3989W        W20463   3.177  16.991   1.151  0.0820  0.2956 -0.4173
 3990W        W20464   1.718  14.827   4.879  0.2662 -0.1606  0.0156
 3991W        W20465  12.113  15.477   0.493 -0.0556  0.1175 -0.1538
 3992W        W20466   7.334  19.368   1.131 -0.2122 -0.0207  0.1495
 3993W        W20467   4.803  15.835   3.577 -0.1291  0.0105 -0.0682
 3994W        W20468  10.295   2.921  13.682 -0.3239  0.0451 -0.1570
 3995W        W20469  12.368  16.257   4.749  0.2148  0.1574  0.0381
 3996W        W20470   8.431   2.893   3.943 -0.2815 -0.1892 -0.0567
 3997W        W20471  17.758   6.560  11.895 -0.2997 -0.0445  0.2695
 3998W        W20472   1.017   4.691   0.931 -0.0472 -0.1863 -0.0714
 3999W        W20473  15.034   2.168   9.866 -0.0091 -0.0469 -0.2926
 4000W        W20474   2.457  11.622  13.015 -0.0046 -0.0009 -0.0483
 4001W        W20475   1.931   1.634   4.205  0.1482 -0.3253  0.1643
 4002W        W20476   6.191  16.063   1.045  0.0428  0.1701  0.4575
 4003W        W20477  15.927  16.050  11.848 -0.0402 -0.2749  0.4617
 4004W        W20478   7.711   6.726  13.868 -0.1660  0.1588 -0.1102
 4005W        W20479  18.722  11.328   4.561 -0.0030 -0.2283 -0.0720
 4006W        W20480  14.540  11.888  11.224  0.0042  0.1506 -0.1591
 4007W        W20481  13.476  13.928   3.680  0.2364 -0.0022  0.0059
 4008W        W20482   8.585   7.361  12.440  0.0055 -0.0034  0.0497
 4009W        W20483   2.224  16.717   5.381  0.2190  0.3131  0.3235
 4010W        W20484  12.182  19.313   3.468 -0.2873  0.1943  0.0263
 4011W        W20485  11.548  12.676   4.048 -0.0017 -0.1254  0.2854
 4012W        W20486  18.529   5.315   3.072  0.2766 -0.2942 -0.4551
 4013W        W20487   4.614  14.983  13.886 -0.4305  0.1154  0.3311
 4014W        W20488  10.517  14.196   4.200 -0.0131  0.2858  0.0322
 4015W        W20489   8.449   3.263   9.839 -0.2816 -0.1385 -0.0289
 4016W        W20490  18.532  18.002   0.242  0.0103 -0.1687 -0.1889
 4017W        W20491   3.490  19.053   0.950 -0.3120 -0.0786  0.1821
 4018W        W20492   2.255   4.817   5.082 -0.0556 -0.0042 -0.0228
 4019W        W20493  15.361  19.350  13.195  0.0514 -0.0657  0.2723
 4020W        W20494  15.135  10.707  10.599 -0.0883 -0.0015  0.0069
 4021W        W20495  18.227  18.078  10.384 -0.0405  0.0051  0.2749
 4022W        W20496   0.669   2.991  14.600 -0.4004  0.3193 -0.3175
 4023W        W20497   7.189  17.300  10.827  0.2016 -0.2399  0.0132
 4024W        W20498  10.102   3.953  10.987 -0.3982 -0.0166 -0.4457
 4025W        W20499   8.896  19.261   9.809  0.2870 -0.0254  0.0062
 4026W        W20500  12.436  11.064   1.389 -0.2989  0.0654  0.4583
 4027W        W20501   1.018   9.975   4.412 -0.1902  0.0661  0.0702
 4028W        W20502   5.493   1.418  14.640 -0.0582  0.1628 -0.3157
 4029W        W20503  13.222  14.689   5.344 -0.0679  0.6483 -0.1350
 4030W        W20504   2.205   1.128  12.183 -0.1241  0.0862 -0.1610
 4031W        W20505  13.933   6.218   3.398 -0.0405 -0.4020  0.1295
 4032W        W20506   2.488  18.005  14.019  0.1191 -0.4192 -0.1610
 4033W        W20507   7.761  14.131  11.187  0.0584 -0.1353 -0.0756
 4034W        W20508  17.702   2.882   0.043 -0.2324 -0.1512 -0.2405
 4035W        W20509  19.048  13.052   1.548  0.0016  0.0215  0.0209
 4036W        W20510  15.982   2.098   2.549 -0.0482 -0.0323  0.0372
 4037W        W20511  12.980   6.617   1.169 -0.5787  0.3071  0.0579
 4038W        W20512   9.157  18.942  11.893 -0.1433  0.0686 -0.4483
 4039W        W20513   6.041  10.662  14.264  0.1060 -0.2144  0.2788
 4040W        W20514  17.222   6.878  13.259  0.0047 -0.0109  0.1802
 4041W        W20515   7.481   9.081   0.999 -0.0883 -0.0231 -0.1673
 4042W        W20516  17.161  15.733   4.206 -0.0103 -0.2880 -0.4170
 4043W        W20517   7.080   6.961  13.289  0.2427  0.2289  0.1446
 4044W        W20518   1.281  14.883   0.311 -0.0097  0.1026  0.1028
 4045W        W20519  13.484  17.474   0.892  0.0921  0.0397  0.1570
 4046W        W20520  18.103  11.285   5.627  0.4341 -0.1277 -0.3644
 4047W        W20521   1.953  11.241  14.299 -0.1155  0.1087 -0.0830
 4048W        W20522   6.257  16.406  12.703 -0.0801 -0.3611  0.1385
 4049W        W20523   0.444  12.672  10.780  0.2237  0.0661 -0.1349
 4050W        W20524   3.044   5.912   2.483  0.2383 -0.0135 -0.1033
 4051W        W20525  16.468   0.504  12.262  0.0838 -0.2630  0.3637
 4052W        W20526  11.932   7.324   1.179 -0.1613  0.0305 -0.0036
 4053W        W20527  14.193  18.923   0.149 -0.2211 -0.1499 -0.0292
 4054W        W20528  16.486   1.822  10.408 -0.0937 -0.4397  0.3066
 4055W        W20529   1.670   2.045   4.500  0.2298 -0.3786  0.1187
 4056W        W20530   0.620   7.241  11.560  0.1014 -0.1369  0.0718
 4057W        W20531  15.485   5.070   2.215 -0.2176 -0.0993  0.3096
 4058W        W20532   5.420   6.342  10.291 -0.3870  0.2113  0.0219
 4059W        W20533  16.942  17.224  14.164 -0.0856 -0.2503  0.0652
 4060W        W20534  13.002  15.542  11.686 -0.1455  0.1171 -0.2169
 4061W        W20535  12.097  17.810   1.172 -0.0016  0.0644 -0.1197
 4062W        W20536  19.192  11.919  13.657  0.0339  0.0661  0.1477
 4063W        W20537  12.512   3.379   1.941  0.0373  0.1204  0.0491
 4064W        W20538  11.512   8.354   1.642  0.1740  0.3074  0.2488
 4065W        W20539   5.596   8.291   0.069  0.1698 -0.0471  0.1329
 4066W        W20540  13.747   4.791   3.162  0.3706 -0.3088  0.0099
 4067W        W20541   3.214   2.392  13.922 -0.2931 -0.3364  0.1293
 4068W        W20542   7.722   1.915  13.792  0.1989  0.1252  0.0057
 4069W        W20543   1.484  11.007  12.791  0.1476  0.2234 -0.0232
 4070W        W20544   5.291   4.769  10.648 -0.1491  0.2570 -0.1013
 4071W        W20545  16.400   4.769   2.431  0.0355 -0.2015 -0.2055
 4072W        W20546   5.292  18.052   0.039  0.4137 -0.1492 -0.0058
 4073W        W20547   3.860   5.050   0.471  0.1030 -0.1465 -0.0786
 4074W        W20548  14.132  11.088  11.349  0.1128  0.0762  0.2277
 4075W        W20549   7.709   9.874   1.289  0.0340 -0.0182  0.1313
 4076W        W20550  11.900  10.367   1.168  0.1268  0.1690 -0.2126
 4077W        W20551  16.807   4.476   2.455  0.1363 -0.1450 -0.3169
 4078W        W20552  13.210   3.383   3.570  0.1501  0.0568  0.2101
 4079W        W20553   3.354   6.419  12.820 -0.0095  0.1845  0.0278
 4080W        W20554  18.564   3.320   0.869 -0.1531  0.0304  0.1273
 4081W        W20555   4.316  10.184   0.949 -0.0290  0.0874 -0.1877
 4082W        W20556   4.508   1.355  11.793  0.0619 -0.0140  0.0271
 4083W        W20557   5.742   1.064   1.636 -0.0159 -0.1291 -0.0650
 4084W        W20558   2.038  18.893   4.436 -0.3015 -0.0668  0.0603
 4085W        W20559  15.307   1.906  12.822  0.0852 -0.0519 -0.1750
 4086W        W20560  19.309  16.986  12.282 -0.0965  0.0353 -0.1128
 4087W        W20561   8.936  10.840   4.412 -0.3095  0.0906  0.1693
 4088W        W20562   1.050  18.088   2.636 -0.1534  0.0466  0.1455
 4089W        W20563  11.965  16.536   4.514 -0.1507  0.1786 -0.0495
 4090W        W20564  10.815  17.626  10.251  0.3862  0.2347  0.1174
 4091W        W20565   5.423   4.487   1.231  0.1057  0.1211 -0.0968
 4092W        W20566  14.683   4.749  10.495 -0.2783  0.0071 -0.1355
 4093W        W20567   7.125   8.527  10.386  0.1834 -0.0860  0.2030
 4094W        W20568   5.584   6.092   1.629 -0.1755  0.4003 -0.0520
 4095W        W20569  19.100   6.210  12.758 -0.1133 -0.2222  0.0971
 4096W        W20570   6.888   7.396  13.192  0.0183  0.0656  0.1377
 4097W        W20571  10.036   4.954   0.578  0.1041 -0.2933  0.0660
 4098W        W20572   8.534  15.220   1.525 -0.3216 -0.3714 -0.0189
 4099W        W20573  17.814  12.500   2.213 -0.0360 -0.2451  0.2501
 4100W        W20574   3.759  12.992  13.437 -0.0266 -0.2148 -0.0734
 4101W        W20575  11.148   6.191   3.814 -0.0735  0.0551 -0.1508
 4102W        W20576   0.759   9.937  11.593  0.2007  0.2492 -0.0035
 4103W        W20577   0.563  14.026  11.899 -0.0982  0.0649  0.1760
 4104W        W20578   2.425   8.408  10.914  0.0341 -0.1248 -0.3162
 4105W        W20579   7.526   5.519   3.529 -0.1824  0.0857 -0.0372
 4106W        W20580   5.404  10.396  11.573 -0.3298 -0.0010  0.2849
 4107W        W20581  17.258  12.656  13.680 -0.1000 -0.4282 -0.0930
 4108W        W20582  19.047  18.353   3.214 -0.1703 -0.1373 -0.0279
 4109W        W20583  10.687  15.501  14.443 -0.1128  0.0240 -0.2793
 4110W        W20584  17.034  14.081  10.912 -0.0573 -0.1626 -0.2826
 4111W        W20585  10.060  11.402   9.640 -0.1026  0.0877  0.2453
 4112W        W20586   5.461  17.289   3.204 -0.2707 -0.2304  0.0902
 4113W        W20587   8.461  18.686  12.584  0.2072  0.1993  0.1003
 4114W        W20588  12.329   8.258  12.700  0.4137  0.0741  0.0775
 4115W        W20589   7.120  17.128   1.495  0.2528 -0.1015 -0.2240
 4116W        W20590  18.710   5.619   9.461 -0.1413 -0.0200 -0.1268
 4117W        W20591  18.418   6.273   4.185 -0.2736 -0.1765  0.0472
 4118W        W20592   6.034  18.035   0.394  0.0676  0.1774  0.1887
 4119W        W20593   4.797   9.772   3.841  0.0841  0.1133 -0.1685
 4120W        W20594   1.181  18.641   1.721 -0.0726  0.1679 -0.3299
 4121W        W20595  16.278  11.635   5.157  0.0264 -0.1223 -0.4161
 4122W        W20596   7.916   9.901  14.705  0.1247 -0.0734 -0.1928
 4123W        W20597  17.782   1.808   4.404  0.0807  0.1906  0.1314
 4124W        W20598   3.108   1.959   1.653 -0.0610  0.0621  0.0916
 4125W        W20599   5.558   6.989   2.669  0.0365  0.1712 -0.0408
 4126W        W20600  12.117   3.094   0.120 -0.2348  0.3306  0.1160
 4127W        W20601  19.365   9.281  13.431 -0.1373 -0.0014 -0.1375
 4128W        W20602   5.040  15.287  11.053  0.1596 -0.0599  0.2858
 4129W        W20603  10.855  11.299  10.720  0.0546 -0.1169  0.0529
 4130W        W20604   1.193   1.461  12.603  0.3328 -0.0059  0.1042
 4131W        W20605   2.155  19.154  12.549 -0.0385  0.1262  0.2447
 4132W        W20606   6.411  12.822   5.108  0.0105  0.1427 -0.1277
 4133W        W20607   1.348  10.687  11.275 -0.1356  0.1347 -0.0729
 4134W        W20608   9.565  11.029  11.593 -0.0120 -0.1873  0.0203
 4135W        W20609   0.162  16.318  10.528 -0.5018  0.1043 -0.0934
 4136W        W20610  16.884   3.146   2.163  0.1019  0.0342 -0.0811
 4137W        W20611   6.183   8.251   4.396 -0.0147  0.2835  0.1062
 4138W        W20612   8.597   0.167  12.608 -0.1322  0.0672  0.2668
 4139W        W20613   8.871  10.783  13.913 -0.1571  0.0624 -0.0864
 4140W        W20614  12.538  12.556   3.681  0.1756 -0.1109 -0.1978
 4141W        W20615  13.422  12.535  14.515  0.1994 -0.1573 -0.3041
 4142W        W20616   1.896   2.187  10.870 -0.0325 -0.0494 -0.1140
 4143W        W20617   1.207  11.444  14.316 -0.0594  0.0580 -0.0581
 4144W        W20618  16.905   5.135  13.538 -0.0268 -0.3312  0.2717
 4145W        W20619   6.272   4.350  12.713  0.0153 -0.2716 -0.1777
 4146W        W20620   9.444  11.443  11.933 -0.1031  0.5033 -0.3137
 4147W        W20621   3.245   0.686  10.827  0.2926  0.1817  0.5032
 4148W        W20622   3.467   5.643   2.448 -0.1658 -0.0087 -0.1229
 4149W        W20623   7.767  11.678   0.640  0.2196 -0.0922 -0.0252
 4150W        W20624  10.132   3.464  11.748 -0.1864 -0.0898 -0.0397
 4151W        W20625  15.261  11.036   2.858 -0.0758  0.2818  0.1006
 4152W        W20626   4.085  15.699   5.049 -0.0315  0.1957  0.2025
 4153W        W20627  18.431  16.568  10.583 -0.1757  0.0016  0.0448
 4154W        W20628   0.921   3.738   3.614  0.1970  0.0281  0.2426
 4155W        W20629  16.103  10.921   0.869  0.0862 -0.2003 -0.2827
 4156W        W20630  16.819   4.709  11.350 -0.1871 -0.0457  0.0856
 4157W        W20631   2.215   6.080   0.861 -0.2415  0.0751 -0.3462
 4158W        W20632  12.058   6.053  13.431  0.6102  0.1266  0.1539
 4159W        W20633   1.125  17.096   4.461 -0.0870 -0.1006  0.0439
 4160W        W20634  13.933  16.204  12.342 -0.3206  0.3293 -0.1206
 4161W        W20635  18.281   6.842  13.234  0.2474 -0.2050  0.0838
 4162W        W20636  12.033   4.822   1.613  0.1226 -0.3007  0.3251
 4163W        W20637  17.457  15.268  13.754 -0.2724 -0.2416 -0.1698
 4164W        W20638   9.321  14.389  12.475  0.1909 -0.4942  0.3773
 4165W        W20639  11.099  18.723  12.794  0.2010 -0.2444 -0.2074
 4166W        W20640   3.549   0.335  12.598 -0.0443 -0.0820  0.0550
 4167W        W20641  12.735  11.205   1.881 -0.0088  0.3399  0.2322
 4168W        W20642  11.579  10.088   3.523  0.0234  0.1429 -0.1483
 4169W        W20643   1.875   6.198  10.792  0.0560 -0.0142  0.1702
 4170W        W20644  13.739  14.230   9.669 -0.0971  0.0773 -0.1020
 4171W        W20645   5.235  16.370   4.190 -0.0777  0.1305 -0.1814
 4172W        W20646   0.102  15.835  12.725 -0.2121  0.1778  0.2949
 4173W        W20647  17.006   0.740   4.789  0.0474  0.4556  0.0764
 4174W        W20648  13.870  18.497   3.646  0.2899  0.1121 -0.2214
 4175W        W20649   6.964   1.563   1.237 -0.0305  0.0549  0.3622
 4176W        W20650  18.782   1.355   3.477 -0.1681 -0.0873  0.0308
 4177W        W20651   4.968   4.024  11.208  0.1019  0.4022 -0.1263
 4178W        W20652   4.839  12.639   4.243  0.1165  0.0456 -0.0990
 4179W        W20653  16.906  18.652   5.673  0.1484 -0.1403 -0.0574
 4180W        W20654  17.595   4.072   0.645 -0.1123  0.0167  0.0196
 4181W        W20655  19.189   3.403   3.417 -0.1762  0.0227 -0.0413
 4182W        W20656   4.826  14.225   4.931  0.2635 -0.0868 -0.1972
 4183W        W20657  14.596  19.351  11.034 -0.0266  0.1423  0.2843
 4184W        W20658  17.322   0.645  10.702  0.1528 -0.2292 -0.2068
 4185W        W20659   9.801   1.928   0.849  0.2330  0.2301  0.2574
 4186W        W20660  13.411   1.602  11.534 -0.0261 -0.1090  0.3722
 4187W        W20661   1.396   4.883  13.399  0.2082  0.2180  0.1812
 4188W        W20662  11.935  16.453   3.263 -0.1422 -0.1741  0.1861
 4189W        W20663  13.409   9.162   4.754 -0.0109  0.1806 -0.0860
 4190W        W20664  13.531   7.656  12.243  0.4033  0.1782  0.0320
 4191W        W20665   2.070  11.827   4.269 -0.1000  0.0769 -0.0412
 4192W        W20666   3.874  13.631  10.971 -0.1172  0.1887  0.3414
 4193W        W20667   2.692  18.060  14.825 -0.3643 -0.0575 -0.2452
 4194W        W20668   2.390  12.413   5.176  0.3662  0.0590 -0.2829
 4195W        W20669  10.815   5.464  11.890  0.0016  0.2393 -0.0309
 4196W        W20670   2.470   5.863  12.400  0.1145 -0.0434  0.1826
 4197W        W20671  15.765   5.479   2.611  0.1599 -0.0796  0.0712
 4198W        W20672   6.272  10.769   0.595 -0.3183 -0.0286  0.2110
 4199W        W20673   0.664  12.059  11.696 -0.1612 -0.1882 -0.0119
 4200W        W20674   4.136  16.785   5.010 -0.1959  0.4150 -0.0096
 4201W        W20675   5.515  11.416   0.084 -0.2022 -0.0112 -0.0393
 4202W        W20676  12.187  11.344  14.470  0.1483  0.0038 -0.0905
 4203W        W20677   8.799   0.345  11.652 -0.2321  0.0318 -0.0589
 4204W        W20678  16.493  13.930   1.302  0.0838 -0.2832  0.0914
 4205W        W20679   2.244  16.065   1.509 -0.1534 -0.1419  0.3030
 4206W        W20680  14.477   7.251   4.828 -0.3606  0.3352  0.2768
 4207W        W20681  16.862   9.604   1.085 -0.1399  0.2957  0.1380
 4208W        W20682   9.467  17.850   2.600  0.0387 -0.0913  0.0259
 4209W        W20683  17.494   6.818   0.347 -0.3531  0.4323 -0.2009
 4210W        W20684   6.576  12.735  10.806 -0.0123  0.3848  0.2567
 4211W        W20685   9.938   4.185   2.827 -0.0426  0.3432 -0.0450
 4212W        W20686  12.716  13.684   9.911 -0.1482  0.0374 -0.0225
 4213W        W20687   1.284  16.559   0.734 -0.1869  0.3217  0.2953
 4214W        W20688   6.991  11.222   3.725  0.1332 -0.1387 -0.0871
 4215W        W20689  16.508  15.258   3.865  0.0150  0.0287 -0.1438
 4216W        W20690   2.066   4.463  11.310  0.0290 -0.2956 -0.1477
 4217W        W20691  18.435   2.579   1.636 -0.0205  0.3963 -0.0385
 4218W        W20692  16.668  17.363  13.591 -0.0272  0.0123  0.3485
 4219W        W20693   7.534  15.126  14.370  0.0107  0.0001  0.0348
 4220W        W20694   1.733  19.076  12.978 -0.1842  0.4152  0.2002
 4221W        W20695   8.671  12.892   1.372  0.0451  0.2673 -0.0078
 4222W        W20696  11.292  15.621   0.594  0.1490 -0.2048 -0.0521
 4223W        W20697   4.611   2.290  13.751 -0.0237 -0.1461 -0.4796
 4224W        W20698  10.174   1.686   9.777  0.0199 -0.1556  0.3211
 4225W        W20699   8.750  15.038  14.759 -0.3722 -0.0336 -0.1245
 4226W        W20700   8.221  14.067  12.091  0.1446 -0.3048 -0.0089
 4227W        W20701   0.292   2.534   1.018  0.0029  0.1582  0.1572
 4228W        W20702   3.504   1.681   1.469  0.1778  0.2855  0.2999
 4229W        W20703   4.429   0.313   0.707 -0.0731  0.0264  0.1255
 4230W        W20704   1.097  12.888  12.810 -0.4275  0.2247 -0.0267
 4231W        W20705   6.173  11.045   3.167  0.0307  0.2221  0.1339
 4232W        W20706  18.579   7.475   3.535 -0.1441  0.0483  0.0522
 4233W        W20707   7.113   0.815   2.108 -0.1472 -0.1573 -0.1206
 4234W        W20708  19.330   1.689   1.315 -0.0034  0.1031  0.3102
 4235W        W20709   3.446   1.977   3.245 -0.0703 -0.0142  0.2746
 4236W        W20710  16.406   9.883  14.518  0.1178 -0.5355 -0.0648
 4237W        W20711   6.942   3.476   2.555 -0.0419  0.0319  0.0080
 4238W        W20712  13.852  18.932  13.725  0.0337  0.0392 -0.0511
 4239W        W20713  14.081  11.575   5.034  0.5093  0.1532  0.3275
 4240W        W20714  15.660  13.535  12.247  0.0566  0.1886  0.0743
 4241W        W20715  13.457  18.608   3.325 -0.1398  0.0629  0.0675
 4242W        W20716   2.336  10.274  11.876  0.1374  0.2116  0.1820
 4243W        W20717  12.624   2.801   0.090  0.1871  0.1378 -0.3901
 4244W        W20718   7.578  18.836   2.558 -0.3263 -0.2601  0.3108
 4245W        W20719  14.038   7.021   1.785  0.2799 -0.1012 -0.1002
 4246W        W20720  15.122  10.010  10.079 -0.0656  0.0693  0.0466
 4247W        W20721  16.446  15.560   0.987  0.0425  0.0737 -0.1824
 4248W        W20722   8.658   9.112  11.658  0.0540  0.0945  0.3389
 4249W        W20723  13.942   2.346   2.831 -0.2461  0.2402 -0.0150
 4250W        W20724   1.778   6.292   4.399 -0.2325  0.2927  0.1832
 4251W        W20725  15.222  11.538  10.226  0.2124 -0.0578 -0.1661
 4252W        W20726   9.565   9.873   4.430  0.1480  0.0274 -0.2150
 4253W        W20727  18.557  14.469   0.023 -0.2560 -0.0144  0.0000
 4254W        W20728  11.986  17.081   4.139 -0.2565  0.0985  0.1548
 4255W        W20729  10.023   0.274  12.585  0.1324 -0.2845  0.2127
 4256W        W20730   4.671   2.195   4.560 -0.0326 -0.3295  0.1615
 4257W        W20731   9.070   7.846  13.340 -0.0182  0.1850  0.0431
 4258W        W20732   6.444  16.520  13.985 -0.2291  0.4120  0.0340
 4259W        W20733   6.731   1.114  10.686 -0.0051 -0.1077  0.1304
 4260W        W20734   0.541   5.736  10.699 -0.0634 -0.1451  0.0232
 4261W        W20735  17.033   6.824   0.580  0.0831  0.4149  0.1629
 4262W        W20736   7.324   2.260  13.779  0.2829 -0.1634 -0.2616
 4263W        W20737  14.425  13.297   4.129  0.1972  0.3882  0.0552
 4264W        W20738   2.248   8.526   4.262  0.1232  0.1542  0.0837
 4265W        W20739  13.385   6.791   9.443 -0.0897 -0.2653  0.0026
 4266W        W20740   7.990  15.062   1.518 -0.0859 -0.0420  0.0714
 4267W        W20741  10.604  12.673  14.644 -0.2419  0.0403  0.0712
 4268W        W20742  11.257  15.374  14.515 -0.0146  0.3278 -0.1151
 4269W        W20743   0.601  14.763  13.475 -0.1309  0.4474  0.4197
 4270W        W20744   3.721   3.241   2.761  0.2819  0.2957  0.0895
 4271W        W20745   5.753   1.535  13.605  0.0490 -0.0861 -0.0950
 4272W        W20746   3.134   9.633   2.978  0.0247 -0.2381 -0.1776
 4273W        W20747   6.802  17.724   3.406 -0.1812 -0.1231  0.0619
 4274W        W20748   2.519   2.623   3.335 -0.1397  0.1152 -0.0329
 4275W        W20749   0.943   2.256   0.328 -0.3692 -0.1276  0.2052
 4276W        W20750  17.332  17.891  14.555 -0.0689  0.1416  0.2248
 4277W        W20751   0.573  10.081   4.110  0.0991  0.1210 -0.0330
 4278W        W20752   7.599  14.724   4.368 -0.1945  0.0601  0.3719
 4279W        W20753  15.239   3.130  14.532  0.0322  0.3326  0.0123
 4280W        W20754  17.154  11.280  14.600  0.0672 -0.0922  0.2072
 4281W        W20755  11.642  15.602  12.226  0.2941  0.2494  0.3075
 4282W        W20756   9.315   5.618   3.832 -0.4976 -0.0888  0.0278
 4283W        W20757  15.882   2.929  12.110 -0.2681  0.0354 -0.0698
 4284W        W20758   0.577  12.749   3.852 -0.2727  0.0194 -0.1362
 4285W        W20759  17.181   3.525   0.072 -0.0300 -0.1294  0.4568
 4286W        W20760   5.329   2.529  12.029 -0.3119  0.1534  0.0453
 4287W        W20761  18.607  15.888  12.316 -0.0208  0.1431  0.3002
 4288W        W20762  14.364   4.286  11.152  0.1743  0.0656  0.1904
 4289W        W20763  18.926  11.419   3.915  0.1420  0.0295 -0.1355
 4290W        W20764   3.698  10.765  12.733  0.0578 -0.3721  0.1561
 4291W        W20765   2.357   2.657   0.568  0.0160 -0.1694  0.1370
 4292W        W20766   2.942  17.043   3.111  0.3674  0.2581 -0.0570
 4293W        W20767  10.255   5.783   9.694  0.1031  0.1228 -0.0479
 4294W        W20768   2.999   6.041   5.551  0.1808 -0.0639  0.2144
 4295W        W20769  14.963   1.868   1.428 -0.1773 -0.0241  0.0850
 4296W        W20770  11.580   5.434   0.268  0.0103 -0.0645 -0.2936
 4297W        W20771   3.843   0.649   2.943  0.1754 -0.0280  0.0686
 4298W        W20772   4.453   7.462   5.163 -0.2670  0.1931 -0.2761
 4299W        W20773  17.712   3.023   2.914  0.4298  0.0518  0.0657
 4300W        W20774  16.126  16.241  10.726  0.0717  0.0023  0.0400
 4301W        W20775   8.645   3.224  10.960 -0.0869  0.1650 -0.3116
 4302W        W20776   4.330   3.983  12.969 -0.2282  0.4786 -0.2436
 4303W        W20777  13.318   1.207   2.236  0.0717  0.1908  0.2434
 4304W        W20778  13.116  16.277   1.718 -0.2799 -0.2247 -0.2002
 4305W        W20779   5.419   6.720   0.218  0.0213 -0.0343  0.0135
 4306W        W20780  18.810  19.183  13.503 -0.1777 -0.1658  0.2022
 4307W        W20781   3.997  10.783   5.214  0.0298  0.2791 -0.2630
 4308W        W20782   8.910   7.232   3.387 -0.0694  0.1341 -0.2785
 4309W        W20783   3.629   1.135   1.514  0.0404  0.2633 -0.0921
 4310W        W20784   9.153   6.533   2.658 -0.1762 -0.3262 -0.4238
 4311W        W20785   4.685   8.844  12.384  0.0126  0.1991 -0.0381
 4312W        W20786  16.868  12.854  13.361 -0.0338  0.1993  0.3023
 4313W        W20787  15.217  16.075  14.348  0.0281  0.2586 -0.0254
 4314W        W20788   8.976  15.912  14.792 -0.2307 -0.0679 -0.1161
 4315W        W20789   5.836   9.827   0.875  0.2727 -0.4111  0.0949
 4316W        W20790  12.485  17.624  13.005  0.1144  0.0264  0.3722
 4317W        W20791  10.926  11.055  12.108  0.1502  0.0746 -0.3237
 4318W        W20792   8.956  12.461  14.614 -0.1621 -0.0167 -0.0664
 4319W        W20793   3.457  19.081  14.036  0.0527  0.1681 -0.4655
 4320W        W20794   4.395  12.556   1.807 -0.2704 -0.0751  0.2271
 4321W        W20795   6.282  18.620   5.421 -0.0193 -0.1061  0.1301
 4322W        W20796  12.925  11.132   0.692 -0.0129 -0.0343 -0.1069
 4323W        W20797  12.852  14.486   4.950 -0.0075 -0.1879 -0.0587
 4324W        W20798   2.402   5.698   4.787  0.1265  0.1167  0.0683
 4325W        W20799   8.814  16.508  11.492 -0.1553 -0.1015 -0.1316
 4326W        W20800  13.945  18.114  14.760  0.1197 -0.0996  0.3750
 4327W        W20801  15.267  14.908  12.499  0.1137  0.2310 -0.0480
 4328W        W20802   3.130   9.416   1.097  0.0334  0.0632 -0.2415
 4329W        W20803   3.791   6.525   1.672 -0.5143  0.0436  0.0944
 4330W        W20804  10.773   4.706  10.553  0.1170 -0.0381  0.4435
 4331W        W20805   8.831   5.564  12.889 -0.1047 -0.0316 -0.0529
 4332W        W20806   2.224  18.037  11.461  0.1810  0.1072 -0.3770
 4333W        W20807  10.887   6.129   2.878 -0.2241  0.0214  0.0134
 4334W        W20808  18.822   8.159  12.225 -0.2961 -0.1126  0.1217
 4335W        W20809   7.947   0.889  13.351  0.1437 -0.0257  0.1609
 4336W        W20810  16.947  12.332   0.440  0.0725  0.0713  0.0904
 4337W        W20811  15.443  16.805   4.365 -0.0843  0.0199  0.2963
 4338W        W20812   8.098  11.403  14.604  0.0856  0.0801  0.1729
 4339W        W20813   5.300   8.584   4.063  0.0552 -0.3625  0.2372
 4340W        W20814  18.214   6.698  14.792  0.0608  0.3875  0.0428
 4341W        W20815   1.260  14.195   4.677 -0.0188  0.2676 -0.0606
 4342W        W20816   8.162   5.956   2.053 -0.0471 -0.0987  0.1265
 4343W        W20817  14.228  10.359  14.549  0.1764 -0.0294 -0.0726
 4344W        W20818  14.176   5.260  12.313  0.1516  0.3839 -0.2731
 4345W        W20819   0.157  12.837  12.485 -0.3574 -0.0118 -0.1911
 4346W        W20820   6.154  13.219  12.236  0.0877  0.1364  0.0030
 4347W        W20821  18.387  12.288  12.561  0.1524 -0.1373  0.0010
 4348W        W20822  17.714   1.514   3.879 -0.0551 -0.2693 -0.1036
 4349W        W20823   7.163   4.410  11.938  0.3675 -0.0376  0.1666
 4350W        W20824   8.122  19.173  11.949  0.0218  0.2370 -0.3324
 4351W        W20825   1.987  17.257  12.922 -0.1326  0.2767  0.2365
 4352W        W20826   0.380   9.829  13.853  0.2097 -0.2649  0.0236
 4353W        W20827  13.055  10.804   2.075  0.0758  0.0719 -0.2596
 4354W        W20828  11.123   5.784   3.438 -0.1028 -0.0484  0.1853
 4355W        W20829   9.310   6.433  12.168 -0.0980  0.2428  0.2110
 4356W        W20830  16.537  15.506   2.929 -0.0350  0.0337 -0.3426
 4357W        W20831   2.878   6.530  12.798 -0.0112 -0.1987  0.0893
 4358W        W20832   8.470   2.149  11.613  0.0427 -0.2128  0.2402
 4359W        W20833  17.404  12.358   2.453  0.0269 -0.3299 -0.3426
 4360W        W20834  17.943  11.693   1.044 -0.3810  0.2696 -0.1954
 4361W        W20835  12.543  13.409   4.177  0.0512  0.1074  0.1359
 4362W        W20836  10.400   5.086   1.982  0.3067  0.0795 -0.2012
 4363W        W20837  14.301   6.847  14.705 -0.0397 -0.0425 -0.1615
 4364W        W20838   2.465  13.769  13.556 -0.0455 -0.2291  0.0393
 4365W        W20839  11.830  16.434   1.115 -0.0834  0.1083  0.1238
 4366W        W20840   3.532  14.148  12.730 -0.2340 -0.2933  0.0519
 4367W        W20841  16.230   3.814   3.813  0.2194  0.0703  0.1535
 4368W        W20842  17.380   0.331   4.200  0.1888 -0.1679 -0.2636
 4369W        W20843   8.565   8.968   3.366 -0.1600 -0.4676  0.1044
 4370W        W20844   4.841   8.604  11.937  0.0536  0.1566  0.0586
 4371W        W20845   8.753   4.388   0.318  0.1414  0.0599  0.2271
 4372W        W20846  14.501   9.647   4.248  0.1253  0.0300  0.1830
 4373W        W20847   1.753  11.339  12.458 -0.3122  0.2435  0.1784
 4374W        W20848   4.558   4.344  11.282  0.3446  0.1095 -0.0320
 4375W        W20849   0.628   8.990   0.450  0.1150 -0.4908 -0.1369
 4376W        W20850   4.275   7.691  13.556 -0.1641 -0.0615 -0.0745
 4377W        W20851  10.872  17.054   5.400 -0.0890 -0.0987 -0.0897
 4378W        W20852  11.232   1.174  10.529  0.2085 -0.0799 -0.0942
 4379W        W20853  12.211   8.591  12.236  0.0119 -0.1063  0.0713
 4380W        W20854   1.329  17.805   0.466 -0.0668  0.0704 -0.3686
 4381W        W20855   4.946   4.384  11.618 -0.1566  0.1486  0.1718
 4382W        W20856   9.114   5.418   1.128  0.1275 -0.3665 -0.0854
 4383W        W20857  11.928   1.949   2.665  0.0829  0.2224 -0.1502
 4384W        W20858  11.929  19.055   1.070  0.1541 -0.1463 -0.2623
 4385W        W20859   5.608   5.874   3.266  0.4067  0.4214 -0.3946
 4386W        W20860  14.038  15.007  14.517  0.1584 -0.0128 -0.1085
 4387W        W20861  19.155  12.002  10.846  0.0590  0.2522 -0.1944
 4388W        W20862  18.476   9.056   5.195 -0.2672  0.1155  0.2021
 4389W        W20863   4.969   3.195   3.693  0.1123  0.2054  0.0119
 4390W        W20864  14.002  13.278   2.020 -0.0214  0.0009 -0.2596
 4391W        W20865   4.235  15.793  11.175  0.1737 -0.0094  0.0210
 4392W        W20866   8.122  15.363   2.540  0.3225  0.0751  0.1260
 4393W        W20867  19.096   5.091  11.285 -0.0173  0.1978 -0.1244
 4394W        W20868  12.575  10.586   9.907 -0.0766 -0.1165  0.1161
 4395W        W20869  13.148  14.125  14.865  0.1520 -0.2264 -0.1782
 4396W        W20870  12.187   2.977   4.217 -0.3140 -0.2560  0.0076
 4397W        W20871   6.667  10.791  13.019  0.2081 -0.0684  0.2726
 4398W        W20872  17.891   4.651  12.439  0.0470 -0.1720 -0.2748
 4399W        W20873   7.400  15.688   4.286  0.1500 -0.1548  0.0485
 4400W        W20874   9.342   5.870   2.728  0.2684 -0.0103  0.4381
 4401W        W20875  15.561   0.580  12.418  0.0429  0.0168 -0.0086
 4402W        W20876  19.252   4.889   3.990 -0.2138 -0.1178 -0.1432
 4403W        W20877   9.902   8.249   9.941  0.3205  0.1066 -0.1125
 4404W        W20878   7.498   8.114  12.592 -0.1852 -0.4783 -0.0413
 4405W        W20879  10.224   8.877   2.696 -0.1698  0.2671  0.2500
 4406W        W20880  17.018   0.436   0.331 -0.3724 -0.1857  0.0783
 4407W        W20881  14.396   7.595  11.722  0.0493 -0.1607 -0.0307
 4408W        W20882   1.995  13.174   4.030 -0.0351 -0.0619  0.0710
 4409W        W20883   7.511   7.126   0.233 -0.2155  0.2068  0.1058
 4410W        W20884  15.567  17.862   4.437 -0.1246  0.0044 -0.3207
 4411W        W20885   9.058  10.401   5.158 -0.0908  0.2036  0.2770
 4412W        W20886   3.121  11.449   4.959 -0.1376  0.2603 -0.3896
 4413W        W20887  11.609   2.614   1.377  0.4960 -0.1280  0.1473
 4414W        W20888  10.634   9.380  12.848  0.0853  0.1611  0.1941
 4415W        W20889   3.162  12.921  11.306 -0.2256 -0.0992 -0.1445
 4416W        W20890  15.790   5.427   3.105  0.0996 -0.0556  0.2118
 4417W        W20891  17.816  13.032  12.341  0.0449 -0.0455  0.2021
 4418W        W20892   5.957   0.939  14.861 -0.3193 -0.0745 -0.0456
 4419W        W20893  12.753   6.897   4.079 -0.0427  0.2081  0.2127
 4420W        W20894   7.750  16.375   1.488 -0.1895 -0.3308  0.0779
 4421W        W20895   9.102  12.441  13.130 -0.3064 -0.0410 -0.0496
 4422W        W20896  16.232   2.426   0.573  0.1172 -0.1140  0.0718
 4423W        W20897  15.136   7.471  14.699 -0.0387  0.0050  0.0535
 4424W        W20898  16.888  17.254   1.833  0.1220  0.0632  0.2314
 4425W        W20899   4.980   2.070  10.905  0.1045  0.2548  0.2551
 4426W        W20900   6.067  14.116   5.339 -0.1820  0.1608 -0.2360
 4427W        W20901  13.856  12.082  14.446 -0.0980  0.0860 -0.1318
 4428W        W20902  17.674   7.538  13.795  0.1865 -0.0239  0.3312
 4429W        W20903  17.917   5.211   2.842 -0.0911  0.1798  0.2379
 4430W        W20904   4.259   1.835   9.892 -0.3424  0.1925 -0.0396
 4431W        W20905   7.993   3.817   2.537  0.5370  0.2778 -0.1912
 4432W        W20906  14.663  15.300  13.114 -0.1048 -0.2176  0.1456
 4433W        W20907  12.055  17.503  13.313  0.2737  0.2898  0.0047
 4434W        W20908   3.291  18.181   1.885 -0.1618  0.1611  0.2128
 4435W        W20909  10.091  18.671   2.579 -0.0916 -0.0439  0.0215
 4436W        W20910   2.296   0.556  14.738  0.2500 -0.0955  0.2575
 4437W        W20911   5.474   4.456  10.291  0.1978 -0.1645  0.0493
 4438W        W20912  13.003  10.964   3.533  0.4493  0.1490 -0.0356
 4439W        W20913   6.637   6.508   0.912  0.0247 -0.1383  0.0055
 4440W        W20914   8.708   0.543  13.563 -0.1938  0.0874  0.0250
 4441W        W20915  18.322  17.755  14.295  0.0510  0.0408 -0.1189
 4442W        W20916  11.861   2.313  13.714  0.1726 -0.4418  0.3575
 4443W        W20917   9.846  18.212   2.681  0.0465  0.0094  0.0581
 4444W        W20918   2.233   3.312   1.245  0.0305 -0.3085  0.2308
 4445W        W20919  11.373  16.042  13.360 -0.1882 -0.0832 -0.1563
 4446W        W20920   7.195  18.163   4.556 -0.1604 -0.3178  0.1036
 4447W        W20921  17.016  12.953  11.741 -0.2133  0.3800 -0.1987
 4448W        W20922   9.326  16.591  12.945  0.0106  0.0515  0.1160
 4449W        W20923  18.659   4.899   4.345 -0.0437 -0.1619 -0.2337
 4450W        W20924   0.424   7.999   5.814  0.5100 -0.0605  0.0985
 4451W        W20925  18.145  13.556   5.080 -0.1051  0.1928 -0.1798
 4452W        W20926  19.055   6.164   5.246 -0.1038  0.1695 -0.0541
 4453W        W20927  14.673   3.043  10.422  0.1622 -0.2363 -0.1416
 4454W        W20928   7.818  17.338   2.420  0.1851  0.0313  0.2745
 4455W        W20929   9.352   9.339  11.172 -0.2538 -0.0402 -0.0018
 4456W        W20930  16.574  12.005  13.384  0.0027 -0.2467 -0.1988
 4457W        W20931   9.578  13.193   1.686  0.0928  0.1223  0.0278
 4458W        W20932   7.096  10.585   2.141 -0.0295  0.0015  0.2750
 4459W        W20933   8.351  17.552  12.946 -0.0976 -0.1760  0.1851
 4460W        W20934   8.837  18.336  12.009 -0.2282 -0.2025  0.1232
 4461W        W20935   7.110  10.971   3.274 -0.1538  0.0282  0.0494
 4462W        W20936   4.863   5.566   9.391  0.1847  0.1786  0.2661
 4463W        W20937  14.147   6.066  13.997 -0.0033  0.1244 -0.1539
 4464W        W20938   5.440   3.157  14.268 -0.1424 -0.1892 -0.3504
 4465W        W20939   2.545  11.941   5.100 -0.0247  0.0082 -0.0797
 4466W        W20940   2.564   7.430  12.521 -0.1079  0.0304 -0.1690
 4467W        W20941  13.463  11.309  13.295 -0.2825 -0.2470  0.0307
 4468W        W20942   4.284   4.473  13.833 -0.2764  0.3433  0.2513
 4469W        W20943   5.675  12.376   2.637  0.1246 -0.1374 -0.1032
 4470W        W20944  14.207  17.959   0.817  0.0682 -0.1873  0.1156
 4471W        W20945  14.155  14.576   2.773 -0.2523  0.5187 -0.1150
 4472W        W20946   2.109   4.986  11.196  0.2145  0.0260  0.2400
 4473W        W20947   2.464  12.053  13.435 -0.0951  0.0436  0.0337
 4474W        W20948   1.329  12.594   0.318  0.1081  0.1921  0.1692
 4475W        W20949   5.081   5.649   9.814 -0.2520 -0.0441  0.0787
 4476W        W20950  10.901   5.275  12.439 -0.3039  0.0690  0.0265
 4477W        W20951   7.730   4.270  13.626  0.0104 -0.3703 -0.0479
 4478W        W20952  15.898  10.458   3.010  0.0638 -0.1175  0.0657
 4479W        W20953  15.936   7.979  11.010 -0.1315  0.1210  0.2340
 4480W        W20954  13.725   4.279  11.263 -0.1980  0.1130  0.3219
 4481W        W20955   3.429   4.796  10.588  0.2642 -0.0457  0.0584
 4482W        W20956   8.616  18.286  13.242  0.1390  0.2328 -0.1685
 4483W        W20957  13.667  13.614  13.272 -0.1414  0.0742  0.1173
 4484W        W20958   8.411   3.840   4.544 -0.1911  0.4606 -0.5630
 4485W        W20959   3.649   8.908   2.489 -0.1568 -0.0084  0.1170
 4486W        W20960   0.312  18.864  14.883 -0.0391  0.1442 -0.0035
 4487W        W20961  11.148   6.730   0.564  0.2053 -0.0517  0.1311
 4488W        W20962  12.136   3.923  11.364  0.1099  0.0592  0.1343
 4489W        W20963   1.202   5.173   2.014 -0.1895  0.0818  0.3379
 4490W        W20964   7.049   1.149  11.149 -0.1492 -0.3448 -0.0350
 4491W        W20965  19.052  16.314   0.092 -0.1387 -0.1824 -0.2805
 4492W        W20966  16.876  17.090   3.958  0.2461  0.1616 -0.1289
 4493W        W20967   4.918   3.825   3.263  0.2223  0.2077 -0.0428
 4494W        W20968  18.105  13.093   2.581  0.4162  0.2520 -0.0563
 4495W        W20969  12.919   5.639  11.854 -0.4600 -0.1929  0.0422
 4496W        W20970  17.311  11.345  12.438  0.1259 -0.1475 -0.0421
 4497W        W20971  15.660  15.685  11.176 -0.1534 -0.3607  0.1419
 4498W        W20972   5.924   3.096  12.460  0.0095  0.0547  0.0903
 4499W        W20973   0.592  14.429   4.561 -0.3878 -0.2001 -0.1652
 4500W        W20974  19.181   0.238   4.912  0.0471 -0.1795  0.2403
 4501W        W20975   0.346   0.560   1.459 -0.2813 -0.5222 -0.1509
 4502W        W20976   8.297  18.998  13.342 -0.1487  0.0189  0.3034
 4503W        W20977   8.783   7.714  14.641  0.1731  0.2565  0.1344
 4504W        W20978  14.017  12.245   0.541 -0.5088  0.0191 -0.2872
 4505W        W20979   3.713   9.828  12.909  0.0462  0.2093 -0.0312
 4506W        W20980   9.803   4.058   4.107  0.0883 -0.0974 -0.2757
 4507W        W20981  18.740   2.235   3.057 -0.3412 -0.2487 -0.1708
 4508W        W20982   6.743  11.442  14.079 -0.3385  0.0940  0.0997
 4509W        W20983   4.462   2.968  11.049 -0.1476  0.2218  0.3652
 4510W        W20984   0.962   5.722  12.574 -0.0823  0.1901  0.2347
 4511W        W20985  11.360  19.104  14.279  0.0311  0.0109  0.1051
 4512W        W20986  17.588   0.137   3.768 -0.3406  0.0792 -0.1320
 4513W        W20987  10.354   0.106  12.947 -0.0728 -0.2822 -0.3293
 4514W        W20988   3.135   9.182   4.953 -0.5279  0.0611  0.0765
 4515W        W20989  14.729   9.202   2.358 -0.2139 -0.0651  0.1491
 4516W        W20990  16.175  14.411   0.416  0.0903  0.0390 -0.1785
 4517W        W20991  18.967  18.777   1.110 -0.0719  0.0691  0.0387
 4518W        W20992   6.607   1.854   3.726 -0.3930  0.1834 -0.2694
 4519W        W20993   8.934  10.422   3.266 -0.1168  0.4060 -0.3244
 4520W        W20994  17.103  15.215   2.214 -0.2397 -0.2778  0.1820
 4521W        W20995   3.700   7.592  14.613 -0.1770  0.0595  0.0528
 4522W        W20996   5.774   1.204  10.457 -0.0018  0.3197 -0.0368
 4523W        W20997   4.275  18.368  14.832 -0.3371 -0.2965  0.2670
 4524W        W20998  14.090  10.787  13.033 -0.3485 -0.2970 -0.4024
 4525W        W20999  18.691  13.799   0.313  0.0520 -0.2927 -0.1173
 4526W        W21000  19.200  16.730  14.257  0.1471  0.0229 -0.4612
 4527W        W21001   0.558  17.822  13.927  0.0012  0.2092  0.0772
 4528W        W21002   4.680   1.346  13.801 -0.3318  0.2568  0.5798
 4529W        W21003  11.172  12.322  14.086 -0.0609 -0.0650 -0.1799
 4530W        W21004  16.136  11.159  14.079  0.4379  0.4179 -0.0142
 4531W        W21005   6.987   7.970  10.938 -0.2393 -0.3596 -0.3948
 4532W        W21006  13.926   8.858  13.978 -0.0854 -0.2292 -0.0923
 4533W        W21007  18.582   5.470  10.597  0.0371 -0.3207 -0.1106
 4534W        W21008  16.743  17.225  12.106  0.0025 -0.1948  0.0670
 4535W        W21009   2.193  16.149   0.515 -0.0997 -0.0764 -0.0512
 4536W        W21010  12.633  13.872   1.344 -0.1382 -0.1553 -0.0237
 4537W        W21011  15.877  18.137   2.096  0.0311 -0.0011 -0.0096
 4538W        W21012  15.601  12.540   3.316 -0.3641  0.2872  0.2751
 4539W        W21013   5.938  15.697   4.308  0.0938  0.2749 -0.0384
 4540W        W21014   2.326   5.583   0.488 -0.2100 -0.2006 -0.1836
 4541W        W21015  16.630   6.750  10.631 -0.2282  0.1452  0.0677
 4542W        W21016   0.897   5.639   4.447 -0.2089  0.1533 -0.0421
 4543W        W21017  14.669  13.291  12.126  0.4486 -0.1383 -0.1490
 4544W        W21018  12.578   3.280   0.103 -0.2139  0.0831 -0.3426
 4545W        W21019  19.094   8.865  13.361 -0.4893 -0.1487 -0.3745
 4546W        W21020   4.057  13.110   4.642 -0.0400 -0.4392  0.0059
 4547W        W21021  15.787  10.789   1.612  0.0913  0.0435 -0.1127
 4548W        W21022   6.448  11.507   1.902  0.0108  0.3679 -0.1987
 4549W        W21023  15.921  10.511  10.906  0.2841 -0.0649  0.3049
 4550W        W21024   8.829  16.541  12.010 -0.0022 -0.0737 -0.0509
 4551W        W21025   9.857  17.697   2.931  0.0446  0.0162  0.4055
 4552W        W21026  11.227   9.554   2.716 -0.1023 -0.0843 -0.0758
 4553W        W21027   7.617   2.714  12.165  0.1815 -0.1202 -0.1371
 4554W        W21028   3.609   7.248   2.206 -0.1303 -0.0955 -0.0001
 4555W        W21029   1.834  11.164   3.557  0.0282  0.0635 -0.0259
 4556W        W21030   6.251  13.128   5.500 -0.1903 -0.2092 -0.1813
 4557W        W21031  18.102   4.171  11.866 -0.2044 -0.0794 -0.2251
 4558W        W21032   7.512   0.278   0.775  0.0270  0.2655 -0.3217
 4559W        W21033   0.352   0.074   4.755 -0.2922  0.3381  0.1047
 4560W        W21034  13.310  12.056   1.852  0.0977  0.1237  0.1724
 4561W        W21035   0.947   7.559   9.214  0.2268 -0.2894 -0.1050
 4562W        W21036  11.575   7.231   4.560  0.0572 -0.1571 -0.2773
 4563W        W21037   0.776  17.377   3.173 -0.1249  0.0797  0.1643
 4564W        W21038   4.935  19.104   3.717 -0.0590  0.1127 -0.2381
 4565W        W21039   8.305   6.475   0.447  0.2674  0.0072 -0.1691
 4566W        W21040  17.600  11.319   2.207 -0.0678 -0.2378 -0.0393
 4567W        W21041  10.334   2.952   0.216  0.1479 -0.2073 -0.1081
 4568W        W21042  17.289  17.867  11.637 -0.3273 -0.4668 -0.2707
 4569W        W21043  12.045   6.772  14.654 -0.0777  0.0604 -0.5223
 4570W        W21044  15.085  10.288   0.054 -0.1700 -0.3673 -0.0668
 4571W        W21045  16.040   9.390   3.344 -0.0358  0.1388  0.0279
 4572W        W21046   0.681   5.664   1.682 -0.1892 -0.0110 -0.0232
 4573W        W21047   5.950  11.348   2.044 -0.1202 -0.0122  0.0387
 4574W        W21048  14.155   1.118   2.926 -0.1204 -0.0317  0.0347
 4575W        W21049  13.923   6.513  14.101  0.4443 -0.3438  0.0368
 4576W        W21050  15.926   3.440  10.824 -0.0019  0.0616  0.1361
 4577W        W21051  11.555   6.291  11.562  0.1376 -0.0815  0.0241
 4578W        W21052  13.498   3.242   0.469  0.0495  0.1522 -0.0386
 4579W        W21053  14.156  14.515   4.403  0.0442  0.0530  0.1827
 4580W        W21054  18.770   3.428  14.249 -0.0140  0.4965 -0.0632
 4581W        W21055  18.734  15.256   5.041 -0.0978 -0.0221  0.0382
 4582W        W21056  16.457   1.830   9.375  0.0403 -0.4763 -0.1341
 4583W        W21057  17.802   5.761   3.479  0.0613  0.1237 -0.3684
 4584W        W21058   4.275   2.661   1.914  0.4044  0.1467  0.1135
 4585W        W21059  14.461  16.265  13.932 -0.1726  0.0759  0.1176
 4586W        W21060   0.203   2.805  14.375 -0.0662 -0.0259  0.2145
 4587W        W21061  16.276  11.395  10.644 -0.0277  0.3197 -0.1336
 4588W        W21062  18.820  15.511  13.073  0.1351  0.0347 -0.1199
 4589W        W21063  18.195  14.738  14.180  0.1164 -0.0343  0.1678
 4590W        W21064  17.390   3.167   2.131  0.0301 -0.0671 -0.4669
 4591W        W21065   1.320   1.956  13.969 -0.1588  0.1229  0.1646
 4592W        W21066   5.352  12.869   0.110  0.2059  0.1775  0.1448
 4593W        W21067  12.295   5.666  11.193 -0.1262  0.0863  0.1468
 4594W        W21068   1.288  17.940  14.473 -0.2599 -0.0908  0.0006
 4595W        W21069  12.556   0.244   0.665  0.2086  0.1265 -0.1806
 4596W        W21070   7.947   8.898  10.708  0.0445 -0.0788  0.1510
 4597W        W21071   1.251   8.787   3.965  0.0412 -0.1298  0.2061
 4598W        W21072  14.231   8.192   0.383 -0.1490 -0.0799  0.1138
 4599W        W21073  17.154   3.678   2.897 -0.1782 -0.0104  0.1513
 4600W        W21074  16.092   1.275   5.736  0.0254 -0.0760 -0.1898
 4601W        W21075   0.144   5.019   2.125  0.1828 -0.1181 -0.2739
 4602W        W21076   1.797  18.968  11.003  0.3359 -0.0617 -0.2000
 4603W        W21077  10.108   3.836   1.982 -0.2947 -0.0421 -0.0598
 4604W        W21078   5.173  15.072   4.882 -0.2169  0.0801  0.1613
 4605W        W21079  16.486   0.762  10.630 -0.1122  0.1414 -0.2078
 4606W        W21080   7.156  15.985  11.103  0.0526 -0.2314 -0.0017
 4607W        W21081   1.006   8.161  12.877  0.2034 -0.3536 -0.0855
 4608W        W21082   8.487   1.047  13.789  0.0653  0.1695  0.2104
 4609W        W21083   3.499  13.457   5.133 -0.0212  0.0948  0.1505
 4610W        W21084  17.716  13.302  14.323  0.1687 -0.0078  0.0325
 4611W        W21085   7.328  13.452   2.627 -0.2448  0.2070 -0.1660
 4612W        W21086  14.343   7.006   3.893 -0.0658 -0.4426  0.0156
 4613W        W21087  19.214  14.473  14.061  0.0365 -0.0649 -0.1261
 4614W        W21088  19.347   6.295  10.317  0.0789 -0.2624  0.0681
 4615W        W21089  12.973  15.668   3.308 -0.1672  0.0307  0.0850
 4616W        W21090  16.844  13.637   1.093  0.1313 -0.2602  0.0425
 4617W        W21091  19.232  15.877  14.711 -0.0176 -0.0331 -0.2743
 4618W        W21092   9.775   3.338  12.025  0.0315  0.0397 -0.0112
 4619W        W21093  15.944   4.546   2.802 -0.0255 -0.1206  0.0111
 4620W        W21094   7.118  14.156   1.633  0.1003 -0.1375  0.2139
 4621W        W21095   0.561   4.308  14.112 -0.4187  0.1273 -0.2341
 4622W        W21096  12.218   5.669   1.949  0.1887  0.1157 -0.1637
 4623W        W21097   7.119   7.258   8.854  0.1765  0.3251  0.4414
 4624W        W21098  11.457  10.809   0.980 -0.0548 -0.2733  0.0322
 4625W        W21099  11.933  13.399  13.452 -0.0904 -0.0073  0.0382
 4626W        W21100  17.538  17.093   3.044  0.2126  0.1096 -0.0666
 4627W        W21101   6.463   1.688  11.979  0.1272  0.2584  0.5125
 4628W        W21102   5.568  18.577   1.189  0.0518  0.1620  0.0599
 4629W        W21103   7.264   3.098   4.806  0.0519 -0.1016  0.1019
 4630W        W21104  16.627   3.757   2.921  0.0375 -0.2157 -0.4027
 4631W        W21105   3.918  15.923  11.675  0.1607 -0.0132  0.2956
 4632W        W21106   5.427  11.655  10.817  0.0360 -0.0546  0.0900
 4633W        W21107   6.600  11.091  12.510 -0.2289 -0.3231 -0.4191
 4634W        W21108   9.985   1.212  10.637  0.2437  0.1342 -0.2256
 4635W        W21109   3.894   8.526  10.924 -0.1115 -0.0981 -0.1951
 4636W        W21110  11.083  13.035   2.768  0.1585 -0.0478 -0.1914
 4637W        W21111  11.538   2.552   9.443  0.3610  0.0465  0.0797
 4638W        W21112  18.084  12.555   3.675  0.1587 -0.1831 -0.0984
 4639W        W21113  12.617   5.894   0.670 -0.0380  0.3641  0.3552
 4640W        W21114   0.440   4.686   2.824  0.0600  0.0381  0.1923
 4641W        W21115  18.801  15.044   2.746  0.1547  0.1717  0.1625
 4642W        W21116  16.284  12.903   0.576 -0.0239  0.1925  0.0833
 4643W        W21117   7.144   7.584   0.073  0.1317  0.0429  0.2045
 4644W        W21118   2.887   8.152   1.154  0.3740 -0.1648 -0.0214
 4645W        W21119   8.198  15.133   4.360 -0.3939 -0.1592  0.0848
 4646W        W21120   7.277  10.592   2.919  0.0152 -0.0397 -0.1907
 4647W        W21121  15.150   2.780   0.001  0.0947  0.0927 -0.2781
 4648W        W21122   4.178  14.872   5.338  0.0844  0.0997 -0.1583
 4649W        W21123  10.516   3.388  10.833  0.3778 -0.0753 -0.1278
 4650W        W21124  14.862   7.134   3.279 -0.0964  0.0521 -0.2137
 4651W        W21125   1.895  18.794  13.503 -0.1492  0.3783  0.2965
 4652W        W21126  14.421   7.428  10.742 -0.0261 -0.0728 -0.0213
 4653W        W21127   1.474   8.541   1.343 -0.1063 -0.0714 -0.4445
 4654W        W21128   5.684  18.862  14.650 -0.0965  0.1976 -0.2516
 4655W        W21129   3.039   5.428   2.762  0.4083  0.0893  0.0362
 4656W        W21130  14.627   9.896   3.703  0.0296  0.0665 -0.1555
 4657W        W21131   3.737  15.882  14.700  0.0280 -0.0192  0.1550
 4658W        W21132   4.028  16.943  14.625 -0.2197 -0.1904  0.2679
 4659W        W21133  12.727   4.890   3.697  0.1095  0.3528  0.2117
 4660W        W21134  17.843  17.442  13.915  0.1098  0.1705  0.1352
 4661W        W21135   8.014  11.425  10.241 -0.1587  0.2696  0.1008
 4662W        W21136   8.381  18.720   9.361  0.1784  0.0405 -0.1964
 4663W        W21137   2.507   1.455  11.921 -0.1000 -0.0604 -0.0246
 4664W        W21138  16.553  10.309  11.170  0.0340  0.1697 -0.2044
 4665W        W21139   7.991  17.771   4.216 -0.0355  0.0039  0.0141
 4666W        W21140   8.347   4.598  14.465 -0.1192 -0.4942  0.0543
 4667W        W21141   3.338   9.884   1.289 -0.1031  0.1341 -0.1540
 4668W        W21142  11.544   1.822   4.199  0.0107 -0.2835 -0.0052
 4669W        W21143   0.536   7.519   0.658 -0.2672 -0.2974 -0.0292
 4670W        W21144  14.177   0.347   5.143  0.2472  0.1316 -0.1701
 4671W        W21145   0.766   6.773   3.390  0.0214 -0.0814  0.0724
 4672W        W21146  14.271   2.192  13.628 -0.1135 -0.3685 -0.1398
 4673W        W21147  16.224   4.625  14.876 -0.2408 -0.0863  0.1937
 4674W        W21148   9.603   0.179  10.177 -0.1543 -0.0829  0.0104
 4675W        W21149  15.948  11.824   5.493  0.0196  0.0451 -0.2901
 4676W        W21150   7.660  17.704   1.736  0.2167  0.0557 -0.3462
 4677W        W21151  19.156  14.376  10.553  0.2662  0.3369  0.2283
 4678W        W21152   6.597   6.547  13.360  0.0158 -0.1779 -0.0155
 4679W        W21153  15.190   8.577  12.463  0.2266  0.0821  0.0318
 4680W        W21154  14.730   0.043   0.314  0.0296  0.2738  0.0409
 4681W        W21155   8.789  10.878   3.368 -0.0601  0.0825  0.1271
 4682W        W21156  17.808   7.922   2.541 -0.1724 -0.2223 -0.3412
 4683W        W21157   3.641  18.558   1.027 -0.0741 -0.3406  0.2947
 4684W        W21158   9.489   5.188   3.530 -0.1246  0.2510  0.0648
 4685W        W21159  10.813  18.472   1.775  0.0004 -0.0373 -0.0567
 4686W        W21160  17.439  11.083  11.556  0.1051  0.4497 -0.2212
 4687W        W21161  19.373   8.696   0.356 -0.1303  0.0148  0.2362
 4688W        W21162   5.723   9.263   3.087  0.1684 -0.0500 -0.0913
 4689W        W21163  10.448   6.200   3.058 -0.3270 -0.0129  0.1598
 4690W        W21164  16.879   9.166   0.789  0.3918  0.4086  0.0188
 4691W        W21165  17.772  17.272   5.795 -0.0650 -0.0134 -0.1385
 4692W        W21166   3.040  13.946   4.092 -0.1133  0.1906  0.4631
 4693W        W21167  18.769   1.342  12.543  0.0714 -0.0045  0.0086
 4694W        W21168  11.908  15.988   4.530 -0.0845 -0.1235 -0.0885
 4695W        W21169   3.698   7.781   1.238 -0.2906  0.1833 -0.2546
 4696W        W21170  12.123  18.842  13.351  0.0171  0.0572  0.1224
 4697W        W21171  16.526   8.077   2.807 -0.1670  0.1092  0.3208
 4698W        W21172  14.444   1.929   5.255  0.1918  0.0638  0.2307
 4699W        W21173  15.367  13.056   3.921  0.1157 -0.1401  0.0549
 4700W        W21174  18.727  17.877   3.872 -0.0079 -0.1694  0.0248
 4701W        W21175   7.684   6.087  12.630  0.0115 -0.0422 -0.2791
 4702W        W21176   3.743   6.282   1.148 -0.1310 -0.0573 -0.1925
 4703W        W21177  10.648   1.805  12.251  0.2954  0.3068 -0.2428
 4704W        W21178  10.352   7.973   9.921  0.0795 -0.0040  0.0178
 4705W        W21179   0.370  17.927   3.848 -0.3003  0.1012  0.2659
 4706W        W21180   8.457  15.352   6.292  0.1403  0.3557 -0.1019
 4707W        W21181  14.380  13.937   3.009  0.1260  0.4044  0.0022
 4708W        W21182  11.512  16.533  12.588 -0.1881 -0.0289  0.0474
 4709W        W21183  19.033   1.777  10.949  0.0537 -0.0756 -0.0372
 4710W        W21184  18.194  10.254  14.437 -0.1205  0.2407  0.4094
 4711W        W21185   1.504  18.655   3.128  0.1280  0.1898  0.3220
 4712W        W21186  12.452   8.645   3.229  0.4209  0.3073 -0.0270
 4713W        W21187  10.100   2.536   0.678  0.1407  0.1434  0.0427
 4714W        W21188  17.612   5.595   0.108  0.0432  0.1888  0.1676
 4715W        W21189  18.479  11.149  12.191 -0.1752  0.0556  0.1167
 4716W        W21190  18.317   3.601  13.800 -0.0621 -0.0993 -0.2514
 4717W        W21191   6.736  16.018  12.404  0.1552  0.2833 -0.1898
 4718W        W21192   6.275   9.786   4.815  0.2100 -0.1488 -0.1130
 4719W        W21193   1.281   7.000   2.780 -0.1800  0.1684  0.2674
 4720W        W21194  15.324   7.363  10.596  0.2292 -0.4054  0.1091
 4721W        W21195  17.506   1.079  12.913 -0.1237 -0.3722 -0.1605
 4722W        W21196   0.639   7.605  14.179  0.0823  0.1513 -0.1284
 4723W        W21197  15.186   9.650   2.968 -0.1037 -0.2247  0.1810
 4724W        W21198  15.243  13.761  13.369 -0.2209  0.1034 -0.1199
 4725W        W21199   7.790   0.523  10.748  0.1992  0.1754 -0.2853
 4726W        W21200  15.770   4.321   5.475  0.1732 -0.0842 -0.1483
 4727W        W21201   6.858  14.020  13.814 -0.0063  0.0854 -0.0024
 4728W        W21202   5.998   7.798   0.749  0.0905 -0.0585 -0.1358
 4729W        W21203  13.251  10.684   5.767  0.1046  0.1783  0.0161
 4730W        W21204   2.213   6.648   3.152 -0.4266  0.1848  0.0392
 4731W        W21205   5.546   6.356   3.047  0.1281  0.1355  0.1315
 4732W        W21206  12.865   8.369  11.896 -0.1157  0.0198  0.1863
 4733W        W21207  11.942   3.141  11.783 -0.0421 -0.0117  0.1522
 4734W        W21208  13.812   5.334   2.721 -0.0327 -0.2760 -0.3520
 4735W        W21209   3.161   1.003  14.768  0.1665  0.2890 -0.1905
 4736W        W21210  17.710  11.626   2.698  0.2458  0.1535 -0.3091
 4737W        W21211   2.272   1.219   1.026  0.0760 -0.0095 -0.2655
 4738W        W21212   3.413   3.405   4.119 -0.0393 -0.0903  0.2745
 4739W        W21213   2.205   4.480  10.319  0.2706  0.3547  0.0381
 4740W        W21214   8.296   8.029  14.616  0.2537 -0.4897  0.1463
 4741W        W21215   4.372  18.003   2.112  0.2291  0.1051 -0.2597
 4742W        W21216   3.537   8.906   4.606 -0.1156 -0.1082  0.4608
 4743W        W21217  15.034  13.983   4.490  0.1375 -0.5107 -0.0274
 4744W        W21218  12.742   7.665   3.299  0.1912  0.2395 -0.0520
 4745W        W21219  18.486   7.282   2.237 -0.1403  0.0423  0.0455
 4746W        W21220  16.550   6.283   4.121 -0.1958  0.0703 -0.1235
 4747W        W21221   2.170  14.088  13.925 -0.2661 -0.2446 -0.1310
 4748W        W21222   7.161   8.366   4.075 -0.0840  0.0108  0.3322
 4749W        W21223   0.565  15.584   5.133  0.0230 -0.2359 -0.1073
 4750W        W21224  16.322  13.068   4.040  0.1220  0.2300 -0.0019
 4751W        W21225  10.029  19.004   3.041  0.0150  0.1022 -0.2373
 4752W        W21226   8.124  11.161   2.695  0.0079  0.0332 -0.1222
 4753W        W21227  12.181  15.401   5.052  0.0374 -0.1962 -0.2209
 4754W        W21228   8.676  15.215  11.036 -0.1176 -0.0426 -0.1332
 4755W        W21229  11.692  12.844   3.395  0.1112  0.2432 -0.2677
 4756W        W21230   2.340   9.873   0.476  0.2436  0.1045 -0.0803
 4757W        W21231   6.254  18.268  14.247  0.0512 -0.0004  0.0772
 4758W        W21232   1.424   0.977  12.590  0.1113 -0.0890  0.0950
 4759W        W21233  15.331   0.960   4.191 -0.1950  0.0571  0.0907
 4760W        W21234   8.711   9.886   3.006 -0.2564  0.1354 -0.1058
 4761W        W21235   0.485   8.931   2.782  0.2466 -0.2472 -0.0271
 4762W        W21236   6.810  14.867   2.343  0.1472 -0.0573  0.1939
 4763W        W21237   5.629   5.059  11.689 -0.0479 -0.0699 -0.2117
 4764W        W21238   3.665   9.738  14.876  0.1144 -0.4801  0.0564
 4765W        W21239   5.215  13.533   3.777 -0.1868  0.2619 -0.1663
 4766W        W21240   4.195  18.358   4.145  0.0117  0.0631 -0.2096
 4767W        W21241  18.457  18.851   5.059  0.0029  0.1317 -0.0453
 4768W        W21242  16.268   7.750  13.935  0.2601  0.1109  0.0597
 4769W        W21243  10.085  10.931  11.473 -0.1519  0.1483  0.1568
 4770W        W21244  16.258   6.584   5.878  0.0016  0.1275  0.0658
 4771W        W21245   3.080  13.316  12.284 -0.1388  0.3627 -0.1577
 4772W        W21246   8.722  12.808   0.273  0.1808 -0.2041 -0.1063
 4773W        W21247   0.646   7.895  10.818  0.0105  0.0146 -0.0815
 4774W        W21248   3.702  12.080  14.768  0.2675 -0.0248 -0.2588
 4775W        W21249   2.824  12.940  12.512  0.1005 -0.1605 -0.5514
 4776W        W21250   9.156  10.971  13.201  0.0107  0.0458  0.4180
 4777W        W21251  13.446  17.115   1.922  0.0762  0.1746  0.3269
 4778W        W21252   8.969  12.678   1.043  0.1189 -0.0454  0.1735
 4779W        W21253   2.542   9.850   1.888 -0.0097  0.4120 -0.3571
 4780W        W21254  14.190   5.044   1.105  0.1053  0.2355 -0.0408
 4781W        W21255  13.491  14.799   3.471  0.0532  0.0038 -0.0608
 4782W        W21256  18.734  14.668   1.880  0.2476 -0.1092  0.2677
 4783W        W21257  15.193   9.225   0.008  0.0816  0.1977  0.0089
 4784W        W21258   4.582   0.458  13.794  0.0110  0.0512  0.2846
 4785W        W21259   2.202  12.290   5.915  0.0409  0.1989  0.0405
 4786W        W21260   4.088  12.906  13.830 -0.0082 -0.2221 -0.2357
 4787W        W21261   7.555  15.291   2.538 -0.2606  0.3159 -0.0689
 4788W        W21262  16.660   6.742   0.188 -0.1326 -0.0779 -0.1405
 4789W        W21263   3.813  18.077   3.677 -0.0491 -0.0517  0.0696
 4790W        W21264  15.933  19.248   4.020  0.0877 -0.0512  0.0974
 4791W        W21265  12.449  15.042  12.234 -0.2395 -0.3410 -0.1896
 4792W        W21266  17.571   4.584   0.631 -0.0981  0.0618  0.0186
 4793W        W21267   4.969   9.167  12.766 -0.1646 -0.0928 -0.1351
 4794W        W21268   9.523   8.483  12.857  0.1441  0.0893  0.0183
 4795W        W21269  14.736  12.702  14.441 -0.1522 -0.1841 -0.0863
 4796W        W21270  14.318  16.897  14.742  0.0288 -0.1648 -0.2193
 4797W        W21271   1.842   3.264  12.777  0.0614  0.0644  0.0942
 4798W        W21272   3.605  14.522   3.039 -0.1814 -0.0482  0.3298
 4799W        W21273  18.991   0.304   1.428  0.1565  0.0860 -0.0410
 4800W        W21274   2.162  13.255   0.191 -0.0212 -0.2083  0.0209
 4801W        W21275  12.039  14.721   3.057 -0.3994  0.0178  0.4600
 4802W        W21276  16.916   5.548  10.776 -0.2788 -0.0280 -0.0269
 4803W        W21277  10.412   4.877  10.908  0.1092  0.3432 -0.3899
 4804W        W21278  11.373  10.909   0.003 -0.0006 -0.1117 -0.0029
 4805W        W21279  17.191  15.445   0.256 -0.0571 -0.0198  0.1497
 4806W        W21280   4.293  14.245  12.266 -0.0091 -0.1583  0.0724
 4807W        W21281   0.836  14.064  13.339  0.1846 -0.1103 -0.4684
 4808W        W21282  11.359   7.775   3.484 -0.1750  0.0267  0.3097
 4809W        W21283   3.688   5.311  14.059  0.2188  0.0352 -0.0096
 4810W        W21284   0.030   3.384   1.021 -0.2574  0.3450 -0.1771
 4811W        W21285  11.120   8.140  12.940  0.0743  0.1431 -0.1462
 4812W        W21286  13.343  18.657  14.260 -0.0128  0.0375 -0.2007
 4813W        W21287   7.486  15.135   9.920 -0.1628  0.2106 -0.2968
 4814W        W21288   7.981   2.856  13.162  0.1537 -0.1672 -0.0869
 4815W        W21289   1.462   2.954  13.984 -0.1452  0.1562  0.0829
 4816W        W21290  13.444  13.355   4.674  0.0729  0.0376  0.1304
 4817W        W21291  15.201  13.842  14.812 -0.4379  0.1294  0.0352
 4818W        W21292  12.663   8.653   1.335  0.0813  0.1486 -0.1210
 4819W        W21293  12.340  13.916  10.944  0.1692  0.0999 -0.1895
 4820W        W21294  11.632   4.399  13.513 -0.4820  0.0378  0.0502
 4821W        W21295   9.610  10.623   0.053 -0.1531 -0.1027  0.0572
 4822W        W21296  14.950  14.182  10.982 -0.1868  0.1455 -0.1156
 4823W        W21297   9.226   5.459  12.573 -0.2231  0.0636 -0.0989
 4824W        W21298   2.029   1.624   1.285  0.0395  0.0724  0.1381
 4825W        W21299   9.142   8.866   9.953 -0.4163  0.0179  0.0727
 4826W        W21300   5.173   4.119   5.539 -0.3815 -0.0281  0.1055
 4827W        W21301   3.811   4.414  11.862  0.2115  0.0827 -0.2492
 4828W        W21302  18.162  18.634  14.615 -0.1735  0.2866 -0.0264
 4829W        W21303   4.840  13.670  12.919  0.1514  0.2957 -0.0832
 4830W        W21304   6.551  12.357  13.018 -0.0674 -0.0366  0.2194
 4831W        W21305  11.573   4.279   0.439 -0.4226  0.1807 -0.0078
 4832W        W21306   9.710  14.204   4.269 -0.0324  0.0872 -0.2492
 4833W        W21307  13.450  18.011  13.624 -0.0990  0.4541 -0.0424
 4834W        W21308  17.796   0.019   0.040  0.1612 -0.2761  0.2379
 4835W        W21309   2.842   6.581   1.101  0.1893  0.1184 -0.1848
 4836W        W21310  12.024  14.176   2.173  0.1559 -0.0388  0.3857
 4837W        W21311   7.063   5.843  11.882  0.0418  0.0389  0.0704
 4838W        W21312  17.612   4.539   3.358 -0.0099  0.1961 -0.0652
 4839W        W21313  18.624  13.484   3.364 -0.1707 -0.0641  0.2632
 4840W        W21314   3.395  14.708   5.796 -0.0394 -0.2774  0.0912
 4841W        W21315  12.762  13.576   3.312 -0.3580 -0.0641 -0.0893
 4842W        W21316  17.371   6.118   9.748 -0.1303 -0.0080 -0.2741
 4843W        W21317   9.575  17.362   1.098  0.0529  0.2898 -0.3119
 4844W        W21318   3.743   3.468  11.408 -0.1073  0.0643 -0.0611
 4845W        W21319   0.565  17.231  14.063 -0.0284  0.0774  0.3237
 4846W        W21320  12.112   1.835  10.328  0.3684  0.1937  0.1138
 4847W        W21321  18.360  17.469   4.632  0.1698  0.1183  0.0119
 4848W        W21322   8.447   4.246  11.481  0.0301 -0.0318  0.2284
 4849W        W21323   4.767   4.155   4.620  0.0248 -0.0518  0.1106
 4850W        W21324  11.501  16.591   2.871 -0.1295  0.1146  0.2121
 4851W        W21325   4.196   4.951  11.818  0.1813  0.0528 -0.1344
 4852W        W21326   0.012  10.813   1.575 -0.0912  0.0614 -0.2952
 4853W        W21327  11.569  11.230   1.240 -0.0874  0.2482 -0.0223
 4854W        W21328   1.199  16.757  12.210 -0.0734 -0.2996  0.1098
 4855W        W21329  14.990   9.653  14.619 -0.0225 -0.7664 -0.1783
 4856W        W21330   9.782   2.941  11.687  0.0252  0.1719  0.2179
 4857W        W21331   5.720   6.538  11.199 -0.1259 -0.2617 -0.0090
 4858W        W21332   5.142   9.234  10.360  0.2923 -0.1887  0.4550
 4859W        W21333   3.523  10.677   1.528 -0.0849  0.0418 -0.1066
 4860W        W21334   2.327   8.315   2.478 -0.0175  0.0462 -0.1575
 4861W        W21335   5.870   6.868  10.814 -0.1296  0.0608 -0.1217
 4862W        W21336  15.468  17.822  14.612  0.1506  0.0561  0.0982
 4863W        W21337  17.803   1.506  13.859 -0.1413  0.1291 -0.0768
 4864W        W21338   7.314   8.441   0.544 -0.4318 -0.0428  0.0283
 4865W        W21339   0.717  11.476  11.634  0.1889 -0.1891  0.2847
 4866W        W21340   4.432   9.089   2.077  0.0187  0.2379 -0.4003
 4867W        W21341   0.409   1.573  14.044  0.3753  0.1445  0.0514
 4868W        W21342  15.572   9.799  12.832  0.1391 -0.2587 -0.2207
 4869W        W21343  10.580   2.892  11.013 -0.0959  0.1604  0.2199
 4870W        W21344   7.822   3.345  12.044  0.0756 -0.2076 -0.2154
 4871W        W21345  19.380  17.494  12.117 -0.0742 -0.0532 -0.1996
 4872W        W21346  17.319  11.333   3.260 -0.0705 -0.0419  0.1724
 4873W        W21347  12.223  16.325   3.627 -0.3433  0.1740 -0.1610
 4874W        W21348  17.182   4.121  13.340 -0.0712 -0.3042  0.0441
 4875W        W21349  16.075   9.495  14.517  0.0514  0.0434  0.0162
 4876W        W21350   4.432  14.417  12.764  0.1199  0.0417 -0.1094
 4877W        W21351   6.088  18.729  13.923 -0.0398 -0.2866 -0.0598
 4878W        W21352   9.847   5.920  13.453  0.1677 -0.0319 -0.2347
 4879W        W21353  11.680   1.742   3.713 -0.1213 -0.2608  0.0959
 4880W        W21354   4.038   6.961   2.516 -0.0482 -0.2289 -0.0433
 4881W        W21355  10.565   8.607   5.034  0.1154  0.3314 -0.0291
 4882W        W21356   0.942  14.636   3.699  0.1220 -0.0934 -0.0933
 4883W        W21357   7.299   1.458  14.385 -0.0565  0.1419  0.2643
 4884W        W21358  16.542   5.166  13.196 -0.3867  0.1535 -0.1118
 4885W        W21359  11.610  10.744   3.480 -0.1220  0.4263 -0.2993
 4886W        W21360   4.869  14.689  14.666  0.2286  0.0266 -0.0370
 4887W        W21361  15.709  10.852   4.017 -0.0478 -0.0403 -0.0065
 4888W        W21362   6.192  18.417  14.740 -0.2019 -0.0459 -0.0464
 4889W        W21363   5.931   5.322   5.051 -0.1147 -0.2202  0.1019
 4890W        W21364  14.688   1.886   4.180  0.0289  0.0824  0.0076
 4891W        W21365   1.731   4.522   0.471 -0.1295  0.2584  0.1634
 4892W        W21366  10.712  10.456   1.565  0.0524 -0.1465 -0.1203
 4893W        W21367   6.051  16.471   3.157 -0.0966  0.1433  0.0047
 4894W        W21368  13.534   2.959   4.758 -0.1238  0.0862 -0.0220
 4895W        W21369  11.706   3.752  14.693 -0.4603  0.1413  0.1156
 4896W        W21370   8.193  14.254   5.336 -0.1432  0.0327  0.0833
 4897W        W21371   1.797   2.255   3.000  0.1955  0.0612 -0.0949
 4898W        W21372   2.259  10.276   2.703  0.3595 -0.0176 -0.0319
 4899W        W21373   0.206  17.128   2.386 -0.0914  0.0560  0.0440
 4900W        W21374  18.029   3.118   0.996 -0.2891  0.0550 -0.0181
 4901W        W21375   4.758   8.576  14.335 -0.2281 -0.0519 -0.3457
 4902W        W21376  11.918  13.023  11.657 -0.0999 -0.0492 -0.2958
 4903W        W21377  10.254  16.887  11.984  0.2279  0.1219 -0.0507
 4904W        W21378   0.721  15.808  13.178 -0.1231  0.1781 -0.1662
 4905W        W21379   4.653   7.042  11.723  0.3755  0.0102 -0.1939
 4906W        W21380   6.357  12.241  12.587 -0.0061 -0.1609  0.0149
 4907W        W21381   5.811   2.317   3.089  0.0313 -0.0623 -0.1716
 4908W        W21382   5.258   4.745  13.557 -0.0633 -0.3662  0.2285
 4909W        W21383   2.843  19.089   3.362 -0.0164  0.0479 -0.4129
 4910W        W21384   9.487  12.799   4.610 -0.0088 -0.1871  0.2378
 4911W        W21385   5.902   6.332   2.577 -0.1638  0.1111  0.0330
 4912W        W21386   4.713   3.875  10.273 -0.2163 -0.0678  0.0261
 4913W        W21387  14.444   8.909   4.426 -0.1788  0.0713  0.0386
 4914W        W21388   7.554  14.794   0.567 -0.2228 -0.0999 -0.1330
 4915W        W21389  10.371  12.575   0.737  0.0332 -0.0559 -0.1651
 4916W        W21390   5.947  10.574   4.753  0.0588  0.0532  0.5190
 4917W        W21391   5.211   5.858   1.405  0.1460 -0.0636  0.2150
 4918W        W21392   5.496  18.965   3.034  0.4083  0.1565  0.1591
 4919W        W21393   9.615  15.999   1.115 -0.0244  0.3102  0.2635
 4920W        W21394  17.527   7.778  11.859 -0.1206  0.1529 -0.3069
 4921W        W21395  13.827   0.034   1.131 -0.2413  0.2734  0.2048
 4922W        W21396  16.127  11.810   2.908  0.3159  0.0453  0.1682
 4923W        W21397  13.535  11.119  12.423 -0.0916 -0.2669 -0.0578
 4924W        W21398  10.581   8.961  10.637 -0.2605 -0.1224  0.1350
 4925W        W21399  13.995   5.069   2.327 -0.1508  0.1330 -0.0687
 4926W        W21400   6.826  17.974  11.174 -0.2122  0.2671 -0.1501
 4927W        W21401  13.329   5.832   3.106  0.1836 -0.0008 -0.1008
 4928W        W21402   1.475   3.872   1.623  0.3113 -0.0580  0.1398
 4929W        W21403  17.359  11.512   0.246  0.0333  0.0464 -0.0199
 4930W        W21404  13.604   7.316   1.944  0.1143  0.1161 -0.1457
 4931W        W21405   7.827   4.828  10.903  0.0468 -0.2085 -0.2575
 4932W        W21406  15.457   7.808   3.238 -0.1611 -0.0262  0.0493
 4933W        W21407  12.775   1.352   5.652 -0.1408 -0.2613  0.3350
 4934W        W21408   1.113   8.238   0.889  0.1146 -0.1408 -0.3736
 4935W        W21409   6.709  10.811  10.949  0.0796  0.1367 -0.1249
 4936W        W21410   2.922   3.096  13.031  0.1094 -0.2353  0.0431
 4937W        W21411   9.574   5.457   0.861 -0.0214  0.1400  0.1948
 4938W        W21412  12.557  15.422   0.804  0.0390 -0.1803  0.1811
 4939W        W21413  11.299   8.610  14.137  0.3618 -0.1254  0.1405
 4940W        W21414   6.036  11.470  11.282  0.1675 -0.0931 -0.0544
 4941W        W21415   0.820  10.010  10.877  0.0167 -0.2440  0.2472
 4942W        W21416   8.030  11.879   0.225 -0.6653  0.1815 -0.2009
 4943W        W21417   2.743   4.589  13.003 -0.1097 -0.0903 -0.2390
 4944W        W21418   1.755   5.528   2.591  0.0638 -0.3175 -0.0080
 4945W        W21419   8.061   7.746  12.990  0.0281 -0.1588  0.1410
 4946W        W21420   8.121  10.376  12.729 -0.0841  0.2966  0.3140
 4947W        W21421   8.737  14.890   9.944  0.1072 -0.0602 -0.1436
 4948W        W21422   0.730   2.035   3.255 -0.3530  0.0895  0.3302
 4949W        W21423  18.770   3.644  11.117  0.0622 -0.1596  0.1450
 4950W        W21424   3.955  16.215   3.574  0.3679 -0.1220  0.3857
 4951W        W21425   3.797   7.606   3.269  0.2144 -0.0594 -0.0995
 4952W        W21426  11.087   6.293  12.452 -0.0574  0.0596 -0.3054
 4953W        W21427   9.912  17.548   4.057  0.4592 -0.1394  0.0167
 4954W        W21428  12.578   6.436   3.344 -0.3323  0.0289 -0.1337
 4955W        W21429   5.387   2.360   0.959  0.2281 -0.2839  0.0712
 4956W        W21430  10.570   7.558  10.752 -0.1573  0.1124 -0.0525
 4957W        W21431  11.695  16.895   4.755 -0.2300  0.0495 -0.0198
 4958W        W21432  15.230   3.511  12.671  0.3449 -0.3440  0.0325
 4959W        W21433   8.493  19.126  12.369  0.0623 -0.0636  0.1601
 4960W        W21434   0.910  16.639  11.459  0.1398 -0.1059  0.0830
 4961W        W21435  11.982   1.239  14.799  0.0606 -0.0640  0.0880
 4962W        W21436  17.386   5.744  11.639 -0.0669  0.1739 -0.1328
 4963W        W21437   3.041   7.765  11.764  0.0949  0.1162  0.0017
 4964W        W21438   8.815  10.117  12.034 -0.0901  0.1563 -0.0493
 4965W        W21439  11.546   1.391   0.147  0.0036 -0.1229  0.0118
 4966W        W21440  11.191  17.200  14.075  0.0925 -0.0691  0.0724
 4967W        W21441   4.916  12.060  11.948 -0.1588  0.0333 -0.0161
 4968W        W21442   9.368  19.235   4.939  0.1443  0.0272  0.0778
 4969W        W21443  13.184   4.507   3.296  0.1717 -0.2641 -0.0968
 4970W        W21444   0.906   5.468   3.906  0.0672  0.1045  0.1586
 4971W        W21445  17.821   0.611   5.158  0.0460  0.0243  0.0751
 4972W        W21446   4.290   4.438   3.550  0.3261 -0.0572  0.0984
 4973W        W21447  10.596   6.451  12.729  0.2135 -0.0987 -0.0868
 4974W        W21448   9.228   2.163  14.341 -0.1822 -0.2700  0.0730
 4975W        W21449  19.012   3.005  12.439 -0.0924 -0.3814 -0.0819
 4976W        W21450  17.672  17.836   1.754 -0.3132  0.0572 -0.0817
 4977W        W21451   2.282   7.623  14.864  0.0888 -0.1421 -0.4279
 4978W        W21452   9.132  13.215   0.074 -0.0102 -0.1358 -0.0785
 4979W        W21453  10.279  16.548   2.308 -0.2132 -0.0692  0.2025
 4980W        W21454   0.466  11.885  12.608 -0.0324  0.1585  0.0909
 4981W        W21455   5.196   9.474  13.151  0.1717 -0.0016  0.1533
 4982W        W21456  16.046   9.189   2.721 -0.0354  0.0847  0.2050
 4983W        W21457  11.260  12.343   0.508 -0.0614  0.0444  0.2265
 4984W        W21458   8.005  15.341   3.644 -0.0903  0.1316  0.1612
 4985W        W21459  11.917   9.011  11.856 -0.0183 -0.0156  0.2707
 4986W        W21460  18.436   1.670   5.784  0.0689  0.0495 -0.2224
 4987W        W21461   5.514  11.434  14.389  0.0580 -0.2828  0.4835
 4988W        W21462   1.198   1.523  10.725  0.2661  0.0049 -0.0521
 4989W        W21463   1.728  10.039   2.732  0.3526 -0.2883  0.2456
 4990W        W21464  14.289  17.867  12.283  0.0909 -0.3933  0.1948
 4991W        W21465   9.330   5.985  13.847  0.0965 -0.3590 -0.1882
 4992W        W21466  10.180   4.009   0.511 -0.2401 -0.0188  0.6266
 4993W        W21467  16.133   9.398  10.630 -0.1592 -0.1271 -0.0994
 4994W        W21468   7.188   0.411   2.377 -0.3671  0.1342  0.0149
 4995W        W21469   3.587  16.990   1.395 -0.0420 -0.1142 -0.1639
 4996W        W21470  16.173  13.490   3.353  0.0098 -0.0542  0.0206
 4997W        W21471  13.721   9.542   4.769 -0.1384 -0.0022  0.1762
 4998W        W21472  13.212   4.727   0.742  0.1146 -0.5061 -0.2919
 4999W        W21473   9.105   9.799   3.425  0.2156  0.0560 -0.0134
 5000W        W21474   8.780   2.607   3.645  0.2969 -0.0204 -0.0911
 5001W        W21475  15.220   5.711   5.213 -0.0427  0.1426  0.1689
 5002W        W21476   5.110  10.641   0.503 -0.0002 -0.1302 -0.4881
 5003W        W21477   6.099  18.914  12.935 -0.1491 -0.1139  0.1227
 5004W        W21478   5.308  10.779   5.137  0.3073  0.2375 -0.4057
 5005W        W21479   0.747   8.770  10.241 -0.1689 -0.0724  0.2816
 5006W        W21480  10.222  11.571   2.546  0.1226  0.0270  0.1339
 5007W        W21481   9.084   8.805  11.893  0.1034  0.0913  0.2576
 5008W        W21482   5.458  15.602   2.199 -0.1001  0.0075  0.1283
 5009W        W21483  11.178   4.586  13.584 -0.1698  0.1444 -0.1404
 5010W        W21484  10.753   6.620   0.331 -0.2584  0.0529  0.1531
 5011W        W21485  17.886  10.542  14.143  0.2918  0.0732  0.6229
 5012W        W21486  17.642   7.402   2.466  0.4250 -0.2337 -0.1185
 5013W        W21487  11.445   6.559  10.790 -0.0502  0.2456 -0.2911
 5014W        W21488  17.863  12.764  13.437 -0.1716  0.2060  0.0180
 5015W        W21489   6.786  13.007   0.886  0.0082  0.0176  0.0304
 5016W        W21490   9.236  10.656  14.261  0.1121 -0.0941  0.0056
 5017W        W21491   1.322   7.952  13.983 -0.0919 -0.2527  0.0723
 5018W        W21492  17.549  16.401   4.985 -0.1079  0.2961 -0.2704
 5019W        W21493   2.670  15.566   4.590  0.0547  0.1551  0.1052
 5020W        W21494   8.848  17.279   4.258 -0.2623  0.1761  0.0122
 5021W        W21495  10.880   9.138  10.216 -0.2040 -0.2043 -0.0221
 5022W        W21496   4.276  13.262  13.518  0.1164 -0.0626  0.0568
 5023W        W21497  10.515   1.441   2.672 -0.0162  0.3981  0.2127
 5024W        W21498  14.066  14.895   3.762 -0.1385  0.1684 -0.1418
 5025W        W21499   4.066  18.340  14.353  0.1204 -0.0473  0.4607
 5026W        W21500   3.678   7.032   1.588  0.1458  0.4845  0.1183
 5027W        W21501  18.452  19.301   4.023  0.1575  0.0819 -0.2714
 5028W        W21502   7.249   3.317  11.772  0.0915 -0.1400  0.0436
 5029W        W21503   9.872   6.705  13.986  0.2645  0.0488 -0.2212
 5030W        W21504   2.913  19.352  11.532  0.2135 -0.1914  0.4277
 5031W        W21505  15.025  18.842   3.003  0.2950 -0.2412 -0.0651
 5032W        W21506   7.031   3.164  12.971 -0.1033 -0.1512  0.0548
 5033W        W21507   0.070  17.178  14.203  0.0916  0.1550 -0.2721
 5034W        W21508  16.916  18.388  13.737 -0.3958 -0.0917 -0.1116
 5035W        W21509   5.393  18.780  12.570  0.0603  0.1378 -0.1139
 5036W        W21510  18.872   4.784  12.075  0.0587 -0.2871  0.0987
 5037W        W21511   0.587   3.284   3.852 -0.3976 -0.2222  0.1134
 5038W        W21512   8.249  13.513   1.912  0.1397 -0.0992  0.3041
 5039W        W21513   8.295  14.619  14.622 -0.0151 -0.2328 -0.2810
 5040W        W21514   8.268   2.290   9.604  0.1548 -0.4418  0.0083
 5041W        W21515  13.979   9.457  13.986  0.0576  0.5320  0.3499
 5042W        W21516   7.151  12.806   3.635  0.1042  0.1381 -0.1698
 5043W        W21517   1.967   7.985  13.851 -0.0528  0.0709  0.0579
 5044W        W21518   1.334  18.880  11.715 -0.2389  0.1663  0.1917
 5045W        W21519   1.022   1.588   3.278 -0.4159 -0.1269 -0.1513
 5046W        W21520   0.003   4.568   1.883 -0.1436  0.0472  0.0140
 5047W        W21521   2.843  14.741   4.233 -0.1452  0.0062 -0.1304
 5048W        W21522  13.714   2.884   0.122 -0.4265 -0.2587  0.0851
 5049W        W21523  17.841   6.768   3.229  0.0675 -0.0089  0.0634
 5050W        W21524  13.353   0.754   2.448  0.0713 -0.0727 -0.2547
 5051W        W21525   7.731  16.539   3.323 -0.0139  0.3754 -0.1251
 5052W        W21526   5.678   0.543   4.797 -0.3385  0.1362  0.0894
 5053W        W21527  18.629  12.263   1.278  0.1504 -0.3011  0.0134
 5054W        W21528   2.302   6.277   4.514 -0.3151 -0.2410  0.0824
 5055W        W21529  15.638  19.146  10.879 -0.1968  0.1899 -0.0594
 5056W        W21530   7.250  16.890   4.429  0.3171 -0.3543  0.1515
 5057W        W21531   0.793  14.436  12.007  0.0011  0.0408 -0.3469
 5058W        W21532   4.323  15.324  14.167  0.0190 -0.0230 -0.2139
 5059W        W21533  16.729  12.098  12.230  0.0759  0.0059 -0.1585
 5060W        W21534   5.006   0.613  10.397 -0.0092 -0.0077 -0.1702
 5061W        W21535   9.086   1.168   2.611  0.4136  0.1446  0.0255
 5062W        W21536  17.809  11.933  11.158  0.0213 -0.0262  0.0443
 5063W        W21537  17.459  14.802   1.456  0.2365  0.4643  0.2066
 5064W        W21538   4.159   5.237  11.383 -0.1429 -0.0274  0.1605
 5065W        W21539  15.567   8.549  13.597  0.0051 -0.3451 -0.2198
 5066W        W21540   3.517  10.692  14.756 -0.2261  0.1649  0.0646
 5067W        W21541  17.202   2.185   0.562 -0.1890 -0.2147 -0.0633
 5068W        W21542   3.881   7.643  13.160 -0.0019 -0.0266 -0.0991
 5069W        W21543   4.380  14.834   4.903  0.0758 -0.3120 -0.2698
 5070W        W21544   7.306   3.635  12.139  0.2507 -0.0024  0.3254
 5071W        W21545   2.946  11.340   3.976  0.0833  0.0636 -0.0942
 5072W        W21546  17.474   9.797   3.521  0.0890  0.0311  0.0515
 5073W        W21547  18.695  10.175   2.311  0.4009  0.2254  0.0059
 5074W        W21548   7.286   0.116  10.428 -0.1377 -0.0388  0.0535
 5075W        W21549   9.704  14.449  12.146  0.1705  0.0924  0.0094
 5076W        W21550   6.729  16.680   1.533  0.4148 -0.0842  0.1544
 5077W        W21551  17.823  10.145   3.570 -0.2109 -0.3582 -0.1052
 5078W        W21552  16.073   4.496  13.457  0.1863 -0.0053 -0.1865
 5079W        W21553   7.756  11.140   4.482  0.0600  0.0735 -0.1496
 5080W        W21554   5.809  12.314   4.177 -0.2230  0.3530 -0.0257
 5081W        W21555  12.678  17.640   3.886  0.3075 -0.2908 -0.1772
 5082W        W21556   0.747  10.795   0.604 -0.5378  0.0223 -0.0489
 5083W        W21557  15.913  17.982  14.402  0.2288  0.0201  0.0591
 5084W        W21558   8.209  10.851  10.068 -0.1557 -0.0317 -0.1266
 5085W        W21559  11.711  15.085   0.277  0.0645 -0.3130 -0.0260
 5086W        W21560  11.347   0.226   1.289  0.1952 -0.1185  0.2020
 5087W        W21561  10.214  18.851  10.633 -0.3959  0.2952  0.2742
 5088W        W21562  18.740   7.976   4.396 -0.3320 -0.1405 -0.0827
 5089W        W21563  17.479   9.142  13.624 -0.0879  0.2333 -0.0368
 5090W        W21564  18.833  10.158  14.305  0.1119 -0.1036  0.0030
 5091W        W21565  12.630  11.155   4.628 -0.0307 -0.1506  0.1916
 5092W        W21566  16.450  16.746  11.950 -0.2351  0.0121  0.0665
 5093W        W21567  11.935  16.979  13.344 -0.2871  0.0090 -0.1460
 5094W        W21568  17.122   1.982  12.733 -0.1642  0.2059 -0.0301
 5095W        W21569  16.116   5.892   4.989 -0.0008 -0.0493  0.2894
 5096W        W21570   1.104  16.814   2.536 -0.1500 -0.1524 -0.0655
 5097W        W21571  10.627  15.975  12.420 -0.0975  0.1246  0.0007
 5098W        W21572   2.753   3.329  13.474 -0.1474  0.0114  0.0653
 5099W        W21573  10.603  10.833  14.685 -0.1077  0.4195  0.3551
 5100W        W21574  18.447   1.469   4.947 -0.1207 -0.1915 -0.1688
 5101W        W21575   9.368   5.070  13.542 -0.1487  0.2236 -0.0511
 5102W        W21576   5.621   2.266  14.227  0.0046 -0.0041  0.0962
 5103W        W21577  12.435  10.324   4.000  0.2306  0.0125 -0.1144
 5104W        W21578   6.678  11.240   3.266  0.2745  0.0387  0.1413
 5105W        W21579  16.494   6.480   3.637 -0.1023  0.0210 -0.3507
 5106W        W21580  11.167   4.310   4.357  0.0822 -0.0792 -0.1506
 5107W        W21581   2.315  13.411   5.351 -0.1254  0.1836 -0.0252
 5108W        W21582  12.204  12.077   4.642 -0.0744  0.0966 -0.0644
 5109W        W21583   2.678  15.822  13.654 -0.0245 -0.2378  0.3530
 5110W        W21584   1.011  12.319   0.638 -0.3373 -0.2125  0.2749
 5111W        W21585   9.102  15.771  13.494  0.1073 -0.0358 -0.4243
 5112W        W21586  10.015  17.133  14.881 -0.1887 -0.2228  0.1800
 5113W        W21587   6.844   0.192  14.037 -0.1505  0.1024 -0.2084
 5114W        W21588  11.699   1.336  13.883  0.2823  0.1782  0.1063
 5115W        W21589   2.959   1.765  12.239  0.2326  0.0460 -0.0545
 5116W        W21590  14.376   9.414   1.895  0.2096  0.5203 -0.0286
 5117W        W21591   4.236  13.933  11.814 -0.0138  0.0631  0.2429
 5118W        W21592   9.810   3.757  12.791 -0.0771  0.1898  0.1809
 5119W        W21593  10.403  13.853   5.471 -0.0436 -0.1509  0.0652
 5120W        W21594   6.794   7.199   3.091  0.0334 -0.0823  0.1675
 5121W        W21595   9.063   7.206  11.877 -0.2170  0.4334  0.4522
 5122W        W21596  13.169  14.433   0.417 -0.2866  0.0957 -0.1875
 5123W        W21597   9.218   1.595   8.582  0.0476  0.1441  0.0572
 5124W        W21598   1.990  10.707  14.344 -0.1947 -0.1422 -0.0827
 5125W        W21599  18.229   0.078   5.783 -0.0493  0.0071  0.0682
 5126W        W21600  17.448  12.723  12.710  0.1924 -0.2090 -0.1405
 5127W        W21601  15.745   4.168   2.336 -0.1611 -0.0194  0.0514
 5128W        W21602   3.667  18.175  11.864  0.0457  0.2017  0.2985
 5129W        W21603  15.729   2.289   0.444  0.4019  0.0990  0.2574
 5130W        W21604   8.585   6.508   2.606  0.1999  0.1453  0.2249
 5131W        W21605  14.799   6.407   0.581 -0.2243 -0.0830  0.0985
 5132W        W21606   7.691  18.671   0.047 -0.2246  0.0053 -0.0756
 5133W        W21607  18.532   7.014   3.424 -0.2603  0.4498 -0.2948
 5134W        W21608   3.229   2.039   0.041  0.0541  0.0488 -0.0836
 5135W        W21609   5.509  12.095  12.867 -0.0304  0.0291 -0.1302
 5136W        W21610   4.117   6.342   2.442  0.0028  0.1429  0.1535
 5137W        W21611  10.984  14.171   2.292  0.1496  0.3085  0.2919
 5138W        W21612   1.923  15.108   0.896 -0.1117 -0.0027  0.0213
 5139W        W21613   0.394   8.831   1.547  0.0930 -0.1183  0.1450
 5140W        W21614  13.873  13.437  10.551  0.1408  0.1357  0.0210
 5141W        W21615  12.579   1.334   3.545  0.2727 -0.0206 -0.0438
 5142W        W21616   1.750  14.114   5.371  0.1145 -0.3456  0.1127
 5143W        W21617   0.314  17.914   4.576  0.1076 -0.0927  0.1059
 5144W        W21618   5.901  13.085   4.302 -0.1924 -0.0086 -0.0223
 5145W        W21619   2.742   7.658   4.162  0.0908  0.0469 -0.0057
 5146W        W21620   9.577  18.742   2.527 -0.1776 -0.0233  0.0561
 5147W        W21621   8.386  10.861  12.704  0.0211 -0.0779 -0.5656
 5148W        W21622   1.769  19.197   4.764 -0.5108 -0.0577  0.3337
 5149W        W21623  17.058   7.309   0.897 -0.1102 -0.1456  0.1768
 5150W        W21624   9.106   1.147   4.107 -0.1293 -0.1481  0.0673
 5151W        W21625   2.894   6.833   2.003 -0.4849 -0.0064 -0.1570
 5152W        W21626  12.691  13.051   3.609  0.1011 -0.0879 -0.3756
 5153W        W21627  13.778  12.521  13.345 -0.2185 -0.3144 -0.0185
 5154W        W21628   6.552   5.692  11.897  0.1241 -0.1740 -0.0385
 5155W        W21629  14.143  12.000  14.858  0.2817 -0.1406  0.2581
 5156W        W21630  13.973  14.020   4.444  0.1127  0.0465  0.4332
 5157W        W21631   2.613   3.072   0.995  0.2333 -0.3189 -0.2090
 5158W        W21632  16.302  18.509   1.990 -0.1376 -0.1870 -0.0042
 5159W        W21633   2.834   6.201   2.147 -0.0674 -0.3803  0.3111
 5160W        W21634  18.440   7.539   1.790 -0.1827  0.1465 -0.0384
 5161W        W21635  10.556   4.328  14.385 -0.1519  0.0351 -0.1763
 5162W        W21636   2.038   9.850   4.858 -0.1229 -0.0694 -0.0226
 5163W        W21637   5.187  17.533  14.822  0.0458 -0.1914 -0.1250
 5164W        W21638   0.203   0.587   0.627 -0.1704 -0.1846 -0.0220
 5165W        W21639   1.939   3.710  12.180 -0.2513  0.2148 -0.1748
 5166W        W21640  15.749   5.521   4.906  0.0220  0.3258  0.0384
 5167W        W21641  15.663   4.964  13.041 -0.2475  0.2928 -0.0830
 5168W        W21642  11.707   9.072  10.687 -0.1880  0.2008 -0.1085
 5169W        W21643  15.486   4.234   1.878 -0.1387 -0.2326  0.0149
 5170W        W21644   0.684   0.441   4.086 -0.1262 -0.0204 -0.1019
 5171W        W21645   0.042  10.342  10.760  0.2628  0.0928 -0.0078
 5172W        W21646   9.505   0.053   4.047  0.1494  0.1328 -0.1783
 5173W        W21647  14.664  11.608   4.900 -0.1009  0.0498 -0.1044
 5174W        W21648   6.756   0.179  10.366  0.1983  0.1665 -0.1216
 5175W        W21649   3.319   2.742   2.673  0.1117  0.2944 -0.1139
 5176W        W21650  17.243   5.181  11.825  0.2605 -0.0107  0.0176
 5177W        W21651  17.519  12.122   1.803  0.2335  0.1985  0.0767
 5178W        W21652  18.573  11.798   2.822  0.1642  0.0773 -0.0637
 5179W        W21653  12.364  10.775  11.994 -0.0627 -0.0191 -0.0834
 5180W        W21654  18.386  18.194  14.132 -0.2788  0.0609 -0.0407
 5181W        W21655   9.122  18.354  14.753 -0.2319 -0.2062 -0.3275
 5182W        W21656   4.196   0.943   2.636  0.1780  0.1494  0.2021
 5183W        W21657  15.522  17.590  11.690  0.0716  0.0351 -0.4642
 5184W        W21658  12.255  14.875   1.597  0.4824 -0.2973  0.1927
 5185W        W21659  15.323   3.070  11.280  0.2109 -0.0422  0.2261
 5186W        W21660   9.516   7.499   0.761  0.2508 -0.3032 -0.1064
 5187W        W21661   0.536   3.016   2.641 -0.0418  0.4237 -0.2266
 5188W        W21662   2.297   1.569  13.309 -0.1818  0.2555 -0.0905
 5189W        W21663  12.584   2.148  14.250 -0.0301 -0.3053 -0.1526
 5190W        W21664   4.396   5.921   4.210 -0.0111  0.0405 -0.1647
 5191W        W21665  15.546  16.127  14.878 -0.2369  0.1902 -0.1465
 5192W        W21666   7.557   3.819   9.574  0.1416 -0.0082 -0.2973
 5193W        W21667  12.599  12.033  14.812  0.2725  0.2765  0.0297
 5194W        W21668   4.221  11.719   1.530  0.2215 -0.2648 -0.1623
 5195W        W21669   1.216   5.320  12.204 -0.0631 -0.0053  0.2815
 5196W        W21670   4.626  15.218  11.361 -0.0281 -0.1487  0.0632
 5197W        W21671   2.516  18.727  11.714  0.2715  0.1501 -0.1030
 5198W        W21672  19.024   5.077   0.031  0.0460  0.0290  0.1549
 5199W        W21673  11.486   4.552  14.828  0.1963 -0.0729  0.0596
 5200W        W21674   6.589   1.860  13.460  0.1254  0.1673  0.0303
 5201W        W21675  18.629  17.372   4.184 -0.0740  0.4538  0.0345
 5202W        W21676  11.116  11.737  10.538 -0.0098 -0.1593 -0.0367
 5203W        W21677  16.857  11.308   3.463  0.0622  0.0014  0.0735
 5204W        W21678   2.167   1.609  12.268 -0.0075 -0.2301 -0.2460
 5205W        W21679   4.515   2.004   1.812 -0.0897 -0.0390  0.1717
 5206W        W21680  11.567  13.055  13.186  0.0201  0.0359  0.2312
 5207W        W21681  12.113  12.312  11.894  0.1679  0.2772 -0.2531
 5208W        W21682  14.167   4.797   4.967 -0.2379  0.0323  0.2729
 5209W        W21683  11.525   7.356   0.216 -0.0024 -0.2357 -0.2318
 5210W        W21684   7.643   4.017  10.701  0.0360 -0.1984 -0.2333
 5211W        W21685   2.210  14.906   2.568 -0.0704 -0.0989  0.2135
 5212W        W21686   5.734   9.520  13.905  0.1313  0.0985 -0.1754
 5213W        W21687  15.645   6.161   9.451  0.1612  0.2080  0.1346
 5214W        W21688  17.736   1.235  10.992 -0.1624  0.1034 -0.3225
 5215W        W21689  12.185   2.012   3.132 -0.3361  0.0552  0.3764
 5216W        W21690   2.312   6.179   5.010  0.1979  0.1862  0.3557
 5217W        W21691  12.923  18.055   2.120 -0.1063 -0.0143 -0.1720
 5218W        W21692  16.550  14.700  11.884  0.4877 -0.2096 -0.3287
 5219W        W21693  17.774  10.972   4.036  0.1218  0.1928 -0.2565
 5220W        W21694   4.736   0.163  12.831 -0.0608 -0.0463  0.0934
 5221W        W21695   7.921  14.788   2.252  0.0496  0.3409 -0.0121
 5222W        W21696   8.968   8.814   0.360 -0.2811  0.0020  0.1359
 5223W        W21697  18.736  14.193  12.355 -0.0418  0.0708 -0.3287
 5224W        W21698  15.820   0.665  12.928 -0.1612  0.5676  0.2427
 5225W        W21699   0.117   5.744   4.915 -0.2100  0.1247 -0.3524
 5226W        W21700  15.907  12.068   4.498  0.1917 -0.1217  0.0857
 5227W        W21701   3.955   7.488  12.669  0.0723  0.0109 -0.1865
 5228W        W21702   1.809  17.494   2.655 -0.5894  0.4306  0.3117
 5229W        W21703   4.185  15.442  11.570 -0.0443  0.0082  0.0793
 5230W        W21704   4.073  13.543   2.983 -0.2482 -0.1173 -0.1020
 5231W        W21705   0.866  16.628   5.343  0.0189  0.1100 -0.1265
 5232W        W21706  16.099   9.662   0.660  0.1205  0.0018 -0.0607
 5233W        W21707  14.472   4.565   1.032 -0.3145  0.0678  0.3279
 5234W        W21708   4.409   3.058   2.715  0.4176 -0.3462  0.0427
 5235W        W21709   6.943  15.898  13.310  0.1964  0.0360  0.3955
 5236W        W21710  13.562   5.653  13.113  0.0153 -0.3582  0.1222
 5237W        W21711  10.057   6.370  12.719 -0.0243  0.0627  0.2393
 5238W        W21712   8.884  16.731   4.274 -0.0431 -0.4015 -0.0992
 5239W        W21713  16.022   3.714  13.218  0.0778 -0.2713  0.1667
 5240W        W21714   5.497  14.576   3.283 -0.2527 -0.1983 -0.1884
 5241W        W21715  10.038   0.576  13.989  0.0562  0.2561  0.0695
 5242W        W21716   2.141  13.132  10.676  0.4865 -0.0388 -0.1597
 5243W        W21717   5.332  16.598   3.703 -0.0751 -0.2031  0.0962
 5244W        W21718   7.342  11.855  12.447  0.0838  0.1334  0.2954
 5245W        W21719  13.000  18.794   0.854 -0.1718 -0.0720 -0.2302
 5246W        W21720   3.002  18.307   4.651  0.0624 -0.1268  0.3546
 5247W        W21721   1.803   0.738  12.763  0.0916 -0.0344  0.0677
 5248W        W21722  16.227  17.901   4.057 -0.1672 -0.2926  0.0749
 5249W        W21723  10.562  15.615   1.315 -0.0952  0.0062 -0.0198
 5250W        W21724  11.047   1.501   2.549  0.2014 -0.0776 -0.1133
 5251W        W21725   2.768  18.845   2.077  0.1434  0.3609 -0.3809
 5252W        W21726   1.428   2.842  13.496  0.1848 -0.0601  0.5830
 5253W        W21727   7.203  19.373  14.302 -0.0970 -0.0965  0.1462
 5254W        W21728  17.120  13.616  11.104  0.0538 -0.0065  0.0502
 5255W        W21729  15.247   5.791   4.724  0.0087  0.0698  0.1407
 5256W        W21730  11.797   2.525   4.425 -0.0036  0.0360 -0.1909
 5257W        W21731   3.573   1.004   3.507 -0.2782  0.3409 -0.0010
 5258W        W21732  15.686  19.100  12.942 -0.0778  0.1603  0.3157
 5259W        W21733   8.890   1.358  11.804  0.0856 -0.1395  0.1600
 5260W        W21734  16.977   6.059   2.888 -0.3930  0.0768  0.0597
 5261W        W21735  17.229   8.040   3.556  0.0264 -0.2055  0.4615
 5262W        W21736   0.298  16.125   4.416 -0.1094  0.1349 -0.2402
 5263W        W21737   2.769   5.580  14.582  0.1771  0.1251 -0.2042
 5264W        W21738  12.251  11.552   4.633 -0.1373  0.0346  0.0597
 5265W        W21739   5.609  12.153  14.676  0.0968 -0.1857  0.0326
 5266W        W21740  10.604   6.879   2.461  0.1609 -0.1798 -0.0181
 5267W        W21741  16.494  13.686   1.858 -0.2740 -0.1714 -0.3800
 5268W        W21742   0.689   3.245  13.329 -0.0044 -0.0392  0.2609
 5269W        W21743  13.218  14.932  13.992 -0.1395 -0.0680 -0.2149
 5270W        W21744  13.757   6.624   4.989 -0.2312 -0.1744  0.1532
 5271W        W21745   8.043   1.927   0.412 -0.0685  0.0580  0.0160
 5272W        W21746  14.241   5.490  11.691  0.0229  0.0778  0.0983
 5273W        W21747  18.194  12.128   0.872  0.1439 -0.0011 -0.0805
 5274W        W21748  12.430  14.628   9.682  0.0369 -0.0903  0.0271
 5275W        W21749   4.201   3.564  12.685  0.1414 -0.0637  0.3328
 5276W        W21750   9.104   7.563   9.996  0.0030  0.2163  0.0689
 5277W        W21751   7.016   7.030   0.068  0.0776  0.0641  0.0848
 5278W        W21752   3.980  17.398   4.361  0.1081 -0.1871 -0.2206
 5279W        W21753  11.532   0.222  12.775 -0.0199  0.4372  0.1574
 5280W        W21754  12.856  15.174   3.151 -0.0294  0.2389  0.3360
 5281W        W21755   0.545   9.097   1.102  0.0639 -0.2629  0.1363
 5282W        W21756  17.802   0.867  11.312 -0.0190 -0.0465  0.2721
 5283W        W21757   6.079   3.691   1.014 -0.1045 -0.0909 -0.2280
 5284W        W21758   5.121  17.950   4.198 -0.1709  0.3297  0.2072
 5285W        W21759  11.485  14.828   4.500 -0.1524 -0.0788 -0.4147
 5286W        W21760  12.419  16.468   3.044  0.1165 -0.3981 -0.0687
 5287W        W21761   5.964   3.604   2.256 -0.0457 -0.2504 -0.0588
 5288W        W21762  17.665  11.278   5.395  0.0325  0.2016  0.3419
 5289W        W21763   2.877   9.177   0.338 -0.3387  0.0234 -0.2218
 5290W        W21764   0.751  15.099   0.716 -0.3864 -0.1358  0.1751
 5291W        W21765   8.768   8.524   2.627  0.4428 -0.0837  0.4576
 5292W        W21766  13.024   4.422   1.129  0.2404  0.1928 -0.0746
 5293W        W21767  17.719  11.866   4.023 -0.0535  0.0551 -0.3575
 5294W        W21768   8.983   3.921   0.113  0.1723 -0.0242  0.2795
 5295W        W21769  13.463  18.633   4.375 -0.0299 -0.1517  0.0554
 5296W        W21770  13.070  11.152   0.221  0.0724 -0.0237 -0.0896
 5297W        W21771   7.928  16.187  10.753 -0.0268  0.4062 -0.0298
 5298W        W21772  18.983  17.053  10.853 -0.0842 -0.2341  0.2426
 5299W        W21773  13.767  14.362   3.654  0.1409 -0.0790  0.1567
 5300W        W21774  11.541   6.434   0.886 -0.2026  0.1711  0.0933
 5301W        W21775   6.483   4.475  10.566  0.2275  0.1349  0.0006
 5302W        W21776   9.720   2.190  10.785  0.1093  0.0680 -0.1463
 5303W        W21777   0.066   5.941   3.580 -0.2353  0.1957  0.1975
 5304W        W21778   4.041  11.464   1.141  0.0878 -0.0226 -0.3531
 5305W        W21779  13.244   2.732   2.346  0.0587  0.0132 -0.4602
 5306W        W21780   3.863   1.097   0.963 -0.0473  0.0185  0.2348
 5307W        W21781  11.430   8.350  11.898 -0.0772  0.0488  0.2847
 5308W        W21782   5.310  18.558  14.712 -0.0303  0.1667  0.0464
 5309W        W21783   0.052  11.976  12.318 -0.0436 -0.1492 -0.1400
 5310W        W21784  13.870  17.641  12.479  0.0666 -0.0609  0.0195
 5311W        W21785  11.594  11.525  13.841 -0.1400 -0.0213 -0.0191
 5312W        W21786   0.142   0.856   1.073  0.2163 -0.0153 -0.2659
 5313W        W21787   6.514   5.641   2.122  0.0581 -0.4098 -0.2377
 5314W        W21788   6.811   4.168   1.765 -0.0626  0.0708 -0.1075
 5315W        W21789   7.378   5.226   1.869  0.1955  0.2485 -0.3345
 5316W        W21790   9.693   1.990   9.664  0.2513  0.0096 -0.2932
 5317W        W21791   4.402  19.092  12.200 -0.5959  0.0168 -0.0045
 5318W        W21792   0.200   0.523   4.899 -0.0129  0.1407 -0.0035
 5319W        W21793  12.152  12.602   4.557 -0.0219  0.0446 -0.0162
 5320W        W21794   2.121  10.208  10.241 -0.1305 -0.1112  0.0344
 5321W        W21795   8.508   5.264   2.630 -0.2539 -0.1110 -0.1267
 5322W        W21796   4.014   9.403   2.863  0.0101 -0.0370  0.2464
 5323W        W21797  16.590  14.922   1.526 -0.5173  0.3953 -0.1934
 5324W        W21798   9.013   4.371  14.662  0.0259 -0.4078 -0.0133
 5325W        W21799   5.798   4.207   2.789  0.1646  0.0041 -0.1810
 5326W        W21800   6.460   7.149   1.732 -0.0972  0.0921 -0.0615
 5327W        W21801   3.305  10.739   9.708  0.1994 -0.0635 -0.0314
 5328W        W21802  11.061  14.480  11.937 -0.1379  0.2728  0.0731
 5329W        W21803  12.444   0.626   0.339 -0.1790  0.0621 -0.1281
 5330W        W21804   4.044   1.030  14.306  0.1968 -0.5723 -0.2062
 5331W        W21805  11.041  16.862   4.611 -0.0093  0.1114  0.0502
 5332W        W21806  17.858  18.097   4.929  0.0452 -0.3162 -0.1968
 5333W        W21807   8.344   8.142  11.102 -0.3429 -0.1746 -0.2979
 5334W        W21808  18.375   5.320  14.506 -0.2933 -0.0677 -0.1247
 5335W        W21809   3.904  12.878   0.522 -0.0414  0.1211  0.1526
 5336W        W21810  10.919   8.223   4.047 -0.2573 -0.0613  0.1501
 5337W        W21811   0.981  17.879   1.396 -0.3026  0.1647  0.0215
 5338W        W21812   7.562   7.275   4.549 -0.1685 -0.1282  0.2837
 5339W        W21813  13.595  19.342  13.540  0.0690 -0.1151  0.1341
 5340W        W21814  14.903   8.242   9.463  0.0218 -0.0984  0.1425
 5341W        W21815  18.924   9.322   4.998 -0.2432  0.2359  0.0469
 5342W        W21816   1.067   3.617   1.796 -0.0521 -0.4420  0.2518
 5343W        W21817   5.656   7.963   2.508 -0.0480  0.0914  0.0259
 5344W        W21818  10.527   4.173   0.849  0.0863  0.0431 -0.4201
 5345W        W21819  16.853  12.041   4.094 -0.0319 -0.1667 -0.1267
 5346W        W21820   2.006   0.699   4.626 -0.1834  0.1353  0.0649
 5347W        W21821  15.928  10.355   4.094  0.2432 -0.2069  0.1078
 5348W        W21822   3.589  14.067  11.831 -0.1191  0.0636  0.3669
 5349W        W21823  12.567   2.233   1.687 -0.0968 -0.1905 -0.0560
 5350W        W21824   6.433  12.482   2.087  0.0215 -0.1242  0.0110
 5351W        W21825   4.155   7.722   1.538  0.0361 -0.1303  0.0433
 5352W        W21826  15.878  18.013  13.243 -0.2089  0.2050 -0.2366
 5353W        W21827  17.203  18.797   1.103  0.0837  0.0647  0.0352
 5354W        W21828   0.525  11.994   4.789  0.1715 -0.1270 -0.0003
 5355W        W21829   5.553   8.380  14.058  0.2958 -0.0573  0.1704
 5356W        W21830  11.327  11.187   4.282 -0.0659  0.1893 -0.1277
 5357W        W21831  10.230   1.178   5.107  0.1604  0.0258 -0.0817
 5358W        W21832  11.343  15.871  11.981  0.2254 -0.1361 -0.0005
 5359W        W21833   2.157  16.774   1.859  0.0912 -0.0938 -0.3707
 5360W        W21834   1.077   7.094   2.329 -0.0256  0.0778  0.0806
 5361W        W21835   7.725  13.254  11.113  0.1397 -0.0519  0.1516
 5362W        W21836   4.243   1.103  11.415  0.2027 -0.0726  0.1239
 5363W        W21837  15.245  17.167   0.816  0.1217  0.1039 -0.0078
 5364W        W21838   9.873  10.689  13.016 -0.0875 -0.1230  0.5367
 5365W        W21839   9.088   6.655  11.650  0.0007  0.0513  0.1766
 5366W        W21840   7.459  17.389  12.730 -0.4010 -0.0738  0.1745
 5367W        W21841   9.727   9.408   4.549  0.0592  0.1012  0.1212
 5368W        W21842  17.311  17.708   2.930  0.0862  0.4202  0.0293
 5369W        W21843  13.103  11.077  14.596 -0.0031 -0.2156 -0.1415
 5370W        W21844  12.771  15.196  10.971  0.0096 -0.1853 -0.1050
 5371W        W21845   3.628   4.573   3.886  0.1405  0.0753 -0.2260
 5372W        W21846  15.550   3.311   2.338 -0.0315 -0.2395  0.0106
 5373W        W21847  19.196  13.330   3.447 -0.2426 -0.0890  0.0376
 5374W        W21848  14.169   3.527   1.340  0.1881  0.0019 -0.2106
 5375W        W21849  11.860  11.659  14.286 -0.0825 -0.0148 -0.0580
 5376W        W21850  18.221  12.389  13.810  0.1356  0.2513  0.0492
 5377W        W21851  18.936  18.789  11.399  0.2153  0.3362  0.2418
 5378W        W21852  14.917   1.710   9.679 -0.1133  0.1561  0.1971
 5379W        W21853   5.335   5.475   1.695 -0.3677  0.0558  0.0105
 5380W        W21854   9.664   7.267   1.221  0.2072  0.0657  0.3469
 5381W        W21855   6.669  17.027   5.033 -0.3731  0.0564 -0.2085
 5382W        W21856   2.107  12.455   1.384 -0.0741  0.0269  0.2283
 5383W        W21857  13.703  18.515  14.564 -0.2152  0.2237  0.1886
 5384W        W21858   8.904  15.791   0.657 -0.3276  0.0979  0.2340
 5385W        W21859  15.470  11.638  14.793 -0.3045  0.1403 -0.0242
 5386W        W21860   3.212  13.102   4.670 -0.1535  0.1042 -0.2609
 5387W        W21861  14.988   8.714   2.679  0.0866 -0.0538 -0.1617
 5388W        W21862   9.034  13.452   1.551  0.0799 -0.0605  0.0676
 5389W        W21863  10.665  13.930  11.409  0.0442 -0.3060  0.0634
 5390W        W21864  15.795  15.646   4.918  0.1430 -0.1170 -0.1700
 5391W        W21865  17.734   0.324  13.278 -0.0930 -0.3217  0.1163
 5392W        W21866   0.476  16.028  10.953 -0.0218 -0.1443  0.0920
 5393W        W21867   7.395  15.359  10.386  0.0765 -0.0618  0.0609
 5394W        W21868  10.441   7.771  12.116 -0.0682 -0.4050  0.0292
 5395W        W21869   5.801  12.998  12.931  0.2534  0.2018  0.2234
 5396W        W21870  18.213  17.142  10.752  0.2220  0.0144  0.3252
 5397W        W21871  14.967   9.706   2.514 -0.2839 -0.0334 -0.1639
 5398W        W21872  11.589  13.775   3.919  0.1090  0.1280  0.0358
 5399W        W21873  14.475  14.601   9.947  0.0077 -0.4503 -0.1501
 5400W        W21874   0.470  10.236   1.111 -0.0805 -0.3199 -0.0514
 5401W        W21875  11.561  12.935   0.023  0.0674  0.3055  0.0715
 5402W        W21876   7.800  13.672  12.833 -0.3543 -0.0995 -0.0661
 5403W        W21877   3.303  18.438  11.325 -0.0866 -0.1765  0.1616
 5404W        W21878  10.383  16.189   0.464  0.0874 -0.0327  0.1438
 5405W        W21879  19.234   6.834   2.326 -0.1045 -0.1839  0.4119
 5406W        W21880  16.397   5.099   4.129  0.1583 -0.0451 -0.1164
 5407W        W21881  11.785  15.384   3.734  0.2728  0.2118  0.0775
 5408W        W21882   0.670   0.675   9.887  0.2410 -0.0570  0.1099
 5409W        W21883  17.716   6.193  13.226  0.0324 -0.0248  0.1974
 5410W        W21884  10.276  11.053   3.505  0.1374  0.0526 -0.2590
 5411W        W21885  17.702   5.850  10.107  0.1304  0.2472  0.0406
 5412W        W21886   7.266  15.585   5.306 -0.2481 -0.0633  0.3658
 5413W        W21887  12.270   2.660  13.758  0.0924  0.3098  0.1794
 5414W        W21888   7.680  19.193  13.522  0.2357  0.0219 -0.2344
 5415W        W21889   3.181   8.914  14.766  0.2844 -0.0416 -0.0818
 5416W        W21890  10.105  16.820  10.968 -0.0849  0.2359  0.2570
 5417W        W21891   8.250   6.217   2.795  0.1699  0.2519 -0.2614
 5418W        W21892  12.238  12.105  12.906  0.2414 -0.0116 -0.1857
 5419W        W21893   3.815   8.730   0.926 -0.7303  0.2215  0.2158
 5420W        W21894   1.384   8.499   2.136  0.1989  0.3197  0.0911
 5421W        W21895   6.370   5.737   3.057  0.0619 -0.4557  0.4794
 5422W        W21896  17.022  19.284   2.380 -0.3285  0.3390  0.1810
 5423W        W21897  19.036  12.203   4.257  0.0482 -0.1548  0.2525
 5424W        W21898   2.397  12.561  14.335  0.2848 -0.0416  0.0369
 5425W        W21899   9.000   1.275   0.737  0.3231  0.0400  0.2134
 5426W        W21900   7.911  11.706   9.311  0.1147  0.3953  0.1587
 5427W        W21901   5.808   2.889   1.179 -0.1285 -0.0726  0.0246
 5428W        W21902   7.211   8.608   1.057 -0.0044  0.2220  0.1804
 5429W        W21903  10.431   2.590  14.035 -0.2592  0.0100 -0.1477
 5430W        W21904  11.265  12.470  12.960 -0.0891  0.1302  0.1769
 5431W        W21905  13.251   9.884   4.804 -0.2961  0.0274  0.1868
 5432W        W21906  12.485  14.055   3.383  0.2034  0.3771 -0.0582
 5433W        W21907  17.242   9.111   0.377  0.0516  0.1262 -0.3743
 5434W        W21908   9.741  19.012  14.047 -0.2371  0.4110  0.1363
 5435W        W21909  16.304  15.093   1.145 -0.1298  0.0175 -0.1654
 5436W        W21910  10.821   3.990   4.412 -0.0475  0.1111  0.0472
 5437W        W21911   0.132   6.088  13.061  0.1539 -0.0104 -0.0275
 5438W        W21912   6.094   6.157   2.104 -0.0100 -0.0098  0.3861
 5439W        W21913  12.684  16.783   2.275  0.0390 -0.2180  0.0292
 5440W        W21914   4.506   0.475   3.566  0.4459 -0.0367 -0.3061
 5441W        W21915   3.902   0.083   1.692 -0.1237 -0.3160 -0.3170
 5442W        W21916   6.237   7.287   2.254  0.0937 -0.1206 -0.3114
 5443W        W21917  15.219   2.683   1.639  0.4067  0.1622 -0.0808
 5444W        W21918  17.186   0.799  12.031 -0.2431  0.1311  0.3337
 5445W        W21919   2.683  16.489  10.612  0.1398  0.2113 -0.2259
 5446W        W21920  13.350   5.261  11.597 -0.1044  0.2201  0.0531
 5447W        W21921   9.357  10.188  11.839 -0.0204 -0.0258  0.0551
 5448W        W21922   1.523   6.622   3.430 -0.1289  0.0236 -0.0524
 5449W        W21923   5.928   7.783   4.636  0.2964  0.4111  0.1236
 5450W        W21924   1.813  14.198   4.768  0.1435 -0.1596 -0.0796
 5451W        W21925  15.802   0.734  14.185 -0.0763 -0.1088  0.0420
 5452W        W21926   1.550   3.835  10.941  0.1700  0.1706  0.0077
 5453W        W21927  17.455   7.481  11.318 -0.0583 -0.0661 -0.0550
 5454W        W21928   1.926   7.408   2.262 -0.0877 -0.0613  0.1825
 5455W        W21929  16.589   1.278  13.699 -0.1763 -0.3404 -0.1702
 5456W        W21930  18.419   0.205   1.768  0.2081  0.1214  0.2250
 5457W        W21931   6.993  17.751  13.684 -0.1137 -0.0701  0.2234
 5458W        W21932   5.850   7.821  14.377 -0.0388 -0.0475  0.0803
 5459W        W21933  14.148   3.432  11.775  0.0761 -0.0208 -0.1182
 5460W        W21934   7.605   2.825  10.733 -0.1465 -0.4185  0.0583
 5461W        W21935  13.203  10.749  11.658 -0.3502  0.0091  0.1037
 5462W        W21936  18.631  12.214   0.666  0.4026  0.0530 -0.3388
 5463W        W21937  11.283   0.919  12.616 -0.0540  0.2386 -0.0607
 5464W        W21938  18.680  18.706  13.472  0.3863  0.2266 -0.0201
 5465W        W21939   0.912  12.977   0.120 -0.1130  0.1914 -0.1044
 5466W        W21940   0.682  11.059  11.899 -0.2567  0.0051 -0.3595
 5467W        W21941   3.295   9.481   0.119  0.2894 -0.0848 -0.0482
 5468W        W21942  16.706  14.986  12.720  0.3831  0.0202 -0.0140
 5469W        W21943  16.267   4.730   1.947  0.5190 -0.2743  0.0388
 5470W        W21944   1.102   8.055  13.388 -0.1133  0.1346 -0.3066
 5471W        W21945   2.138   8.055   1.512 -0.1628  0.0524  0.0351
 5472W        W21946   7.214   5.167   3.298 -0.0497 -0.0043  0.0761
 5473W        W21947   4.443  15.458  13.369 -0.0221  0.0513  0.3206
 5474W        W21948  19.159   3.799   0.601  0.1503  0.1047  0.1517
 5475W        W21949   7.248  17.118  13.161  0.1733 -0.0952 -0.1209
 5476W        W21950  12.717  14.802  14.138  0.1277 -0.2338 -0.2690
 5477W        W21951   1.877  15.644   1.766  0.2209 -0.0815  0.1212
 5478W        W21952  15.859   1.534   1.443  0.1798  0.0648 -0.1712
 5479W        W21953  16.177   9.535   0.101  0.2075  0.1584 -0.0110
 5480W        W21954  18.462   6.153   4.745 -0.0084  0.1957  0.2614
 5481W        W21955   7.828  19.019  13.093 -0.0304 -0.1601 -0.3807
 5482W        W21956   8.522   8.959   0.090 -0.0011 -0.2910  0.3630
 5483W        W21957  18.131  15.243   2.914 -0.1082  0.0676 -0.0247
 5484W        W21958   0.904  18.834   0.619 -0.0848 -0.1236 -0.0299
 5485W        W21959   5.946   9.405   3.535  0.1226 -0.0597  0.0920
 5486W        W21960   2.316   0.956  10.718 -0.2072 -0.0187 -0.0410
 5487W        W21961   5.359  17.716  13.341  0.2676 -0.0970  0.0840
 5488W        W21962   3.722  13.140  14.477 -0.3037 -0.0413 -0.2115
 5489W        W21963   5.581   5.015   1.571 -0.2992 -0.0724 -0.0233
 5490W        W21964   0.634  19.304   3.749 -0.5629  0.4239 -0.1050
 5491W        W21965  11.940  18.257   4.811  0.0967  0.0268  0.0174
 5492W        W21966   7.201   6.887  12.788  0.1919  0.1493 -0.0374
 5493W        W21967   7.767   4.745   2.547 -0.0907  0.1830  0.3054
 5494W        W21968   1.912   3.490   4.652 -0.2034 -0.0880 -0.2089
 5495W        W21969  10.871  18.226   5.550  0.1296 -0.1356  0.2871
 5496W        W21970  16.756  13.709   3.015  0.1358 -0.2216 -0.0565
 5497W        W21971  13.634   3.447   4.811  0.2586 -0.1338 -0.2592
 5498W        W21972   1.885  16.961   0.779  0.3821 -0.2378  0.2873
 5499W        W21973   2.569   5.996   2.642  0.1195  0.3683  0.2089
 5500W        W21974   7.330   1.122  14.819  0.1931 -0.1171  0.0744
 5501W        W21975  10.328  12.870   2.889 -0.0995 -0.0185  0.1488
 5502W        W21976   5.240  11.417   1.547  0.0766  0.0021  0.1404
 5503W        W21977   1.778   5.897   4.835 -0.0010 -0.2005 -0.0323
 5504W        W21978   9.164  11.572  12.544 -0.0010  0.2891  0.1242
 5505W        W21979   5.287  15.281   0.557 -0.0140  0.0114 -0.0664
 5506W        W21980   7.600  10.573   3.325 -0.0280 -0.1058 -0.1309
 5507W        W21981  16.875   6.180  13.346 -0.0904  0.3355 -0.1468
 5508W        W21982   4.896   4.212   1.859 -0.2156  0.1142  0.0293
 5509W        W21983  14.661   2.021   3.412  0.0797 -0.0243 -0.0860
 5510W        W21984   9.112   0.416   3.245  0.1269 -0.1672 -0.2511
 5511W        W21985   2.655   4.830   4.373 -0.2304 -0.0778 -0.5175
 5512W        W21986  14.813  11.937  13.015  0.0406 -0.0967 -0.4051
 5513W        W21987  17.909   4.939   4.848  0.1804 -0.0700  0.0623
 5514W        W21988   6.508   9.617   4.288 -0.0830  0.1529  0.1188
 5515W        W21989  10.757   9.678  14.762 -0.0686  0.0804  0.0718
 5516W        W21990   5.986   9.669  12.647  0.0841 -0.3756 -0.2672
 5517W        W21991   3.089  11.745   3.692 -0.1783  0.1071 -0.0838
 5518W        W21992  12.584   7.666  13.264  0.0118 -0.1703  0.0486
 5519W        W21993   4.948  15.455   2.856  0.0223 -0.0825 -0.0400
 5520W        W21994   1.717   0.628   1.373 -0.3223  0.1674 -0.0211
 5521W        W21995   8.525  11.317  10.573 -0.0622  0.0156 -0.0968
 5522W        W21996  18.554  16.988   1.100 -0.1621 -0.1191  0.0774
 5523W        W21997  19.342   3.188  14.627 -0.1869 -0.3460  0.0425
 5524W        W21998   6.643   0.505   9.866  0.2959 -0.1809  0.1700
 5525W        W21999   5.201   8.708  10.416 -0.2465 -0.2043 -0.1161
 5526W        W22000  13.129  18.523   4.758  0.1342  0.0431 -0.2419
 5527W        W22001  13.088   1.205   0.572  0.0826 -0.1131  0.1093
 5528W        W22002   4.319   5.249  13.487  0.2914  0.1957 -0.1454
 5529W        W22003  18.954  19.134  12.738  0.0520  0.1062 -0.0408
 5530W        W22004   1.927   2.702  10.865 -0.0201 -0.1190 -0.1252
 5531W        W22005  11.940  16.560  12.060  0.0160 -0.0709 -0.0591
 5532W        W22006   3.749   8.487   3.348 -0.1349  0.1301 -0.1434
 5533W        W22007  14.746  17.831  12.602 -0.1786 -0.3730  0.0174
 5534W        W22008  18.768   8.651   2.662  0.1226  0.0740 -0.1694
 5535W        W22009  17.704  13.295   6.115 -0.0452  0.1246  0.1108
 5536W        W22010   1.105  16.079   3.986  0.3766 -0.1412  0.3704
 5537W        W22011  15.391  14.653  13.112  0.2070 -0.1087  0.1334
 5538W        W22012  13.687   2.559   1.850  0.1967 -0.2207  0.2523
 5539W        W22013   2.126   3.219  12.351 -0.3390  0.1458  0.2641
 5540W        W22014   6.061   4.083   0.296  0.0491 -0.0144  0.1741
 5541W        W22015  14.154  11.779  13.741  0.2619 -0.0975 -0.0091
 5542W        W22016  14.825   5.013  11.454  0.2929  0.2074  0.1337
 5543W        W22017  18.869   3.161  13.828  0.0641 -0.0727 -0.2127
 5544W        W22018   0.350  15.113  12.559 -0.0651 -0.0409  0.0477
 5545W        W22019   7.828  15.921  14.011  0.0173  0.0479  0.1797
 5546W        W22020  12.255  10.128  14.603 -0.0603 -0.3402  0.4520
 5547W        W22021   3.303   9.165   2.767 -0.0209 -0.0395  0.0190
 5548W        W22022  14.768   8.021   5.325  0.2381 -0.2149 -0.3812
 5549W        W22023  17.551  19.338   1.893  0.0995 -0.1914 -0.1106
 5550W        W22024   6.475  14.842   1.946  0.0913  0.0759 -0.2687
 5551W        W22025  13.565   1.847  10.970  0.0742  0.2180  0.2808
 5552W        W22026   1.647   2.508   2.178  0.0702 -0.1242  0.0601
 5553W        W22027   3.895  13.166   1.794 -0.0308 -0.0310 -0.1926
 5554W        W22028   1.460  13.341   2.323  0.2019 -0.1798 -0.1903
 5555W        W22029  11.619  15.233   4.289 -0.3314 -0.3588 -0.2662
 5556W        W22030  15.792  13.296   1.449  0.1987 -0.1908 -0.0993
 5557W        W22031  10.021  13.195  13.986  0.3093  0.0929 -0.0296
 5558W        W22032  12.358  12.451  11.170  0.2033 -0.1784 -0.0703
 5559W        W22033   9.712   5.294  14.246  0.3814  0.0196  0.3440
 5560W        W22034   1.382   6.879  11.952  0.1094 -0.0913 -0.0800
 5561W        W22035  18.578  12.587  11.268  0.0807  0.2672  0.1418
 5562W        W22036   3.505  16.215   3.349 -0.1137 -0.0823 -0.1343
 5563W        W22037   4.632  13.176  11.385 -0.3350  0.1771 -0.0478
 5564W        W22038  14.645   3.894   5.427 -0.1981 -0.2253 -0.3402
 5565W        W22039  10.654   2.565  10.579  0.1817 -0.4038  0.0029
 5566W        W22040   0.218   4.763  14.704 -0.1497  0.0409 -0.1775
 5567W        W22041  12.539   9.294  10.398  0.0962 -0.0309  0.4117
 5568W        W22042   8.456   0.298  14.376  0.2108 -0.0006  0.2747
 5569W        W22043   6.222  17.797  10.226 -0.1612  0.1001 -0.0237
 5570W        W22044   6.192  18.715  10.370  0.1450  0.1236  0.1711
 5571W        W22045  15.116  18.199   1.515  0.0650  0.1551  0.1244
 5572W        W22046  18.341   0.721   5.247  0.4072 -0.1147 -0.0745
 5573W        W22047  17.426  14.497  11.542  0.0113  0.0406 -0.0194
 5574W        W22048  19.113  18.174  11.579  0.0068  0.1014 -0.2777
 5575W        W22049   3.297  14.062   3.383 -0.2771  0.1272  0.0590
 5576W        W22050   1.318   1.361  12.114  0.3621 -0.1835 -0.0455
 5577W        W22051   3.161  18.913  12.431  0.0738  0.0674  0.1522
 5578W        W22052   2.519  15.764   0.344  0.1241 -0.2589  0.0242
 5579W        W22053  12.643   1.449   1.648 -0.0689 -0.2021 -0.1821
 5580W        W22054   9.271  13.972  11.217 -0.0334  0.1118 -0.1813
 5581W        W22055  12.369  19.196  11.423 -0.0578 -0.0782  0.0451
 5582W        W22056   8.492   2.917   3.361  0.0369 -0.2884  0.1082
 5583W        W22057  11.770   8.208  10.718  0.1625  0.1456 -0.4518
 5584W        W22058  14.450  10.201  11.781  0.0888  0.0533  0.0801
 5585W        W22059   5.196   1.105   4.161  0.2150  0.1750  0.0107
 5586W        W22060   6.112   0.979   2.735 -0.0974  0.0747 -0.2267
 5587W        W22061  13.795   3.180  14.638 -0.1932  0.1826  0.2584
 5588W        W22062  16.426  19.041  10.693 -0.1990 -0.1735 -0.1833
 5589W        W22063  17.123   2.008   3.561 -0.0519  0.0577  0.1355
 5590W        W22064  10.057   5.855   0.021  0.0298  0.1870  0.3834
 5591W        W22065   4.437   1.339  14.360  0.0526  0.3415  0.0625
 5592W        W22066  19.267  18.577   1.692  0.1218  0.0075 -0.0140
 5593W        W22067  12.883   8.854  13.412 -0.0921 -0.3564  0.1465
 5594W        W22068   9.028  13.045  12.436  0.0767  0.2884 -0.1408
 5595W        W22069  13.391   6.292  13.882 -0.1520  0.1930  0.1085
 5596W        W22070   4.414   6.570   2.955 -0.0317 -0.0643 -0.0395
 5597W        W22071   4.759  12.755   1.467 -0.0518  0.2850  0.0646
 5598W        W22072   6.933  12.433  12.671  0.2570  0.0656  0.2562
 5599W        W22073  11.330  16.717  13.948 -0.1608  0.2474  0.0791
 5600W        W22074  17.318  14.087   0.172 -0.0412  0.0350 -0.0582
 5601W        W22075  17.926  14.860  12.156  0.0437  0.0979 -0.1815
 5602W        W22076   7.067   4.777  14.704  0.2144  0.0114 -0.0118
 5603W        W22077  10.783  13.816   2.564 -0.1600  0.0032 -0.0762
 5604W        W22078  12.531  14.118  12.555 -0.1771  0.1705 -0.0970
 5605W        W22079   6.037  13.571  11.835 -0.2274  0.3816 -0.1467
 5606W        W22080  15.750   9.748  14.755 -0.0019  0.0824 -0.0554
 5607W        W22081   5.106  10.654  13.829  0.2641 -0.0438  0.0156
 5608W        W22082   7.470   7.247  14.630 -0.0846 -0.0706  0.1383
 5609W        W22083   9.087   2.105   3.207  0.0416 -0.1924 -0.1568
 5610W        W22084   2.372   1.538   2.617  0.4452  0.0204 -0.2226
 5611W        W22085   0.791  15.555  10.211 -0.0227 -0.2170 -0.0683
 5612W        W22086  14.556  15.609   2.924 -0.2444 -0.0954  0.3145
 5613W        W22087   4.620  11.592   4.204  0.1764 -0.0456  0.0398
 5614W        W22088   7.683   1.813  13.248  0.0264 -0.1811 -0.0107
 5615W        W22089   1.034   4.100  10.558 -0.1892 -0.2030 -0.1541
 5616W        W22090   3.764   4.727   4.422 -0.0664  0.3327 -0.3457
 5617W        W22091  15.696   5.060  14.813 -0.2351 -0.1517 -0.2185
 5618W        W22092   6.402   7.751   3.516  0.0773  0.2091 -0.1339
 5619W        W22093   2.811   9.156   2.287 -0.6300  0.1826 -0.1163
 5620W        W22094   3.705   6.294  10.798 -0.2625 -0.3523  0.1950
 5621W        W22095  12.605  10.498   3.450  0.1616 -0.1111 -0.0077
 5622W        W22096  14.308   8.083   1.982  0.0763  0.1422  0.3136
 5623W        W22097   9.578  16.407   1.439  0.0252 -0.1617 -0.0732
 5624W        W22098  10.652   9.767  13.621 -0.4037  0.2690 -0.0236
 5625W        W22099  18.985   2.871   9.758 -0.0355  0.1246  0.2414
 5626W        W22100  12.857   1.141  14.582  0.5254  0.0179 -0.2662
 5627W        W22101  10.542   2.534   0.418  0.1095  0.0370 -0.0186
 5628W        W22102   8.158   4.417   2.585  0.5487  0.0645  0.0072
 5629W        W22103   7.678   3.326   3.326 -0.0084  0.0884  0.0219
 5630W        W22104  14.077   4.636  14.480 -0.3424  0.2336  0.1383
 5631W        W22105   5.833  19.142  13.707  0.0169  0.0104 -0.0906
 5632W        W22106   9.002  19.338  12.313  0.1129  0.1412  0.0629
 5633W        W22107   6.639  18.043  13.981 -0.3479  0.2287  0.2433
 5634W        W22108   9.691  18.487  13.924  0.1835 -0.2355 -0.2977
 5635W        W22109   4.285   9.653  10.243 -0.0318 -0.0912  0.2954
 5636W        W22110   2.112  16.171   5.781 -0.0602  0.2612  0.6347
 5637W        W22111   5.071   8.131  14.102  0.0572  0.0761 -0.0300
 5638W        W22112   7.516  19.311  10.877  0.3944  0.3606 -0.3314
 5639W        W22113   4.955  18.086   4.665 -0.0949  0.0170  0.1904
 5640W        W22114  12.283   9.063   5.600  0.0122  0.0651 -0.1827
 5641W        W22115  18.011  15.008   2.146 -0.1888  0.2297 -0.3646
 5642W        W22116   4.871  17.987   2.290 -0.0922  0.1454  0.3809
 5643W        W22117   7.601  18.212   3.243 -0.0112  0.0666  0.0241
 5644W        W22118   3.674  13.246  13.871 -0.2280  0.1847 -0.0063
 5645W        W22119   7.563  16.666  14.851 -0.0730 -0.0063 -0.1507
 5646W        W22120  16.836  17.941  12.274  0.1267 -0.0939  0.3741
 5647W        W22121  16.713   1.604   1.796  0.1932 -0.1038 -0.1520
 5648W        W22122   1.945   7.001   1.374 -0.1299 -0.1882  0.1697
 5649W        W22123  11.148   1.639   0.651  0.0829  0.2255  0.2609
 5650W        W22124  10.381  10.153   0.271 -0.1019 -0.2792  0.4685
 5651W        W22125  15.781   9.587   1.061  0.0895  0.3230 -0.0131
 5652W        W22126   9.630   8.329   1.290  0.2658  0.1017 -0.3500
 5653W        W22127   4.559   2.734  11.603 -0.1395  0.2043  0.3184
 5654W        W22128  14.362   7.380   5.711  0.0735  0.2216 -0.2025
 5655W        W22129  13.176  10.999   3.983  0.2698  0.0079 -0.0597
 5656W        W22130  15.506   9.146   0.990 -0.1170 -0.3019  0.2285
 5657W        W22131   7.834   8.759  11.999 -0.3010  0.1865  0.4938
 5658W        W22132  18.241   4.883  11.611 -0.3511  0.1609 -0.1263
 5659W        W22133  11.224  15.580   0.080 -0.0790  0.0981  0.3504
 5660W        W22134  16.869  15.277   4.209 -0.0341 -0.1877  0.0909
 5661W        W22135   1.890   9.519   0.278  0.0273 -0.3710  0.1754
 5662W        W22136   2.179  12.649   3.912 -0.1351  0.3609 -0.2249
 5663W        W22137   6.231   3.066   1.002 -0.2596  0.2059  0.1551
 5664W        W22138  15.975  17.491  14.309 -0.0668 -0.1358 -0.1137
 5665W        W22139   4.101   4.178   3.157 -0.0961  0.2186  0.2919
 5666W        W22140  14.930  13.994  12.453 -0.2022  0.0856  0.1555
 5667W        W22141   9.104   1.322   3.623 -0.0408 -0.0792  0.0081
 5668W        W22142   5.664  13.454  12.167 -0.1270  0.0632 -0.1754
 5669W        W22143   6.201  18.441  12.748  0.0076 -0.2100  0.3147
 5670W        W22144   5.749   8.162  13.642  0.1855  0.0944  0.2323
 5671W        W22145  11.839   9.649   5.039  0.3590  0.3235 -0.1381
 5672W        W22146   7.847  15.751  14.478 -0.0109 -0.1469  0.1594
 5673W        W22147   5.681  14.370   2.333  0.1998 -0.3312 -0.0247
 5674W        W22148  15.871   9.211   0.638  0.1309 -0.0295  0.1884
 5675W        W22149  13.265   4.495  11.124 -0.1685 -0.2765 -0.2635
 5676W        W22150   2.970   4.424  11.359  0.1331 -0.1425  0.2548
 5677W        W22151  12.270  10.049   9.928 -0.5242  0.3037 -0.0215
 5678W        W22152  11.907   4.211   2.638 -0.0026  0.0641  0.0305
 5679W        W22153   7.111   8.390  11.778  0.0164  0.1404  0.3856
 5680W        W22154   2.818  16.284  13.729 -0.1033  0.0643  0.0496
 5681W        W22155   0.859  15.517   3.858 -0.0816  0.0332 -0.1991
 5682W        W22156  17.558   3.299  12.411 -0.3774 -0.0526  0.2700
 5683W        W22157  10.700  14.552   0.742 -0.0478 -0.1713 -0.2769
 5684W        W22158  19.121   8.973  13.839  0.1188  0.3707 -0.0089
 5685W        W22159  10.044   2.335   0.055 -0.1268 -0.1241  0.0811
 5686W        W22160  17.160  11.131  12.013  0.0805 -0.2890  0.2429
 5687W        W22161   8.372  18.866  10.710 -0.2340  0.1070 -0.1882
 5688W        W22162  17.876   1.337   2.992 -0.1272 -0.1903 -0.1138
 5689W        W22163   1.529   1.408   3.032  0.1556  0.4201 -0.0822
 5690W        W22164  13.193   5.835   5.147 -0.1149 -0.3642 -0.0738
 5691W        W22165   6.752  18.034   4.247  0.1295 -0.0258 -0.1087
 5692W        W22166  19.096   2.092  13.787 -0.1809  0.1304 -0.0520
 5693W        W22167   6.120  11.002  12.753  0.0473 -0.0962 -0.4098
 5694W        W22168   8.237  16.242   3.837 -0.1286 -0.1365  0.1691
 5695W        W22169  10.492   6.675  14.713 -0.0449  0.2120 -0.1099
 5696W        W22170   1.662   0.325   0.915  0.2113 -0.3002 -0.2258
 5697W        W22171   4.695   8.838  10.237  0.0848 -0.0131 -0.0430
 5698W        W22172  10.162  11.535  12.228  0.1917  0.0385 -0.1729
 5699W        W22173  19.091   4.690   4.418  0.0941  0.2151  0.1876
 5700W        W22174  19.290   9.842   0.659 -0.1663 -0.0452 -0.0739
 5701W        W22175  19.193   2.733  14.650  0.0191  0.1988 -0.1767
 5702W        W22176   5.733   5.032   1.036  0.3311  0.0109  0.2188
 5703W        W22177   2.549   9.371  13.427  0.3331  0.0098  0.1471
 5704W        W22178   3.675  13.473   4.638  0.1214  0.1948  0.1165
 5705W        W22179   0.461  11.026   1.506  0.2856 -0.1623  0.0891
 5706W        W22180   3.749   2.718  13.660  0.0152  0.0233  0.0877
 5707W        W22181  11.918  16.963   2.456 -0.2932  0.1219  0.1014
 5708W        W22182   1.334   1.425  14.807 -0.3391  0.0222  0.0335
 5709W        W22183   4.112   1.563   9.359  0.1554  0.1203  0.0328
 5710W        W22184   1.689  14.369  11.529 -0.0025  0.2402  0.0489
 5711W        W22185   9.212   2.384  13.328 -0.0364 -0.0829 -0.2267
 5712W        W22186   0.084  14.710  12.315  0.1905 -0.0741 -0.2126
 5713W        W22187   5.487  19.306   2.165 -0.0501 -0.2584  0.0594
 5714W        W22188  13.681  18.794   1.894 -0.1148  0.0858 -0.1612
 5715W        W22189  11.972   7.074  13.036 -0.0299  0.2077  0.2315
 5716W        W22190   6.748   3.173   3.866 -0.1620 -0.5414  0.2351
 5717W        W22191  14.856  14.835   2.357  0.0518 -0.3042 -0.2185
 5718W        W22192   6.355  16.042   3.228  0.0957  0.2882  0.1061
 5719W        W22193  17.386   6.293  10.935  0.3716 -0.3091  0.0025
 5720W        W22194   1.696  10.069   1.812 -0.0498  0.0398  0.2407
 5721W        W22195   4.413  16.743  11.913 -0.1842  0.0248  0.0589
 5722W        W22196  16.107  16.947   1.832 -0.0677  0.1833  0.0256
 5723W        W22197  16.576  13.401   3.754  0.1083 -0.0040  0.0816
 5724W        W22198   7.753   1.427   9.892  0.3568  0.4891  0.0087
 5725W        W22199   7.804  16.565  11.141  0.1086 -0.0524 -0.0195
 5726W        W22200  17.694   8.144  11.464  0.2269  0.3296  0.1832
 5727W        W22201  13.962   0.237   0.714  0.3004 -0.2786 -0.0998
 5728W        W22202  12.081   0.440   3.221 -0.0997 -0.4932  0.1019
 5729W        W22203   5.455  11.532  12.414 -0.2234  0.1323  0.0679
 5730W        W22204   6.549   7.095  13.474 -0.0810  0.3257 -0.0049
 5731W        W22205   4.326   0.720   3.144 -0.0103 -0.1122  0.3536
 5732W        W22206  16.853  15.156   1.037  0.0661 -0.0368 -0.0371
 5733W        W22207   7.884   8.854   1.741 -0.0491 -0.1602  0.1123
 5734W        W22208   1.977   9.488   1.323 -0.1632 -0.0565 -0.1350
 5735W        W22209  12.596  15.365   3.565 -0.0640 -0.1751 -0.0641
 5736W        W22210  10.842  15.406   5.963 -0.0443  0.1140  0.3277
 5737W        W22211  18.184   2.377   4.338 -0.1664  0.1681 -0.0930
 5738W        W22212  17.698  11.749   5.167 -0.1649  0.2926  0.2767
 5739W        W22213  11.852   8.713   3.217 -0.1209 -0.1170 -0.2432
 5740W        W22214  14.367   7.160  10.316 -0.1386  0.0864 -0.2937
 5741W        W22215   8.256   0.615   0.459 -0.0247  0.0088  0.0557
 5742W        W22216  12.077   7.349  11.306  0.1188  0.2415 -0.2609
 5743W        W22217   0.910   0.718   0.557  0.0842 -0.3743  0.3433
 5744W        W22218   0.648  11.293   1.898  0.3411 -0.2512 -0.1365
 5745W        W22219   5.161  15.869   3.209 -0.2716  0.2510  0.1912
 5746W        W22220   4.249   0.504  12.201 -0.0560 -0.2671 -0.0869
 5747W        W22221   0.830  16.349  11.067  0.0326 -0.0914  0.1358
 5748W        W22222  17.382  11.939  13.331 -0.0175 -0.0282  0.1338
 5749W        W22223  18.613   1.411  14.791  0.1301  0.0926 -0.1879
 5750W        W22224   6.698   5.924   0.700  0.1788  0.0657  0.1710
 5751W        W22225   8.206  15.575   1.198  0.1167 -0.2838 -0.2928
 5752W        W22226   6.113   5.413   2.675  0.0902 -0.1691 -0.0783
 5753W        W22227   5.542  18.359   4.163 -0.1794  0.0542 -0.2444
 5754W        W22228   8.656  17.674   2.643 -0.2292  0.0190  0.0444
 5755W        W22229   2.839   7.483   2.745 -0.0150  0.0523 -0.1947
 5756W        W22230   8.522  10.127   4.110  0.3494  0.0409 -0.3506
 5757W        W22231  16.057  18.017   2.630  0.0336  0.0139 -0.1641
 5758W        W22232   9.044   4.897  11.226  0.0578  0.0394  0.1405
 5759W        W22233   3.868  15.116  13.973  0.3655 -0.2144 -0.2478
 5760W        W22234   6.428  10.191   1.630  0.2089 -0.1280 -0.2086
 5761W        W22235  14.530   1.636   0.599 -0.2020  0.1439  0.1318
 5762W        W22236  10.747   1.765  14.480 -0.0488  0.0909  0.1378
 5763W        W22237  14.143  11.628   4.220 -0.0115  0.0601 -0.0773
 5764W        W22238   4.013   5.635   3.865 -0.3532 -0.2361  0.6089
 5765W        W22239  12.611  15.345   4.607 -0.0773  0.0841  0.3433
 5766W        W22240  18.473   2.028  13.675  0.1330  0.0074  0.0624
 5767W        W22241   1.205  15.380   0.303  0.1555  0.3261 -0.0064
 5768W        W22242   6.222   9.445  11.794  0.1798  0.0559  0.2475
 5769W        W22243   8.718   5.773  11.042  0.1544  0.2557 -0.2052
 5770W        W22244  17.068  10.928   1.374 -0.0209 -0.2155  0.0892
 5771W        W22245  16.779   9.827  14.800  0.0908  0.2658 -0.0338
 5772W        W22246  17.556  18.819  11.203  0.3156 -0.0776  0.1375
 5773W        W22247   3.534  14.143   5.685 -0.1324 -0.3823 -0.0088
 5774W        W22248   2.663   9.134   5.016 -0.1425 -0.0150  0.0397
 5775W        W22249   9.774   5.538   3.764 -0.1061 -0.0987 -0.0612
 5776W        W22250   9.205   4.119   1.207 -0.1927 -0.0113  0.0269
 5777W        W22251  11.728   7.702   4.518 -0.3046 -0.0952  0.2199
 5778W        W22252   6.033  16.405   2.226  0.1104 -0.2865  0.1490
 5779W        W22253  13.602   8.562  10.100 -0.1744 -0.0999 -0.0411
 5780W        W22254   7.795  17.952   3.627  0.0271 -0.0931 -0.0811
 5781W        W22255  10.958   2.917   4.148 -0.2191 -0.1984 -0.0122
 5782W        W22256   2.972  17.888  11.402  0.1865 -0.1088  0.0065
 5783W        W22257  10.943  11.976   0.621  0.4196 -0.3306 -0.2355
 5784W        W22258   9.818   0.362   3.627  0.3526 -0.1065  0.0900
 5785W        W22259  19.078  19.103  11.779  0.0344  0.2017  0.0702
 5786W        W22260   7.658   9.667  12.031 -0.0261 -0.2447 -0.0879
 5787W        W22261   3.283  18.712   1.850 -0.0169  0.2222  0.0432
 5788W        W22262  14.538  15.912  11.082  0.0949 -0.5066 -0.5388
 5789W        W22263  17.786   5.055  11.767 -0.0417 -0.0627  0.3865
 5790W        W22264   0.831  18.866  10.832  0.1534 -0.1015  0.0178
 5791W        W22265  16.401   4.645  12.926 -0.2156 -0.2730 -0.2316
 5792W        W22266  18.252  15.336  13.692  0.4289  0.0992 -0.0024
 5793W        W22267  14.841  15.347  12.636 -0.0540  0.0020 -0.2234
 5794W        W22268  13.224  11.359   3.291  0.0090  0.2885 -0.0803
 5795W        W22269   6.049  16.117  14.058  0.1233  0.2266 -0.2273
 5796W        W22270   7.580  18.168   1.981 -0.2282  0.2608 -0.0723
 5797W        W22271   1.685   2.664  11.742  0.0820  0.0939  0.2144
 5798W        W22272  10.245   5.537  13.687 -0.0429 -0.0689 -0.1428
 5799W        W22273   8.541   8.924  14.413  0.3068 -0.0252 -0.2167
 5800W        W22274   7.741  18.436   4.054  0.0789 -0.0084  0.3073
 5801W        W22275   8.012  16.231  11.478  0.1340 -0.0629 -0.0814
 5802W        W22276   2.009  11.281  13.729 -0.0695  0.0381  0.0113
 5803W        W22277   2.114   8.070  12.220 -0.2026  0.0273 -0.0139
 5804W        W22278  11.293  13.220  12.587 -0.2765  0.0237  0.2544
 5805W        W22279   2.251  15.330  14.010  0.1074  0.0411  0.1166
 5806W        W22280  15.728   5.890   2.941  0.0922  0.0090  0.0232
 5807W        W22281  17.366  13.418  11.542 -0.1764 -0.1370  0.2001
 5808W        W22282  16.914  16.720   0.972 -0.2503 -0.2368 -0.0637
 5809W        W22283   8.565  15.098   4.827 -0.0647 -0.0366 -0.1879
 5810W        W22284   5.208   8.907  12.320 -0.0125 -0.3021  0.1582
 5811W        W22285   5.728  14.125   4.495  0.0523  0.0970  0.1143
 5812W        W22286   3.087  11.033  10.936 -0.1488 -0.1057  0.0801
 5813W        W22287   9.721   2.682   4.186 -0.4416 -0.2494 -0.0813
 5814W        W22288   1.242   7.329   4.097 -0.1364  0.2152  0.2448
 5815W        W22289  19.150   9.133   9.666 -0.1558 -0.0121  0.2740
 5816W        W22290  18.990  12.077   5.177 -0.0577 -0.1002  0.1269
 5817W        W22291  17.537  17.653   4.556 -0.2711 -0.0392 -0.1069
 5818W        W22292  16.565  11.237   5.152 -0.1360 -0.1660 -0.0210
 5819W        W22293  12.546  15.841   4.364 -0.1874  0.2681  0.1965
 5820W        W22294   2.388  13.490  10.966 -0.0762 -0.0532  0.2814
 5821W        W22295   5.154   7.865  13.327  0.1167  0.2295 -0.2297
 5822W        W22296  11.047  16.747   3.156 -0.5021 -0.0759  0.0311
 5823W        W22297  14.806  11.871  11.977  0.0136  0.0308  0.0009
 5824W        W22298  14.820  10.278   0.505  0.2211  0.1745  0.0012
 5825W        W22299  14.929   6.118   1.804  0.2696 -0.0347 -0.2039
 5826W        W22300   6.053   0.623  12.081  0.1274 -0.3385 -0.1488
 5827W        W22301   5.779  16.366  12.092 -0.2330 -0.0272  0.1107
 5828W        W22302  16.229  18.307   0.971  0.0715  0.0726 -0.0888
 5829W        W22303  14.134  15.982   1.578  0.1875 -0.0983 -0.3250
 5830W        W22304   1.068   3.660   4.782  0.3492 -0.3718 -0.2354
 5831W        W22305  12.492  14.469  12.175  0.0600 -0.4401 -0.0265
 5832W        W22306  17.232  17.690   9.474  0.2910 -0.0969 -0.0060
 5833W        W22307  18.280   8.814  13.659 -0.6715 -0.1043 -0.0155
 5834W        W22308  19.267   6.463  14.325 -0.1191 -0.0644  0.2005
 5835W        W22309  13.070   8.560  10.303  0.0152  0.2223 -0.0680
 5836W        W22310  17.172   4.888   1.269  0.0691  0.0243 -0.1331
 5837W        W22311   3.484  10.046  13.397 -0.1845 -0.1333 -0.1422
 5838W        W22312   0.812  12.480   4.308 -0.3399  0.0960 -0.0252
 5839W        W22313   1.334   8.530   3.387 -0.3225  0.1244  0.0739
 5840W        W22314  12.918   0.058  12.816  0.0805 -0.2773 -0.1255
 5841W        W22315   1.158   5.807   3.275 -0.0132  0.0554 -0.3537
 5842W        W22316  13.489  18.186   4.628  0.0229 -0.2514  0.1161
 5843W        W22317  16.894   0.418  13.202  0.0179 -0.0939 -0.1051
 5844W        W22318  18.801   3.738  13.773  0.2915  0.4125  0.1774
 5845W        W22319  15.964   3.284   0.288 -0.0536 -0.3336  0.1755
 5846W        W22320   0.810  16.112  14.201  0.1649 -0.0650  0.3229
 5847W        W22321  19.281   1.244  13.982 -0.1212 -0.0286  0.0897
 5848W        W22322  11.592  16.025   3.126 -0.0317 -0.0735 -0.1942
 5849W        W22323  10.192  17.219  10.752 -0.0199  0.2743 -0.0820
 5850W        W22324  14.341   1.675   1.130 -0.2408 -0.0209  0.0310
 5851W        W22325   1.995  13.893   5.952 -0.1357 -0.1736  0.5710
 5852W        W22326  15.435   0.184   1.919 -0.2278 -0.3289 -0.1092
 5853W        W22327   2.806   9.809   3.682 -0.1878 -0.0452  0.4511
 5854W        W22328  14.508   8.184  14.789 -0.2079 -0.2152 -0.0047
 5855W        W22329  13.328  16.627   1.046  0.0165  0.1103 -0.1741
 5856W        W22330  11.739  17.185   1.676 -0.1785  0.0392  0.0555
 5857W        W22331  16.581  16.921   2.100  0.0154  0.1958 -0.3198
 5858W        W22332  17.809   7.184  11.178  0.0153  0.1752 -0.1559
 5859W        W22333  13.590  10.008   1.931  0.0851  0.0905 -0.1277
 5860W        W22334  17.206  18.861   3.907  0.0111 -0.2528  0.1315
 5861W        W22335  13.138   6.382   3.196 -0.0573  0.0685 -0.3739
 5862W        W22336   5.682   6.112   9.046 -0.0300 -0.1580 -0.2142
 5863W        W22337  17.339  13.022   4.869 -0.1436 -0.1904  0.3871
 5864W        W22338  18.785   1.133   2.712  0.0941  0.1357 -0.0481
 5865W        W22339  18.154   6.490  12.214 -0.2149 -0.3359  0.0391
 5866W        W22340   8.135  19.060   3.334  0.2242  0.1729 -0.1462
 5867W        W22341   7.651  16.478  10.226 -0.3603 -0.1678  0.0690
 5868W        W22342  15.000  12.787   2.029 -0.3766 -0.0517 -0.1130
 5869W        W22343  12.419   6.345   2.426  0.1524 -0.4185 -0.1541
 5870W        W22344   5.604  12.921  13.385  0.1396 -0.1934 -0.0120
 5871W        W22345  11.043   4.341  14.668 -0.5127 -0.0144  0.3207
 5872W        W22346  19.091  18.739  14.692 -0.1149  0.0431  0.1509
 5873W        W22347   1.215   5.636  13.090 -0.1766  0.3260  0.2438
 5874W        W22348  17.725   9.839   1.729  0.1680  0.1093 -0.2496
 5875W        W22349   5.849  10.006  12.111 -0.0356 -0.0396  0.2182
 5876W        W22350   5.368   1.257  11.958 -0.2645 -0.0082 -0.0322
 5877W        W22351   8.564  16.524   2.513  0.1256 -0.0181  0.0868
 5878W        W22352  15.522  16.150   1.794  0.1927  0.1717 -0.2536
 5879W        W22353   1.532   9.323   4.245 -0.1416 -0.1066 -0.0428
 5880W        W22354  15.129   6.797   1.010  0.0481  0.0844 -0.0504
 5881W        W22355   4.508   0.956  13.518 -0.2254  0.1788 -0.2403
 5882W        W22356  18.550   8.146   5.158  0.0601 -0.0329  0.1304
 5883W        W22357  18.724   5.586   2.198 -0.0654 -0.4034  0.1516
 5884W        W22358  12.291  15.820  13.939  0.2182  0.1259  0.1284
 5885W        W22359   7.166   9.704   4.909  0.0753 -0.1368  0.2989
 5886W        W22360  12.229  11.602   2.785 -0.2005  0.4121  0.0785
 5887W        W22361   0.519  18.365   4.710 -0.0769  0.2421 -0.2168
 5888W        W22362  14.989   3.491  13.196 -0.1091 -0.0322  0.3969
 5889W        W22363   4.282  12.296  13.127 -0.1020  0.1741  0.2044
 5890W        W22364   2.015   1.157   0.638  0.0922 -0.2699 -0.0225
 5891W        W22365  13.341  11.321   1.077 -0.0774 -0.0451  0.1073
 5892W        W22366   3.762  16.613   3.147  0.0880 -0.1359 -0.1339
 5893W        W22367   0.940  14.225   3.030 -0.0200 -0.0725 -0.2176
 5894W        W22368   6.316  11.896  12.202 -0.1649 -0.0891 -0.2251
 5895W        W22369  15.645  17.749  12.926 -0.1419 -0.0790  0.0764
 5896W        W22370  17.884  16.942  12.037  0.2682  0.1926 -0.0263
 5897W        W22371  12.326   8.524   5.608  0.1007 -0.0606 -0.1846
 5898W        W22372   0.206  10.351   4.887 -0.0239 -0.3129 -0.1721
 5899W        W22373  11.380   4.480  11.327  0.0426  0.0025 -0.1966
 5900W        W22374  10.646  14.805   2.692 -0.0282 -0.0571 -0.2522
 5901W        W22375   6.265   6.563   3.660 -0.1862 -0.0240  0.0400
 5902W        W22376   5.863  16.221   0.114  0.0884 -0.1215  0.1827
 5903W        W22377   4.781  12.070   4.201  0.1721 -0.1594 -0.0997
 5904W        W22378   1.455  13.636   1.902 -0.3171 -0.2388  0.1255
 5905W        W22379   6.970  15.772   1.983  0.0148 -0.2497  0.1366
 5906W        W22380  14.878   6.509   3.154 -0.0777 -0.2076 -0.0388
 5907W        W22381   7.114   4.258  14.446  0.0812  0.0661 -0.0549
 5908W        W22382  14.285  16.131  12.710 -0.1672 -0.1070 -0.3198
 5909W        W22383  13.548  15.526  12.804  0.1659  0.0216  0.1441
 5910W        W22384  16.659   5.914  13.834  0.1137  0.1486 -0.1401
 5911W        W22385  18.108   7.033   3.666 -0.2159 -0.1418  0.1053
 5912W        W22386   4.991   1.230   3.118  0.0015  0.0365 -0.2152
 5913W        W22387   3.612  12.172   4.720  0.1750  0.3081 -0.1174
 5914W        W22388  13.927   4.208   9.964 -0.1150 -0.0022  0.2946
 5915W        W22389   6.978  11.988  11.266 -0.0951  0.0940 -0.0208
 5916W        W22390  10.300   8.386  14.140  0.4044 -0.1085  0.2387
 5917W        W22391  10.720  10.972  11.072 -0.0453 -0.1322  0.2207
 5918W        W22392  14.705  10.219  12.757  0.1406  0.1054  0.0031
 5919W        W22393   8.198  11.166   2.186 -0.1006 -0.5442  0.4655
 5920W        W22394   9.600  12.469  13.031 -0.2240  0.3750 -0.0770
 5921W        W22395   4.911   1.106  11.941  0.1003 -0.1571  0.2037
 5922W        W22396   4.693  12.331   3.209  0.3640 -0.2146  0.5215
 5923W        W22397  18.489   9.863  14.613  0.1354 -0.0343 -0.1743
 5924W        W22398  18.283  17.897  13.229 -0.2636  0.1100  0.1539
 5925W        W22399  10.281   5.039   1.483  0.2587 -0.0817  0.1639
 5926W        W22400   6.127  16.893   2.885  0.0283  0.0803  0.3394
 5927W        W22401  16.538   8.628  12.107 -0.0598 -0.0807  0.2706
 5928W        W22402  16.252  11.294  14.523 -0.1794 -0.2704 -0.0761
 5929W        W22403   9.502  13.336  13.987  0.1771 -0.0612 -0.1918
 5930W        W22404   0.876  10.995  11.381  0.0950  0.3242  0.4285
 5931W        W22405   0.906  15.731   4.352  0.1628 -0.0307 -0.1515
 5932W        W22406   4.708  11.454  13.227  0.0134  0.1914 -0.1164
 5933W        W22407  16.373   0.392  10.970  0.1775  0.0026 -0.1233
 5934W        W22408   0.658  10.859   2.584  0.4121 -0.2551 -0.2225
 5935W        W22409  16.171  10.759   3.886 -0.1551 -0.0152  0.3094
 5936W        W22410  11.706   6.139   4.025 -0.1978  0.0530  0.1534
 5937W        W22411  17.701   8.140   0.497 -0.0486  0.0357 -0.2012
 5938W        W22412   7.880   6.774   3.521 -0.1650  0.1940 -0.0525
 5939W        W22413  16.962  11.168   4.816  0.1485  0.4009  0.0631
 5940W        W22414  14.473   3.073  13.288 -0.3647  0.0487  0.1158
 5941W        W22415   9.881   6.357   4.143  0.0474 -0.3416 -0.2006
 5942W        W22416   7.401   8.076  10.527  0.2454 -0.0038 -0.0972
 5943W        W22417  11.207  15.167   0.405  0.0025 -0.2824  0.1165
 5944W        W22418  17.390   4.630  12.598  0.1894 -0.3603 -0.0439
 5945W        W22419   3.890  15.477   0.086  0.4330  0.2321 -0.1076
 5946W        W22420  10.459   4.775  13.458 -0.0102 -0.1080  0.0159
 5947W        W22421  11.391  11.494  10.885  0.2646  0.1714  0.0427
 5948W        W22422   5.504   9.118  12.958  0.2420 -0.0699  0.0483
 5949W        W22423   1.335   0.715   0.787  0.0602 -0.2648  0.3556
 5950W        W22424  11.015  17.867   4.383 -0.4025 -0.1242  0.1213
 5951W        W22425   0.058  12.703   2.267  0.2086  0.2222 -0.0006
 5952W        W22426   9.333   7.583   2.646  0.2308 -0.0973 -0.0831
 5953W        W22427  17.717   8.128   9.661  0.2235  0.0938 -0.0296
 5954W        W22428  12.382  17.307   5.245 -0.0106  0.0217 -0.1766
 5955W        W22429   3.384   2.789   9.413 -0.0378  0.0514  0.1148
 5956W        W22430  10.313   5.513  10.829  0.3287  0.4015 -0.2048
 5957W        W22431  17.009   1.150   1.202 -0.0393 -0.0852  0.3649
 5958W        W22432   2.737  13.620  11.749 -0.2829 -0.0116 -0.1872
 5959W        W22433  19.055  15.805   4.887  0.1560 -0.1804 -0.1830
 5960W        W22434  15.679   7.593  10.352  0.0652 -0.0245  0.0476
 5961W        W22435   5.775  16.961  12.297 -0.0588  0.2308  0.4610
 5962W        W22436   5.193  19.098  10.160  0.1081 -0.2095  0.2657
 5963W        W22437  11.100  16.622   0.604 -0.1112  0.0919 -0.1326
 5964W        W22438   8.736  10.896   4.860 -0.2897  0.2023  0.1379
 5965W        W22439  15.315   3.883   2.207 -0.1387  0.1731  0.0710
 5966W        W22440   2.050   6.044  13.263 -0.0847  0.1463 -0.0513
 5967W        W22441   8.275  15.446   0.441 -0.3910  0.2104 -0.1010
 5968W        W22442   9.450  17.238   1.558  0.4063 -0.0933 -0.1479
 5969W        W22443  11.260  10.081  13.091  0.0224  0.1560 -0.0453
 5970W        W22444  10.271   6.879   0.472 -0.0129  0.2415 -0.1383
 5971W        W22445   0.550  16.120   1.664  0.1457 -0.1431  0.1646
 5972W        W22446   6.378  11.007   4.752 -0.3186  0.1506 -0.2223
 5973W        W22447   0.549  10.630   3.989  0.2190  0.2496  0.1443
 5974W        W22448  12.566   1.566   4.054  0.2074  0.0818  0.0477
 5975W        W22449   6.932   4.379  11.409 -0.2200 -0.1162  0.0983
 5976W        W22450   2.044   5.558   1.816  0.0943 -0.5381 -0.1313
 5977W        W22451   8.684   0.641   1.579 -0.4487  0.3413 -0.1058
 5978W        W22452   4.439  18.723  14.492  0.0496 -0.1513 -0.2928
 5979W        W22453  12.071   7.316  10.711  0.1191  0.0349 -0.2025
 5980W        W22454  10.356  18.456   0.469 -0.2257  0.2344  0.1114
 5981W        W22455   3.593   4.788  11.547 -0.1496 -0.0174 -0.2044
 5982W        W22456  19.229   0.706   4.575 -0.0391  0.1372 -0.1112
 5983W        W22457  17.100   6.085  11.401 -0.1215 -0.1024  0.3406
 5984W        W22458  19.261   1.142   3.474  0.1489  0.1286  0.0665
 5985W        W22459  11.173   7.906  14.313 -0.2245 -0.0037  0.4536
 5986W        W22460   5.220   7.175   0.148 -0.0544 -0.0040  0.2126
 5987W        W22461   8.101   0.069  12.365 -0.0809  0.2126 -0.4092
 5988W        W22462   0.538   6.369   1.268 -0.0211  0.0132 -0.1024
 5989W        W22463   6.945   6.272  14.553 -0.0263  0.0427  0.1490
 5990W        W22464   2.289   6.205   2.281 -0.3395  0.5690  0.0047
 5991W        W22465  14.845  13.882   1.807 -0.4031  0.1037  0.0272
 5992W        W22466   7.923  14.762  10.990 -0.1317  0.1309 -0.1303
 5993W        W22467   7.875  15.592  10.987 -0.3521 -0.0282  0.0330
 5994W        W22468  11.293   0.641  11.571 -0.3251  0.0075 -0.2273
 5995W        W22469  12.858   3.886  11.700  0.0856  0.2880  0.3213
 5996W        W22470   5.549  18.457  11.294  0.1655  0.1910 -0.0650
 5997W        W22471  10.984   4.049   1.923  0.3047 -0.3022 -0.1316
 5998W        W22472  15.016  10.401  11.832  0.0920  0.2405  0.1754
 5999W        W22473  10.299   2.248   4.232  0.0415 -0.2195  0.0541
 6000W        W22474   0.436   6.683  11.027 -0.1114  0.0144  0.0413
 6001W        W22475   6.588   7.051  12.894  0.0948 -0.7633  0.0817
 6002W        W22476  17.123  15.135  14.810  0.2310 -0.1558 -0.2467
 6003W        W22477   3.343   5.729  14.241  0.2776  0.1097  0.0969
 6004W        W22478  13.954  12.087  13.172 -0.1115  0.0111 -0.2957
 6005W        W22479   2.937  17.638  10.033 -0.1477 -0.3764 -0.0766
 6006W        W22480   8.811   8.956  12.988 -0.1595 -0.1675  0.1361
 6007W        W22481  14.291  11.662  12.940  0.0964 -0.1364  0.1689
 6008W        W22482  13.520  10.932   4.726  0.1488 -0.3500 -0.0104
 6009W        W22483   1.446   7.967  12.973 -0.1211  0.1008  0.0816
 6010W        W22484   9.691  16.986  10.616  0.2404  0.0308  0.4024
 6011W        W22485  12.356  16.128  12.053  0.1218  0.1091  0.0096
 6012W        W22486   6.817   5.828  12.343  0.1217 -0.2011 -0.1159
 6013W        W22487   2.839  13.137   1.764  0.1546 -0.0486  0.2381
 6014W        W22488   4.085  17.785   0.685  0.1565 -0.0588  0.0241
 6015W        W22489   4.629   3.706  11.720 -0.1644  0.2963  0.0817
 6016W        W22490   7.521   7.260  12.162  0.2446 -0.4630  0.1492
 6017W        W22491  14.368   9.824   3.233 -0.2352 -0.1343 -0.6587
 6018W        W22492   9.087   3.489   0.602  0.0508 -0.1812 -0.0026
 6019W        W22493  18.111   6.030   1.366  0.2502  0.2967  0.0431
 6020W        W22494  15.794   8.692   0.811  0.1920 -0.0220 -0.2741
 6021W        W22495   4.886   1.242  11.377  0.1181 -0.0802 -0.2602
 6022W        W22496  10.844  13.142  12.719  0.0480  0.2912  0.2426
 6023W        W22497   5.366  12.103   2.017  0.0784  0.1754 -0.0705
 6024W        W22498   5.344   5.258  12.047  0.1254  0.0977 -0.1130
 6025W        W22499   8.865   4.072  10.063  0.1122 -0.0494  0.0338
 6026W        W22500  11.216  10.681  13.133  0.2394 -0.0168  0.0591
 6027W        W22501  18.515  18.563   1.053  0.1061  0.0245  0.3931
 6028W        W22502   4.019   3.390  10.422 -0.0109 -0.0951 -0.0974
 6029W        W22503   5.518  15.835   9.641  0.3773 -0.1105  0.1285
 6030W        W22504  10.783   9.200   1.355  0.1588  0.0323 -0.2463
 6031W        W22505  16.679  19.321  11.005 -0.1679  0.0625 -0.2489
 6032W        W22506  15.309   2.572   0.503 -0.1168  0.1720 -0.0889
 6033W        W22507   1.766   7.569   4.850 -0.0419  0.0979  0.1590
 6034W        W22508  16.916  18.201  11.501 -0.0888  0.1025  0.0559
 6035W        W22509   4.487   9.460   3.587 -0.2407 -0.1173  0.2109
 6036W        W22510  13.847  13.433   0.725  0.2948  0.2418  0.0940
 6037W        W22511  10.061   6.753  14.492  0.0243 -0.0027  0.4436
 6038W        W22512  14.963   4.134   5.041 -0.1158  0.0474 -0.4220
 6039W        W22513  17.378   1.701  13.713  0.1247  0.1031  0.0178
 6040W        W22514  19.352  16.929  11.275 -0.0618  0.2701  0.0103
 6041W        W22515   0.235  13.110   2.486  0.0407 -0.0516  0.0537
 6042W        W22516   2.624  12.045  14.646  0.1850  0.2899 -0.1437
 6043W        W22517  18.991  18.894   2.780  0.1994  0.0298  0.2164
 6044W        W22518  13.773  13.855  13.724 -0.1134  0.0193 -0.2355
 6045W        W22519   7.980   7.289   1.603 -0.1015  0.0844  0.0134
 6046W        W22520  17.103  11.919   0.085  0.1207 -0.3224 -0.2489
 6047W        W22521  13.115   1.381  10.469  0.0224  0.3223 -0.2452
 6048W        W22522   5.975  18.703   1.479  0.3348  0.0126  0.1406
 6049W        W22523   2.775   5.829   4.228  0.2142  0.1254  0.2746
 6050W        W22524   1.225  14.326  12.302  0.1176 -0.1981  0.1297
 6051W        W22525   2.356  10.788  11.699  0.2278 -0.0435  0.3368
 6052W        W22526   8.164  17.623   3.411  0.0624  0.0059  0.2214
 6053W        W22527  15.584  18.189   9.597  0.2869  0.1927  0.3191
 6054W        W22528  10.648  14.553   3.370 -0.2057 -0.1960 -0.3024
 6055W        W22529  17.323   5.887   5.494 -0.0024 -0.0033 -0.2086
 6056W        W22530   3.815  13.891   5.253 -0.1658 -0.0920 -0.0219
 6057W        W22531   0.864   3.562  12.867 -0.1570 -0.1258  0.2433
 6058W        W22532   7.684   3.526  11.587  0.2197  0.0905  0.1473
 6059W        W22533  12.537   3.160  13.623  0.0750 -0.0042  0.1618
 6060W        W22534   2.575  13.057   3.995  0.3980  0.1321  0.3969
 6061W        W22535   2.921   9.969   9.338 -0.2296  0.0067 -0.2467
 6062W        W22536  11.553   3.836   5.057  0.1782 -0.0587 -0.0550
 6063W        W22537  13.314   3.757   5.025 -0.1575  0.0091 -0.0354
 6064W        W22538   9.317  13.727   5.021  0.1729  0.0597  0.0481
 6065W        W22539  10.640  10.375  12.465 -0.1681  0.1747  0.1402
 6066W        W22540   4.388  16.568  12.434 -0.5510  0.3439 -0.0249
 6067W        W22541   6.598   2.403  14.641  0.3179  0.2140  0.0245
 6068W        W22542   5.938  17.809  13.240  0.0989 -0.0392  0.1673
 6069W        W22543   2.666  13.628   1.768 -0.0669 -0.0357  0.0241
 6070W        W22544   6.647   0.769  14.315 -0.1785 -0.1525  0.1163
 6071W        W22545  19.343   6.508  10.737  0.0127 -0.0744  0.1947
 6072W        W22546   2.875   3.714  14.640  0.1452 -0.0389  0.0645
 6073W        W22547  14.001  15.925   3.695 -0.0330  0.7640 -0.1658
 6074W        W22548   0.381  10.156  14.314  0.3061  0.1380  0.1384
 6075W        W22549   7.528  16.179  11.587 -0.1690  0.1079 -0.2010
 6076W        W22550   4.114  17.838  13.029 -0.0256  0.1415  0.1060
 6077W        W22551  16.888   6.469   3.257 -0.2100 -0.0524 -0.0601
 6078W        W22552   8.394   2.937   0.376  0.1450  0.0079  0.1625
 6079W        W22553   8.547   2.515   8.757  0.3972  0.1850 -0.1417
 6080W        W22554   1.773   1.362  12.439  0.0358 -0.1386  0.2846
 6081W        W22555   7.692  11.290   2.436 -0.0953  0.0707 -0.1228
 6082W        W22556  15.718   6.532   0.422  0.2233 -0.0198 -0.1016
 6083W        W22557  13.597  17.756   4.802  0.1445 -0.2680  0.1394
 6084W        W22558  15.765   9.053  10.924 -0.1899  0.4279 -0.0425
 6085W        W22559   5.477  19.276  10.540  0.0677  0.1585 -0.3952
 6086W        W22560  10.143  13.516   3.681  0.1247  0.1174 -0.2703
 6087W        W22561   1.639   3.434  13.396 -0.0898 -0.0093  0.0886
 6088W        W22562   6.323   6.543  12.918 -0.0910  0.0338  0.1312
 6089W        W22563   9.039   4.219  11.908 -0.1696  0.1093  0.2499
 6090W        W22564   0.820  16.287  12.992 -0.2510 -0.1268  0.2265
 6091W        W22565   7.392   1.441  10.993  0.1152  0.1399  0.0243
 6092W        W22566   2.285   5.811   4.258 -0.1818 -0.3424 -0.2862
 6093W        W22567  14.946   7.184   5.313  0.0252  0.1440  0.0135
 6094W        W22568   9.536   4.790  11.232  0.0439  0.0383 -0.2636
 6095W        W22569   2.881  12.331  12.057 -0.2937 -0.2369 -0.0153
 6096W        W22570   8.947  13.566  14.677 -0.1099 -0.4245  0.1755
 6097W        W22571  12.905   5.214  10.556 -0.1019  0.2420 -0.2386
 6098W        W22572  10.268  13.533  11.322 -0.0419  0.2011  0.0239
 6099W        W22573  10.426  17.948   1.277 -0.0611  0.1397  0.1568
 6100W        W22574   5.325  12.032   4.407 -0.0904  0.0350 -0.0989
 6101W        W22575   2.654  14.301   1.475  0.0362  0.0815  0.2639
 6102W        W22576  11.142  16.457  13.479 -0.2843  0.0228 -0.3658
 6103W        W22577  15.039  15.400  10.574 -0.0114 -0.1630  0.0290
 6104W        W22578  12.767   9.679   2.304 -0.0634 -0.2398 -0.2216
 6105W        W22579   4.347  12.867  13.175  0.0149  0.0262  0.1787
 6106W        W22580  13.065  12.799  12.906 -0.1180  0.1471 -0.2749
 6107W        W22581   7.264  15.029   1.180 -0.0482  0.0760 -0.1394
 6108W        W22582   8.478  14.313   4.908  0.0823 -0.0736 -0.0011
 6109W        W22583   9.298   2.393   2.464 -0.1027  0.0125  0.1056
 6110W        W22584  13.059   8.927  12.558 -0.2872 -0.0039  0.0340
 6111W        W22585  17.234  17.907   1.913  0.1220 -0.1675 -0.0729
 6112W        W22586   1.298   4.888   2.972  0.4847 -0.3097 -0.2306
 6113W        W22587   9.091  11.354  11.098 -0.1738  0.2266  0.5648
 6114W        W22588   5.808   1.686   9.392  0.1783  0.0732 -0.0790
 6115W        W22589   8.201  18.657  13.023 -0.1992  0.3385 -0.0099
 6116W        W22590   2.417  12.733   4.811  0.5845  0.1191  0.0502
 6117W        W22591   0.338   5.648   9.671 -0.2407  0.0019 -0.0086
 6118W        W22592   6.693   7.811  10.068 -0.2030  0.3702 -0.3039
 6119W        W22593   2.041   4.033   2.402 -0.0090 -0.0995 -0.1094
 6120W        W22594  10.353  11.946  13.606 -0.0418 -0.1127 -0.1472
 6121W        W22595   7.130   3.562  12.645 -0.0663  0.0279 -0.1953
 6122W        W22596   2.145  10.247   1.835  0.0545 -0.0253  0.0502
 6123W        W22597   0.312   3.458  10.560  0.0377 -0.2200 -0.0066
 6124W        W22598  11.211   5.055   1.575  0.0838  0.1273  0.0633
 6125W        W22599   9.072   6.403  13.312 -0.0531  0.3140  0.2460
 6126W        W22600   1.034  10.639  10.325 -0.2971  0.2226  0.0595
 6127W        W22601   2.482  17.331   5.621 -0.1001 -0.0605  0.1945
 6128W        W22602   2.931  12.809   3.581 -0.1292 -0.1799 -0.0329
 6129W        W22603  17.052   2.319   0.102  0.0140  0.3413  0.0235
 6130W        W22604   5.014  17.565  10.253  0.4632  0.0016  0.2551
 6131W        W22605   3.959   4.627   1.448 -0.0853  0.0379  0.2207
 6132W        W22606  13.663  13.366   3.120  0.1854 -0.3171  0.3541
 6133W        W22607  19.032   5.215   1.392  0.3166  0.1200  0.0578
 6134W        W22608   6.198   0.108   2.483 -0.1267  0.2102  0.1494
 6135W        W22609   7.832  13.142   1.329 -0.0266 -0.0613 -0.0718
 6136W        W22610   7.860  18.097  10.849  0.3714 -0.1981 -0.1961
 6137W        W22611  10.577  11.910  12.279  0.2294 -0.2152  0.3909
 6138W        W22612   8.902  12.006  12.439  0.4251 -0.0078  0.2390
 6139W        W22613  16.988   1.678   4.631  0.1117 -0.2639  0.2849
 6140W        W22614   6.860   0.737  13.157 -0.1043 -0.1008  0.1288
 6141W        W22615   8.931   0.691  11.291 -0.0136  0.1218  0.0179
 6142W        W22616  10.805  13.363   2.953  0.1599 -0.0343  0.0143
 6143W        W22617  13.516   5.203   1.441 -0.0420  0.1402 -0.0199
 6144W        W22618  12.138  15.309  12.494  0.0620  0.0342  0.2608
 6145W        W22619  13.628   5.646   1.464  0.1752 -0.2983 -0.2636
 6146W        W22620   7.946  11.061  12.487  0.0478  0.0574  0.2441
 6147W        W22621   7.519   8.040   1.446  0.3247  0.0127  0.2908
 6148W        W22622   6.868  18.125   3.799 -0.1435  0.0191  0.2536
 6149W        W22623   6.905  12.458  11.548  0.3060 -0.2771 -0.0784
 6150W        W22624  18.584   4.140  13.055 -0.0568  0.0847  0.0717
 6151W        W22625  15.664  16.661   2.032  0.0237  0.2160  0.0278
 6152W        W22626  18.739   4.241   4.990 -0.2114  0.2770  0.1250
 6153W        W22627   6.717   8.544   4.296  0.0471 -0.2683  0.0380
 6154W        W22628   0.471  10.403   2.909 -0.0199  0.0301 -0.1066
 6155W        W22629  15.938   8.985   1.213 -0.0913  0.1021  0.1957
 6156W        W22630   5.520   8.947  14.019  0.1665 -0.1729  0.1312
 6157W        W22631  15.930   2.797   0.337  0.5035  0.2698 -0.1637
 6158W        W22632   0.071  14.935   2.917 -0.0641  0.1075  0.0427
 6159W        W22633  14.367   5.405   0.853 -0.4018  0.1650 -0.0118
 6160W        W22634   4.429  13.454  11.050 -0.1980 -0.1424  0.1547
 6161W        W22635  12.612   2.153   3.474 -0.0888  0.3325 -0.0496
 6162W        W22636   0.968  10.330   4.042  0.2587 -0.1033  0.0115
 6163W        W22637  11.427  12.018  10.823 -0.1640  0.0328 -0.4086
 6164W        W22638  12.397   6.544   1.881 -0.1315  0.0131 -0.0833
 6165W        W22639  15.585   3.843  10.879 -0.2302  0.2304  0.1623
 6166W        W22640   5.120   8.119   4.051  0.3036 -0.3630 -0.1640
 6167W        W22641   7.991   6.091   1.562  0.0216 -0.5442 -0.0118
 6168W        W22642   1.614   9.579   1.650 -0.3771  0.3033  0.1906
 6169W        W22643  16.101   0.457  13.843 -0.2523 -0.1747 -0.1548
 6170W        W22644   3.871   2.390   1.711  0.0138  0.0365  0.1809
 6171W        W22645  10.521   3.411   4.525  0.0663  0.4575  0.1236
 6172W        W22646  15.249   2.922   4.418  0.0288  0.1594  0.1966
 6173W        W22647  14.029   3.433   3.994  0.3192  0.0611 -0.0250
 6174W        W22648   3.094   4.246   0.477  0.1208 -0.2014 -0.4408
 6175W        W22649   7.167  18.135  14.049 -0.1041  0.3812 -0.0190
 6176W        W22650   5.122   6.474   3.420 -0.2180  0.3508 -0.2518
 6177W        W22651   5.139   3.268  14.716 -0.1315 -0.0294 -0.4871
 6178W        W22652   8.645   7.778   1.975 -0.1547 -0.1806  0.0486
 6179W        W22653  11.766   3.750   4.126 -0.4420  0.2811  0.1431
 6180W        W22654  11.446  17.211  14.822  0.1487 -0.4265  0.0639
 6181W        W22655   6.825  10.576  14.755 -0.2382 -0.1824 -0.2339
 6182W        W22656  16.571  16.651  12.980  0.0898 -0.0997 -0.0780
 6183W        W22657   8.995   2.936   3.265 -0.1508 -0.1914  0.0055
 6184W        W22658   7.166  14.237   0.599 -0.0379  0.2678  0.0823
 6185W        W22659  11.457  14.455   4.195  0.0162 -0.2410 -0.1064
 6186W        W22660   7.006   7.415  10.882 -0.2043 -0.0757  0.2083
 6187W        W22661  12.309   0.396  12.488  0.1820  0.4972  0.1390
 6188W        W22662   1.419  10.111   1.410  0.0221  0.3834  0.0280
 6189W        W22663   8.949  18.046  10.587 -0.0882  0.0852  0.1211
 6190W        W22664   1.217   7.100   1.442 -0.4510 -0.1081 -0.1532
 6191W        W22665  13.053   5.691  12.712 -0.1004 -0.2569  0.2639
 6192W        W22666  12.740  15.490   2.563  0.0316 -0.1319 -0.2894
 6193W        W22667   9.745  17.175  11.030  0.2495 -0.4471 -0.1553
 6194W        W22668  18.018   6.403  12.804 -0.0700  0.1558 -0.0039
 6195W        W22669   1.840  14.126   6.385 -0.1927 -0.1214  0.2624
 6196W        W22670  12.300   6.421  13.808 -0.4585  0.3654 -0.0705
 6197W        W22671   0.741   1.137  14.029 -0.1841  0.3885  0.3934
 6198W        W22672  16.934   6.144   0.659  0.3515  0.1394  0.2026
 6199W        W22673   6.397  12.408  11.754 -0.0354 -0.0708  0.1452
 6200W        W22674  17.036  13.462  12.537 -0.0019  0.0389 -0.3837
 6201W        W22675  12.815  15.951  14.110 -0.1381 -0.1989  0.5234
 6202W        W22676   9.761  15.362   4.616 -0.0779 -0.0146  0.0496
 6203W        W22677  19.032   7.359  13.460  0.3224 -0.1568  0.5028
 6204W        W22678  10.368   8.292  14.740  0.1828  0.0601  0.1986
 6205W        W22679  10.667  16.567   0.361 -0.1072 -0.1034  0.0959
 6206W        W22680   3.187  11.645  12.171 -0.2866  0.0404 -0.1258
 6207W        W22681   5.857   3.909  13.538  0.3441 -0.2411 -0.0097
 6208W        W22682  14.930  16.246   2.492  0.2725  0.4151  0.0901
 6209W        W22683  11.891   1.998   4.541 -0.1463 -0.1405 -0.1720
 6210W        W22684  17.618   6.721   2.432 -0.2226 -0.2459 -0.1295
 6211W        W22685   6.031  15.023  11.773  0.0981 -0.0427 -0.1719
 6212W        W22686   7.444  10.649   1.616  0.1801  0.1241  0.2194
 6213W        W22687   9.459  10.792   1.374  0.0069 -0.1218 -0.2892
 6214W        W22688   5.592  10.153  10.373 -0.1465 -0.1106 -0.0395
 6215W        W22689   5.827  18.428  14.411  0.3627 -0.1645 -0.1027
 6216W        W22690   5.458   9.530   3.628  0.1229 -0.1049 -0.0344
 6217W        W22691  14.858   9.194   4.246 -0.2901 -0.2899  0.2182
 6218W        W22692  14.164  10.535   4.062  0.1797  0.1643  0.1653
 6219W        W22693  12.941   3.121   2.575  0.1347 -0.0511 -0.1299
 6220W        W22694  13.415  16.674   1.550  0.1681 -0.0653  0.0781
 6221W        W22695   6.042   1.025  13.601 -0.2127 -0.1763  0.2145
 6222W        W22696  17.982   4.688   0.367 -0.1979 -0.1705 -0.1763
 6223W        W22697   1.548   7.945   1.480 -0.1777 -0.1505 -0.0787
 6224W        W22698  17.263   9.604   2.135  0.0596  0.2587  0.2890
 6225W        W22699   7.469   6.624  13.464  0.0447  0.1845 -0.0170
 6226W        W22700   2.897   3.437  12.683  0.0277  0.0781  0.2951
 6227W        W22701   0.785   7.329   1.192 -0.1247 -0.1803  0.1810
 6228W        W22702  11.959  11.720  13.382  0.1727  0.1049 -0.2944
 6229W        W22703  16.687  18.456  14.395  0.3223 -0.0769 -0.2450
 6230W        W22704   1.886  19.222   0.062 -0.3026  0.1438 -0.1980
 6231W        W22705  10.829  16.234  10.568  0.0805  0.2911 -0.1808
 6232W        W22706  10.090  15.928  11.693  0.0926 -0.1058 -0.0315
 6233W        W22707  18.992   3.728   4.883 -0.1091  0.1226 -0.2840
 6234W        W22708   2.738  18.610  14.612  0.0033  0.1219 -0.1691
 6235W        W22709  15.054   5.371   3.601  0.0188 -0.0905  0.3175
 6236W        W22710   1.778   4.664   3.213 -0.1109  0.2474 -0.2644
 6237W        W22711   4.806   4.955  14.845  0.1141  0.3373 -0.1196
 6238W        W22712   5.220  13.647   2.384 -0.1310  0.4182  0.0494
 6239W        W22713  16.131  18.143  12.734 -0.1586  0.0949 -0.2278
 6240W        W22714   0.019  16.890   3.714 -0.1937 -0.2268 -0.0442
 6241W        W22715  17.404  12.944  13.272  0.0495 -0.2975  0.2084
 6242W        W22716  14.265   1.486   5.900 -0.1555 -0.3388 -0.1840
 6243W        W22717  10.909   2.184  12.103 -0.2330  0.0552  0.0203
 6244W        W22718  14.928   4.410   9.743  0.0869  0.1780  0.3129
 6245W        W22719  18.479   9.747   1.293  0.1170 -0.1962  0.1714
 6246W        W22720  17.066   1.687   3.201  0.0224  0.2750 -0.1214
 6247W        W22721   7.976   7.940   1.205 -0.0180 -0.0505 -0.1098
 6248W        W22722   0.930   7.739   0.855  0.2246  0.2191 -0.0152
 6249W        W22723   2.577   8.837   0.549  0.2123 -0.0113  0.1939
 6250W        W22724   8.172   6.016  12.889 -0.0878 -0.1693  0.1807
 6251W        W22725   9.789   8.476   0.594  0.2789 -0.0970 -0.1694
 6252W        W22726   3.925   1.748   3.453  0.0223  0.0958 -0.1082
 6253W        W22727   0.301  18.271   1.839 -0.3196  0.2353  0.3078
 6254W        W22728  17.018  18.226   1.138 -0.0083  0.0514 -0.2772
 6255W        W22729  19.143   8.940   4.678 -0.0713 -0.0341  0.2270
 6256W        W22730   7.292   2.952   3.218  0.1882  0.2117 -0.0498
 6257W        W22731  15.179   8.282  11.471 -0.3990 -0.0007  0.0653
 6258W        W22732   5.964  12.631  11.664  0.2771 -0.0324  0.0734
 6259W        W22733   4.800  17.414  14.461 -0.1160  0.1492  0.0510
 6260W        W22734  17.636  17.440  12.105  0.0851 -0.3116  0.0755
 6261W        W22735   1.681   3.521   1.906 -0.0482 -0.2100 -0.2829
 6262W        W22736  19.198   6.032  11.475 -0.0465 -0.3438  0.0387
 6263W        W22737  16.426   6.027   1.987 -0.1915 -0.1045 -0.1187
 6264W        W22738   3.073  15.097   2.359  0.0050  0.1652  0.0402
 6265W        W22739  16.851   1.364   2.229 -0.2584 -0.0357 -0.0120
 6266W        W22740  16.451  11.391  12.426 -0.1081 -0.0538  0.0408
 6267W        W22741   2.754  11.425   5.480  0.0776 -0.3090 -0.0393
 6268W        W22742   2.955   1.530  12.690 -0.1814  0.1875  0.1282
 6269W        W22743   2.029   1.020  11.189  0.0701  0.1731  0.1032
 6270W        W22744  12.360   9.121  13.254 -0.4008 -0.2410  0.0011
 6271W        W22745  12.771  16.603   4.871 -0.1508  0.0709 -0.0040
 6272W        W22746  16.845   6.884  14.676  0.0884 -0.2192  0.0499
 6273W        W22747   9.768  18.663  12.627 -0.0472 -0.0745  0.2774
 6274W        W22748  14.964   0.050  12.340 -0.0464 -0.1401  0.1104
 6275W        W22749  12.600   8.654  13.940 -0.1301 -0.2754  0.1636
 6276W        W22750   6.781   8.392   9.818 -0.1166 -0.0532 -0.1358
 6277W        W22751   1.225   4.406   1.409 -0.1288  0.0929 -0.2403
 6278W        W22752   7.454   0.167   9.953  0.0453 -0.1815  0.0155
 6279W        W22753   4.755  18.533  12.795  0.1054 -0.0428  0.2261
 6280W        W22754  17.209   3.613  13.301  0.0395 -0.0466  0.2342
 6281W        W22755   1.114  18.329   2.168 -0.1502  0.0157  0.0005
 6282W        W22756   6.681  13.737   3.783 -0.3271 -0.0910  0.0645
 6283W        W22757  11.948  16.819  11.060 -0.0088  0.1121  0.1690
 6284W        W22758   2.624   7.241   1.260  0.0901 -0.2124  0.2872
 6285W        W22759   6.976  14.699   9.662 -0.0334  0.0521 -0.2091
 6286W        W22760  10.764   4.411   4.711 -0.0059  0.1725 -0.0240
 6287W        W22761   8.876   1.149  13.483  0.0361 -0.1424  0.1993
 6288W        W22762  16.088  10.448  14.608 -0.1482  0.0246 -0.2284
 6289W        W22763   7.032   0.980  13.578 -0.0817 -0.2282 -0.0848
 6290W        W22764  16.786   7.784  13.775  0.3736 -0.0324 -0.1124
 6291W        W22765  18.449   9.090   0.612 -0.3050  0.2348  0.0543
 6292W        W22766  16.135  16.555   1.540 -0.2716 -0.0522 -0.2080
 6293W        W22767   4.985   9.636  14.208 -0.1140  0.0919 -0.1512
 6294W        W22768   4.257  10.670  14.505 -0.1643 -0.1140  0.2601
 6295W        W22769   4.362  14.127   9.969 -0.0838  0.1677 -0.0586
 6296W        W22770  14.626   8.790   1.380 -0.0038  0.0131 -0.3568
 6297W        W22771  15.321  14.960  14.059  0.4023 -0.0170  0.0416
 6298W        W22772   6.221   0.656   0.985 -0.1651  0.0081 -0.0678
 6299W        W22773  14.379  14.514   1.781  0.2132  0.0331  0.0634
 6300W        W22774   6.831   7.513  11.585  0.3572 -0.2638  0.2043
 6301W        W22775  17.501  12.274   0.057 -0.0148  0.1295  0.2576
 6302W        W22776   4.050  14.852  12.848 -0.1139 -0.1058 -0.3003
 6303W        W22777  10.745  11.798   1.722 -0.0278 -0.0665 -0.0507
 6304W        W22778   5.532  12.519   0.660 -0.3933 -0.0071  0.1364
 6305W        W22779   5.088   5.925  10.335 -0.1089  0.1034 -0.0114
 6306W        W22780   0.628  15.970   4.779 -0.3024  0.0127 -0.4967
 6307W        W22781   1.906  14.172   1.463 -0.3210  0.3190  0.2251
 6308W        W22782  17.021  10.211  12.019  0.0038 -0.0422 -0.2294
 6309W        W22783   5.136  10.865  10.433  0.0151  0.1273 -0.0326
 6310W        W22784   8.718  13.478   0.752 -0.0884  0.0191 -0.2041
 6311W        W22785  15.821   2.373   3.777 -0.0113  0.1810  0.2872
 6312W        W22786   8.690  13.008  10.584  0.0954  0.1524 -0.1659
 6313W        W22787   5.418   2.693  14.098  0.5656  0.0507  0.2430
 6314W        W22788   0.857   9.119   4.696 -0.1483  0.1285 -0.0578
 6315W        W22789   8.906  16.868  14.351 -0.0568 -0.2333  0.2289
 6316W        W22790  18.728   1.946   4.820  0.1184  0.0720 -0.0285
 6317W        W22791   7.953   6.275  14.481 -0.0036 -0.2323  0.0017
 6318W        W22792  17.116   8.060  11.927  0.0818 -0.1792 -0.1218
 6319W        W22793  10.118  16.045  12.510 -0.1762 -0.1258  0.3351
 6320W        W22794  15.598   3.652  13.900 -0.0581 -0.1902  0.1021
 6321W        W22795  11.193  15.391   2.337 -0.0029  0.1650 -0.1427
 6322W        W22796  15.776   8.310   5.025  0.0201  0.0357  0.1052
 6323W        W22797  15.007   5.129  11.920  0.0071  0.1324  0.3677
 6324W        W22798  10.636  11.634   2.865  0.1563 -0.0320  0.1840
 6325W        W22799   2.787  10.844   3.172  0.4450 -0.0457  0.1924
 6326W        W22800   3.095  15.298  14.483 -0.0752  0.1677 -0.1660
 6327W        W22801   5.676   1.917   2.848  0.1613 -0.0190  0.0618
 6328W        W22802  17.930  12.519  12.828  0.3699 -0.0991 -0.2889
 6329W        W22803   2.780   2.201  11.062  0.0175  0.0218  0.5218
 6330W        W22804  12.044   3.358  13.743 -0.1336 -0.2705 -0.1427
 6331W        W22805   0.285  11.741   2.213 -0.2673  0.0815 -0.1023
 6332W        W22806   6.905  11.109   2.200 -0.2023  0.1878 -0.1522
 6333W        W22807   8.222  12.081   3.956 -0.1525 -0.3901 -0.0031
 6334W        W22808   7.278  10.910   4.628  0.2893 -0.1540 -0.3001
 6335W        W22809   4.735   4.990   0.918  0.4395  0.0006  0.0407
 6336W        W22810  19.096  13.203   2.488  0.0502  0.0878 -0.1405
 6337W        W22811   2.117   4.289  13.658  0.2673  0.0676  0.0363
 6338W        W22812   2.012   6.968   0.651  0.1370  0.2691  0.0089
 6339W        W22813   4.329   1.246   0.854  0.1477 -0.1433  0.0545
 6340W        W22814   9.870  12.736   3.464  0.2870  0.2637  0.0112
 6341W        W22815   3.580   7.726  10.468  0.4657  0.1839 -0.0493
 6342W        W22816   8.645  11.197  13.006  0.1931 -0.1348 -0.2402
 6343W        W22817   8.674   0.916  12.657 -0.0980  0.1585  0.0777
 6344W        W22818   2.850   4.218  13.896 -0.3558 -0.0712  0.2544
 6345W        W22819   8.687   5.722  10.123  0.0988  0.2580 -0.0225
 6346W        W22820   0.449   3.902   0.243 -0.1678 -0.4225  0.1078
 6347W        W22821  10.316   6.562   4.323 -0.0335 -0.0360  0.3035
 6348W        W22822  14.581  12.211   3.278  0.0049  0.1212 -0.0710
 6349W        W22823   2.189  19.022  11.471  0.0514  0.1044 -0.0454
 6350W        W22824   0.109  16.872  11.837  0.1002 -0.0001  0.3181
 6351W        W22825   5.037  19.088   4.275 -0.1079  0.2469 -0.3121
 6352W        W22826   3.396   1.735  12.886 -0.0700  0.1265  0.0974
 6353W        W22827   2.576   1.623   1.091  0.2998 -0.0804 -0.1604
 6354W        W22828   7.602  13.958  14.621  0.0866 -0.1235  0.0453
 6355W        W22829   2.939   7.614   1.081 -0.1917  0.0565 -0.0469
 6356W        W22830   6.896  10.111  12.727  0.2002 -0.0889 -0.0495
 6357W        W22831   0.344  13.293  12.601  0.0569  0.4621 -0.0597
 6358W        W22832  10.217  16.727   4.399  0.1727 -0.1882  0.2327
 6359W        W22833   4.036   8.133   3.786 -0.1162 -0.0783  0.0663
 6360W        W22834  17.689   6.683  13.345  0.3667 -0.0847  0.3148
 6361W        W22835  18.269   7.572   4.020  0.0253  0.2896  0.3765
 6362W        W22836   3.851  18.937   3.595  0.0223 -0.1152  0.3319
 6363W        W22837  10.016   2.801  13.058  0.1605  0.0574 -0.3362
 6364W        W22838   9.371   6.777   2.192 -0.0122  0.1421 -0.2916
 6365W        W22839  14.032  15.427  12.130 -0.1547 -0.1704 -0.1226
 6366W        W22840  15.138   0.015   5.096  0.0193  0.1586 -0.4282
 6367W        W22841   0.475   9.217  11.485  0.0854  0.0384  0.3737
 6368W        W22842  12.012   9.712   1.033 -0.1154 -0.0951  0.3875
 6369W        W22843  17.408   2.903   1.419  0.0269 -0.1249 -0.1084
 6370W        W22844  17.194  18.843  13.161 -0.0167  0.0313  0.1478
 6371W        W22845   3.349   6.085   1.484  0.1798 -0.2196 -0.2758
 6372W        W22846  16.117   1.313   4.532 -0.0311  0.1571 -0.0830
 6373W        W22847   7.345  12.682  14.429 -0.2113  0.0900 -0.0912
 6374W        W22848   8.251  17.523   0.690 -0.0772  0.1873  0.0667
 6375W        W22849  13.707   1.243  13.745  0.0415  0.2535  0.0152
 6376W        W22850   3.204  17.220  10.910  0.1348 -0.3459 -0.1223
 6377W        W22851   5.630   5.097   3.370  0.1110  0.0711  0.1633
 6378W        W22852  17.246  14.130  12.903 -0.0186 -0.2921 -0.4282
 6379W        W22853   9.493   5.213   0.415 -0.0857 -0.1315  0.2011
 6380W        W22854   5.676   5.286   2.027 -0.0554  0.3696  0.0644
 6381W        W22855  18.941   9.534  13.759  0.0921 -0.0118 -0.1063
 6382W        W22856  15.604   8.076  13.997  0.0637 -0.0727 -0.0054
 6383W        W22857   6.437   0.137  13.731 -0.0965 -0.0573  0.2451
 6384W        W22858   7.661  13.491   4.106  0.2759  0.0406 -0.0884
 6385W        W22859  12.981  12.780   2.702  0.2996 -0.0675 -0.2839
 6386W        W22860   9.448  10.470  13.184  0.1726 -0.1723 -0.2680
 6387W        W22861   2.434  10.240  12.822 -0.0869  0.1598  0.1851
 6388W        W22862   1.722  18.591  14.090 -0.0001  0.3398 -0.2734
 6389W        W22863  10.271  15.090  10.707  0.1330 -0.0378 -0.0102
 6390W        W22864   0.665  17.514   1.153  0.0634  0.1320  0.0559
 6391W        W22865  14.002  15.855   5.081 -0.2967 -0.3110 -0.1953
 6392W        W22866  17.559   7.225  12.189 -0.4876 -0.3560  0.1125
 6393W        W22867  13.883  16.465   0.774 -0.0374 -0.1817  0.0106
 6394W        W22868  16.567   5.102  12.728  0.2214  0.0200  0.1187
 6395W        W22869   2.649  11.608   0.480 -0.0694 -0.1642  0.0761
 6396W        W22870   0.610  11.013  14.652  0.1713  0.0156 -0.2112
 6397W        W22871   6.629  10.809   5.276 -0.0805  0.1374  0.0784
 6398W        W22872   9.108  15.705   2.188  0.2057  0.0842  0.1914
 6399W        W22873  12.291   5.856  14.429  0.0104  0.0873  0.2881
 6400W        W22874   7.076  11.944   3.807 -0.0823 -0.2192 -0.2251
 6401W        W22875   1.250   0.951  13.903 -0.2058  0.0905  0.1331
 6402W        W22876   7.423  10.059   2.087 -0.4661  0.0766 -0.0614
 6403W        W22877   0.327  17.768   0.127  0.1881  0.1104 -0.1343
 6404W        W22878   4.046  10.241  12.132  0.0561  0.2562  0.0882
 6405W        W22879   0.638  14.374  11.526 -0.0747  0.2930 -0.0152
 6406W        W22880   5.135   2.592   2.320 -0.1434  0.1368  0.0620
 6407W        W22881  12.400  12.776  11.817  0.5058 -0.4471 -0.0457
 6408W        W22882  17.087  13.852  13.794 -0.2317 -0.0636 -0.1028
 6409W        W22883  11.690  17.181  10.803 -0.3620 -0.0155  0.1306
 6410W        W22884  11.347  19.328   2.583  0.2503 -0.0533  0.1250
 6411W        W22885  11.913  12.872   0.767  0.2845  0.0122  0.1154
 6412W        W22886   4.833  14.684   4.759 -0.1948 -0.2357  0.0908
 6413W        W22887  13.492   1.776  12.019 -0.6704  0.0113  0.0126
 6414W        W22888   8.130  16.966   2.660 -0.1233 -0.3277  0.2756
 6415W        W22889   6.041   2.988  14.079 -0.0834  0.2475  0.1308
 6416W        W22890   7.467  16.979  11.094 -0.0708 -0.1491  0.2019
 6417W        W22891   3.424  11.661   4.592 -0.3326 -0.0985 -0.2249
 6418W        W22892   0.779  12.287  14.077 -0.0155 -0.0197  0.1084
 6419W        W22893  11.838   2.245  14.555  0.0747 -0.1218 -0.3435
 6420W        W22894  16.270   6.364   2.358  0.0563  0.1790  0.0965
 6421W        W22895   9.735  11.466   2.695 -0.0540 -0.1028  0.0887
 6422W        W22896   2.153   1.655   0.689  0.1750 -0.4006 -0.1965
 6423W        W22897   0.612   1.225   2.073 -0.1430  0.2462 -0.1309
 6424W        W22898  17.813   4.701   2.818 -0.0825  0.1155 -0.1213
 6425W        W22899   7.385   3.461   0.253 -0.0936  0.1979  0.1988
 6426W        W22900   6.748  13.404   0.529 -0.3699  0.0571  0.0460
 6427W        W22901  19.189   4.635   1.441  0.0051 -0.1801  0.0588
 6428W        W22902   8.344  17.169  12.587  0.1004 -0.1763 -0.1303
 6429W        W22903   0.003  14.276  14.543 -0.2954  0.2405 -0.1418
 6430W        W22904   1.514   7.938   4.596 -0.1858  0.1004  0.1690
 6431W        W22905   0.930  14.992   2.654 -0.0022 -0.1230 -0.3368
 6432W        W22906   7.242   6.393  10.268  0.3281 -0.2495 -0.1070
 6433W        W22907   6.658   3.419  12.754  0.2267 -0.0726  0.1112
 6434W        W22908   7.695  10.476   3.804  0.1123  0.0957 -0.1141
 6435W        W22909  14.447  13.842   4.286  0.0506  0.1193  0.0171
 6436W        W22910  18.317  10.507  12.849 -0.1196  0.1516 -0.0108
 6437W        W22911   3.227   9.773  14.638  0.0362  0.0455 -0.2414
 6438W        W22912   6.553  13.342  11.970 -0.2288 -0.0869 -0.0682
 6439W        W22913   2.227  10.422   0.444  0.0509 -0.0149 -0.0546
 6440W        W22914   8.274  19.177  12.835 -0.1667 -0.3631 -0.3842
 6441W        W22915   3.146   4.486  13.434 -0.3743 -0.2318  0.0089
 6442W        W22916   7.419   8.092   3.704 -0.4777 -0.0578 -0.0280
 6443W        W22917   0.402  10.196  11.118  0.1044 -0.0647 -0.2858
 6444W        W22918   2.499   0.471  10.666  0.0370  0.1590  0.0198
 6445W        W22919  14.174   0.836  13.025 -0.2719 -0.0044 -0.0680
 6446W        W22920  18.377   4.595  12.093 -0.0441  0.2585  0.0785
 6447W        W22921  14.836   8.725   4.029 -0.3427  0.0215 -0.0805
 6448W        W22922  12.910   5.255   2.920 -0.0732  0.1561 -0.0900
 6449W        W22923  10.079  10.323  14.002 -0.0515  0.0904  0.1986
 6450W        W22924   6.864   0.105  11.717  0.0551 -0.0655 -0.0372
 6451W        W22925  18.696   3.048   1.698  0.2025 -0.0630 -0.2752
 6452W        W22926  10.688   9.805  12.433  0.0243 -0.3210 -0.3669
 6453W        W22927  11.527  14.822  12.005 -0.2473  0.2767 -0.1136
 6454W        W22928  14.198  16.251  11.807 -0.4033  0.0610 -0.3540
 6455W        W22929   3.501  13.991   2.537  0.0463 -0.0281 -0.1994
 6456W        W22930  11.905  14.178   4.996  0.1866 -0.1008  0.2995
 6457W        W22931   7.774  15.189   2.024 -0.0356 -0.0968 -0.0330
 6458W        W22932  14.612   3.000   3.289 -0.0756 -0.2048 -0.1920
 6459W        W22933  18.437  17.475   0.038 -0.0816  0.0596  0.0302
 6460W        W22934   2.447   5.457   3.349  0.1268 -0.1613 -0.0263
 6461W        W22935   9.384   9.935   3.974 -0.1506  0.1110  0.0842
 6462W        W22936  17.171  14.887  11.741  0.0315 -0.0857  0.2046
 6463W        W22937  15.405   5.821  14.098  0.2423 -0.1540 -0.2448
 6464W        W22938   1.891   7.575   3.277  0.1309 -0.3180  0.1965
 6465W        W22939   4.729  11.830   2.804  0.3110 -0.5554 -0.4167
 6466W        W22940   5.602  12.976   2.486  0.2786 -0.2158 -0.0521
 6467W        W22941  12.125  12.980   4.931  0.1126  0.3139  0.0381
 6468W        W22942   8.610   0.249   3.071 -0.2269  0.0070 -0.0203
 6469W        W22943   2.220  12.799  12.291  0.2917 -0.1339  0.0142
 6470W        W22944   4.783   2.301   0.385  0.2026  0.0426 -0.2749
 6471W        W22945   0.744  12.585  11.636 -0.3842  0.2020 -0.0164
 6472W        W22946  13.980   4.334   3.037 -0.2447  0.3348 -0.0338
 6473W        W22947  11.653   1.917  11.144  0.0581 -0.1441  0.1739
 6474W        W22948   3.978  12.594   4.758 -0.5222 -0.0665 -0.1235
 6475W        W22949  19.272   5.473   4.534  0.0001  0.2588  0.2703
 6476W        W22950  15.585  12.670  12.981 -0.0411 -0.4239 -0.1002
 6477W        W22951   6.525  15.256   4.854 -0.0669 -0.1500  0.3844
 6478W        W22952  15.230  16.674  11.301  0.1462  0.3055  0.1672
 6479W        W22953   0.834  18.536  11.846  0.3100 -0.1154 -0.0287
 6480W        W22954  11.496   7.886   2.468 -0.0259 -0.0652  0.1564
 6481W        W22955   9.826   1.322   9.860 -0.0221  0.0844 -0.0828
 6482W        W22956  13.662  19.137  13.082 -0.2762  0.3339  0.3207
 6483W        W22957   1.954   7.467  13.482  0.0149  0.1869  0.0632
 6484W        W22958  13.313   9.721   1.413  0.1495  0.2850 -0.0891
 6485W        W22959  15.908   1.013   1.548  0.2084 -0.0017 -0.0005
 6486W        W22960  11.204  16.145   0.739  0.2688 -0.1989 -0.2840
 6487W        W22961  12.017  15.874   5.012 -0.1661  0.2214  0.2185
 6488W        W22962  11.683   9.239   0.440  0.1225 -0.0366  0.0849
 6489W        W22963   7.608  12.109   4.122 -0.1118 -0.1114  0.0621
 6490W        W22964  19.177  17.802  13.549  0.0289 -0.1318  0.0943
 6491W        W22965  14.736  11.580   9.618  0.1529  0.0957 -0.1204
 6492W        W22966  14.321  10.814   3.265  0.1060 -0.1135  0.2348
 6493W        W22967   7.430   9.047   1.760 -0.0821  0.1190 -0.5095
 6494W        W22968  15.334   9.547   4.164 -0.3586  0.0134 -0.0222
 6495W        W22969   7.166  14.073   3.779 -0.2312 -0.0568  0.1907
 6496W        W22970   0.193  13.716  12.312  0.0073  0.0758  0.1303
 6497W        W22971  16.300   4.189   4.186  0.1175 -0.2079 -0.2958
 6498W        W22972  11.396   4.337   1.963 -0.1204 -0.1893  0.0736
 6499W        W22973   5.341   2.011  11.282 -0.2391 -0.0466  0.2793
 6500W        W22974   6.751   9.923  10.429  0.2673  0.0935  0.1557
 6501W        W22975  14.564   1.963   4.776  0.0692  0.1250 -0.0243
 6502W        W22976   3.042   6.993  10.657  0.2016 -0.0790 -0.1038
 6503W        W22977   4.821   7.544  10.051  0.1287  0.4138  0.3620
 6504W        W22978  10.376  12.400   4.652  0.3088  0.0140 -0.0882
 6505W        W22979   0.479  14.671   3.835 -0.0606  0.3399 -0.1569
 6506W        W22980   1.513  11.152   4.033 -0.0153  0.1312  0.5270
 6507W        W22981   4.513   4.284   9.976  0.0598  0.0734  0.1368
 6508W        W22982  11.866   4.779  13.232  0.1269 -0.0148  0.2321
 6509W        W22983   4.092   8.344   5.593  0.1809 -0.0644  0.0507
 6510W        W22984   0.550  15.038   2.355 -0.0248  0.0549 -0.2195
 6511W        W22985   2.465   2.590   1.042  0.1174 -0.0540  0.0238
 6512W        W22986   2.675   6.980   0.204 -0.1940 -0.0919 -0.0478
 6513W        W22987   8.751   5.001   2.160  0.0756 -0.0876  0.0717
 6514W        W22988   6.178  14.948   4.178  0.0757  0.0864  0.1264
 6515W        W22989  18.756   7.573  11.011  0.1077 -0.0133  0.2620
 6516W        W22990   6.150  19.374   3.757 -0.0406  0.0227 -0.0595
 6517W        W22991   7.879   7.932   3.767 -0.0497  0.3989 -0.1133
 6518W        W22992   4.852  11.847   3.757 -0.2583 -0.3199  0.0061
 6519W        W22993  16.253  10.827   3.049  0.1839  0.1130  0.4355
 6520W        W22994  13.464  11.282  11.944  0.2298  0.0514  0.1305
 6521W        W22995  11.912  14.956   2.599  0.2698 -0.1555 -0.0194
 6522W        W22996   7.589  15.346  11.864 -0.2944 -0.2347  0.0435
 6523W        W22997   3.801  13.567  11.840  0.1672  0.2245  0.0551
 6524W        W22998   2.226   1.861   2.308 -0.1126  0.1415  0.0579
 6525W        W22999   2.660  14.337   5.369 -0.1394  0.1843 -0.1319
 6526W        W23000  12.779   7.438   4.166  0.1795  0.0981  0.1870
 6527W        W23001   2.133  12.516  11.336  0.4620 -0.2100 -0.2956
 6528W        W23002   4.861   7.289  12.824  0.2593  0.1368 -0.5216
 6529W        W23003  16.115   3.173   3.606 -0.3154 -0.1065  0.1667
 6530W        W23004  10.260   6.465   2.617  0.2843  0.0729  0.1289
 6531W        W23005  16.388   3.068   4.535 -0.1397 -0.1193  0.1239
 6532W        W23006   5.755   0.068   3.095  0.0581 -0.0744  0.2344
 6533W        W23007   8.656   6.506   3.107  0.1490 -0.2122  0.0447
 6534W        W23008   7.097   0.100   3.656  0.0634  0.1944  0.3549
 6535W        W23009  10.335   2.094   3.762  0.0796  0.0791 -0.0728
 6536W        W23010   2.332  13.184  10.232 -0.1371  0.1404  0.1074
 6537W        W23011  16.009   6.762  14.063 -0.0030 -0.0559  0.0810
 6538W        W23012   8.303  14.967  14.077  0.1617 -0.1773  0.0871
 6539W        W23013  17.641  17.051  13.702 -0.1056 -0.0478 -0.0080
 6540W        W23014  11.120  17.878  14.828 -0.1406  0.0241  0.1350
 6541W        W23015  18.502   0.391  14.884  0.3794 -0.2287 -0.1056
 6542W        W23016  10.005  14.163   0.869  0.1516  0.1957 -0.0092
 6543W        W23017   0.682  10.465  14.611 -0.2433  0.1087  0.2111
 6544W        W23018  19.162   6.287   0.747 -0.0684  0.1981  0.0150
 6545W        W23019   4.131  12.853   2.709 -0.2832 -0.2600 -0.0738
 6546W        W23020   4.284  13.166   0.737 -0.1234 -0.2411  0.1089
 6547W        W23021   2.256   4.008  14.028  0.0495 -0.1338  0.0032
 6548W        W23022   3.669  16.798  13.422  0.1428 -0.0560  0.0399
 6549W        W23023   6.707  11.644   4.215 -0.1534  0.1753  0.1429
 6550W        W23024  15.871  12.542   1.150 -0.0638 -0.1302  0.2306
 6551W        W23025   0.033  16.374   5.562  0.1367  0.1430 -0.0360
 6552W        W23026  16.115  14.857   2.317 -0.4512 -0.0858 -0.3448
 6553W        W23027   3.332   9.053  13.122  0.2044  0.2622 -0.1437
 6554W        W23028   2.641  19.276   2.336 -0.0415 -0.0190 -0.0007
 6555W        W23029  11.798  17.833  11.239  0.1098  0.1440  0.1738
 6556W        W23030   4.624  10.182  11.227 -0.0217  0.0110  0.1372
 6557W        W23031  17.190   0.084   5.127  0.1156  0.3158  0.1716
 6558W        W23032   7.957   2.706   0.523 -0.0690  0.3331 -0.5706
 6559W        W23033   8.773  17.963   3.666 -0.2790  0.1004  0.0683
 6560W        W23034   5.136   3.375   3.202 -0.3031  0.0097  0.1234
 6561W        W23035  14.393  10.368  14.056 -0.0106 -0.2656  0.1522
 6562W        W23036   2.243  15.998   4.634 -0.0303  0.0986  0.1015
 6563W        W23037   8.229   3.317   2.362  0.0967  0.0757  0.1959
 6564W        W23038   3.385   0.735   4.316  0.1338 -0.0661 -0.1741
 6565W        W23039  17.162  11.357   1.141 -0.0811 -0.1572  0.2217
 6566W        W23040   9.842  11.429  14.594  0.1549  0.3210  0.0713
 6567W        W23041   6.411  15.134   1.474 -0.2848  0.2589 -0.1735
 6568W        W23042  11.435  19.105   1.174  0.3261  0.0468 -0.0123
 6569W        W23043   4.827  13.290   4.125  0.2078  0.0379  0.1709
 6570W        W23044   0.105   8.150   3.078  0.0572  0.1659  0.1642
 6571W        W23045  12.017   3.638  14.223  0.3932 -0.1618 -0.2381
 6572W        W23046  18.770   5.506  14.237 -0.0271  0.1959 -0.2326
 6573W        W23047  16.657  15.105  10.843 -0.0825 -0.0075  0.2527
 6574W        W23048  19.217   8.864   1.771 -0.0231 -0.2940  0.0379
 6575W        W23049  18.824   5.554   1.663 -0.1675  0.4222  0.2628
 6576W        W23050   2.361  10.966  14.639  0.2116 -0.1474  0.0806
 6577W        W23051   9.395  15.850   2.645  0.2235  0.0895  0.0416
 6578W        W23052   2.679  12.421   6.046  0.0087  0.0963  0.0310
 6579W        W23053  11.127  17.290   4.412 -0.0379 -0.0812 -0.2000
 6580W        W23054   9.708  10.837  13.945 -0.0151  0.2442 -0.2751
 6581W        W23055   0.673   2.629   0.130  0.1628  0.2096 -0.0814
 6582W        W23056  16.316  15.233  11.168 -0.1664 -0.1156  0.4258
 6583W        W23057   4.646   7.426  13.974 -0.0767  0.1214 -0.1885
 6584W        W23058   6.502  13.965   5.483  0.3656  0.3436 -0.2944
 6585W        W23059  10.121   3.506  14.251 -0.1124  0.0013 -0.1570
 6586W        W23060  17.515   2.346  11.922  0.0765  0.0753 -0.0335
 6587W        W23061   9.541   7.891  14.611  0.1025  0.0087  0.1386
 6588W        W23062   3.496  14.447   3.573  0.0414  0.0804  0.0537
 6589W        W23063   4.187  16.998  13.532  0.3373 -0.0300 -0.0069
 6590W        W23064  16.944   1.696  12.209  0.1768  0.0534  0.1744
 6591W        W23065   8.207   4.117  12.430  0.1710 -0.1444  0.3867
 6592W        W23066   4.412   6.950   4.344  0.2501  0.0803  0.1277
 6593W        W23067  11.168   7.376   0.637  0.0011 -0.0719  0.2785
 6594W        W23068  16.055   3.294   9.919 -0.0727 -0.0144 -0.0401
 6595W        W23069  15.072   1.073  13.868 -0.1554 -0.1112 -0.1182
 6596W        W23070  14.143  13.398  12.144 -0.0758 -0.5306  0.0252
 6597W        W23071  10.582  11.659  12.788  0.4016 -0.0304 -0.1691
 6598W        W23072   8.363  10.659   1.505  0.3510 -0.1609 -0.0504
 6599W        W23073   6.084  15.399   3.923 -0.1088 -0.1912  0.0782
 6600W        W23074   0.875   2.103   1.069 -0.1708 -0.1726 -0.0101
 6601W        W23075   6.118  17.390  12.658 -0.1983 -0.0828 -0.1384
 6602W        W23076   4.434   7.454  12.689  0.1794  0.3732 -0.0564
 6603W        W23077  10.070  14.284   2.202 -0.0356  0.1309 -0.0563
 6604W        W23078  10.663   0.195   2.329  0.3265  0.3561  0.3131
 6605W        W23079   5.580  18.366   9.788  0.0092 -0.0944  0.1575
 6606W        W23080   5.107   7.718  14.863 -0.0406  0.0766 -0.1856
 6607W        W23081   3.608   2.820   1.636  0.1165 -0.2668 -0.1208
 6608W        W23082   0.272  18.254  10.042  0.1720  0.2558 -0.1209
 6609W        W23083  10.626  16.445  11.031  0.4824 -0.1351 -0.3815
 6610W        W23084   1.604   6.964  14.149 -0.5363  0.0300  0.2232
 6611W        W23085  14.065   5.960  11.753 -0.2844  0.0792 -0.2714
 6612W        W23086   9.051  14.767   3.147 -0.0722  0.0640  0.0039
 6613W        W23087  12.455   6.154   4.350  0.0729 -0.0787 -0.2981
 6614W        W23088   8.389   8.182   1.861 -0.2527  0.1560 -0.2716
 6615W        W23089   8.896   0.842   9.827  0.0317  0.0861 -0.1158
 6616W        W23090   5.685  17.924   1.764 -0.0256  0.0501 -0.1696
 6617W        W23091   3.873   2.921   3.346  0.2775 -0.0296 -0.1208
 6618W        W23092   2.435   9.492   4.723  0.1896 -0.5384 -0.0550
 6619W        W23093  11.449  11.661  14.635 -0.2108  0.0582 -0.2625
 6620W        W23094   3.679   3.433   3.247 -0.0181  0.4262  0.0659
 6621W        W23095   6.391   4.670   1.100 -0.1480  0.0192  0.2504
 6622W        W23096   0.998   3.553   4.108 -0.0413 -0.1891  0.1661
 6623W        W23097   9.315   2.609   0.397  0.1476  0.2232 -0.0144
 6624W        W23098   0.351  19.363   2.666  0.1546  0.1559 -0.0635
 6625W        W23099  11.101  18.686  14.301 -0.2402  0.0452 -0.3935
 6626W        W23100  16.568   5.174  13.879  0.0513  0.3111 -0.0103
 6627W        W23101   3.646  12.923   4.862 -0.2789  0.2124  0.2540
 6628W        W23102   1.642  17.141   3.131 -0.0594 -0.2223 -0.1159
 6629W        W23103   7.450   4.336   4.285  0.1025 -0.0967 -0.1229
 6630W        W23104  19.105  12.305  11.664 -0.2733  0.2140  0.3421
 6631W        W23105  15.610  17.049   4.853  0.2194 -0.0348  0.4360
 6632W        W23106  12.706  12.475   3.099  0.0115 -0.0933  0.1430
 6633W        W23107  14.651  19.170  10.604  0.0550 -0.0036  0.1610
 6634W        W23108  18.727  13.569  10.421 -0.1785  0.1570  0.1506
 6635W        W23109  16.524   2.676   0.281 -0.3880 -0.2736 -0.0040
 6636W        W23110  12.437  12.946   1.117  0.0642 -0.2008 -0.0804
 6637W        W23111   0.482   1.844  11.224  0.2787 -0.3095 -0.1594
 6638W        W23112   6.466   0.461  13.229  0.2192  0.0074  0.0874
 6639W        W23113  10.967   8.483  11.838  0.4696  0.0484 -0.0035
 6640W        W23114  14.247  14.071  13.900 -0.1971  0.1554 -0.0676
 6641W        W23115  18.551  11.891   1.717  0.0811  0.1199  0.0102
 6642W        W23116  18.867   8.541   0.229 -0.0381 -0.2064  0.0032
 6643W        W23117   2.948   2.625   3.859  0.2473 -0.0116  0.1074
 6644W        W23118   3.093  14.786  11.452 -0.1959 -0.1701 -0.0007
 6645W        W23119   5.719  13.182  14.702  0.2253  0.0021 -0.1131
 6646W        W23120   5.056   8.966  13.650  0.3175  0.1239 -0.3217
 6647W        W23121  12.379   0.736   2.150  0.1990  0.1968  0.2078
 6648W        W23122   7.598   4.450   4.765  0.0742 -0.0365  0.1162
 6649W        W23123   8.476  14.378   4.320  0.1492  0.2661 -0.2151
 6650W        W23124   2.625  12.036   3.027  0.0158  0.0673  0.3734
 6651W        W23125   0.712   4.205  13.550  0.4447 -0.1091 -0.0888
 6652W        W23126   7.499  16.733  12.518  0.0267 -0.0499  0.1152
 6653W        W23127   3.914  14.603   4.974  0.0985  0.3491 -0.1291
 6654W        W23128  12.797  12.794   4.107  0.4514  0.0615  0.0594
 6655W        W23129  11.804  13.702   2.137 -0.3979 -0.1930 -0.0632
 6656W        W23130   8.916  14.804   0.804 -0.1058 -0.1871  0.1679
 6657W        W23131   5.849  15.312  11.395 -0.0326 -0.0847  0.2118
 6658W        W23132  17.536  10.582   4.371 -0.0956 -0.0449 -0.0960
 6659W        W23133   7.524   5.041  13.384 -0.0803  0.0875 -0.2144
 6660W        W23134   1.593  19.360   1.466  0.2127  0.0816  0.0786
 6661W        W23135   1.037  15.541   4.884  0.1612  0.1000 -0.2043
 6662W        W23136  18.290  17.690   2.950  0.1268 -0.2046  0.0513
 6663W        W23137  17.775   2.376  13.358 -0.2186  0.1409 -0.1059
 6664W        W23138   0.996   3.104   1.900  0.0398  0.2146 -0.1408
 6665W        W23139  10.708  12.942  12.272  0.0211  0.2032 -0.2804
 6666W        W23140   7.661  16.044   4.719 -0.1144  0.1822 -0.0151
 6667W        W23141   0.792   0.581   2.174  0.4158 -0.0736 -0.1603
 6668W        W23142  11.018   3.477  10.085 -0.2490 -0.1915 -0.1118
 6669W        W23143  19.190   6.842  14.588  0.2482 -0.1121 -0.1068
 6670W        W23144  16.160  16.630  14.063  0.1242  0.2624  0.0095
 6671W        W23145  17.737  10.812   1.945 -0.3281 -0.0723  0.1035
 6672W        W23146   4.163   3.655  11.620  0.0533 -0.0321 -0.1211
 6673W        W23147   7.911   1.012   1.902  0.1303 -0.3820  0.2429
 6674W        W23148  13.682   0.321  12.007  0.1304 -0.1831 -0.0679
 6675W        W23149  13.643  11.881   5.120 -0.1868  0.0016  0.0349
 6676W        W23150  16.988  12.822   3.280 -0.0897 -0.4916 -0.0056
 6677W        W23151   4.176   7.230   1.460  0.0200  0.0613 -0.0947
 6678W        W23152  15.101  12.867  10.778 -0.1871  0.2057 -0.1621
 6679W        W23153   7.314  19.080   3.458  0.1087 -0.2358  0.0169
 6680W        W23154  17.030   6.573  12.145 -0.1892  0.1846  0.0531
 6681W        W23155  12.345   8.982   4.586  0.0945  0.0112 -0.1247
 6682W        W23156   3.839   8.812  10.499  0.1028  0.0003  0.2906
 6683W        W23157  16.113  15.952  12.293 -0.0382 -0.1855  0.1655
 6684W        W23158   5.994   0.018  11.931 -0.1980 -0.2905  0.0674
 6685W        W23159   7.432  18.556  11.716 -0.0314  0.4145 -0.1588
 6686W        W23160  10.720   8.019   1.267 -0.0497 -0.1297  0.2496
 6687W        W23161   6.787  12.330  13.505 -0.2368 -0.1019  0.0363
 6688W        W23162  12.269  18.954   3.112  0.0296 -0.0016 -0.3122
 6689W        W23163  18.872  18.705   1.909  0.0333 -0.0977 -0.0367
 6690W        W23164   2.334   3.503  10.400 -0.0584  0.2210  0.0690
 6691W        W23165   5.529   1.505  12.363 -0.3805  0.0288  0.1511
 6692W        W23166  14.085   1.737  14.676  0.4257  0.0362 -0.0402
 6693W        W23167  13.163   0.297   4.942 -0.0425  0.1410  0.0015
 6694W        W23168  13.850  16.698   1.867  0.0193  0.2515  0.0880
 6695W        W23169   8.010  13.804   2.311 -0.0762  0.0201  0.0365
 6696W        W23170  18.880   0.919   2.026  0.2676  0.2765 -0.2031
 6697W        W23171   9.086  13.656  14.042 -0.0874 -0.1307 -0.1362
 6698W        W23172   5.095  12.549   1.940  0.1551  0.1621  0.1829
 6699W        W23173  12.317   5.237   5.440  0.1149  0.0725  0.0756
 6700W        W23174   1.632  18.513  14.575  0.1721 -0.2379 -0.3915
 6701W        W23175   3.556   1.631  12.088  0.0255  0.1274  0.0253
 6702W        W23176  10.654   9.723   1.944  0.4787 -0.2358 -0.1008
 6703W        W23177  14.423  18.991  13.531  0.4446  0.0322  0.2430
 6704W        W23178  10.770   4.356   5.201 -0.3589 -0.1596 -0.3020
 6705W        W23179  16.134  17.530   0.362 -0.1686  0.2858 -0.0733
 6706W        W23180  19.076   9.353   0.168  0.1407  0.0272  0.4346
 6707W        W23181   2.751  15.568   3.012 -0.2935 -0.2221 -0.0577
 6708W        W23182  10.021  12.672   4.312 -0.2303 -0.0447 -0.3066
 6709W        W23183  12.184   1.582   1.393  0.1716  0.3012  0.1981
 6710W        W23184   6.959  12.469  14.174  0.0656 -0.2597 -0.1469
 6711W        W23185  16.402   5.626  12.245 -0.2201  0.0171 -0.2665
 6712W        W23186   2.128  16.272   0.003 -0.1618  0.0650  0.0981
 6713W        W23187  14.453   6.113  12.068 -0.1926 -0.1347 -0.1602
 6714W        W23188  15.254   4.450   2.257 -0.3344  0.1857  0.0660
 6715W        W23189  14.671   1.936  11.068 -0.0006  0.1750  0.1650
 6716W        W23190   1.071  17.515   4.893 -0.1299 -0.3570  0.2013
 6717W        W23191   4.757   0.766  12.293 -0.2289  0.0475 -0.0241
 6718W        W23192  13.018  18.035   1.639 -0.0528  0.0427 -0.0403
 6719W        W23193  19.116   2.637  12.036 -0.0251  0.0152  0.0755
 6720W        W23194   0.665   6.939   1.432 -0.0617 -0.0715  0.1352
 6721W        W23195   6.615  14.069   2.731 -0.2713  0.2342  0.0589
 6722W        W23196   8.972  10.960   1.490  0.0624 -0.1341 -0.3222
 6723W        W23197  12.313  10.508   4.785  0.0249  0.2545 -0.3619
 6724W        W23198  12.008  11.740  12.422  0.2730  0.4208  0.1038
 6725W        W23199   9.589   5.490   1.898  0.0989  0.1449 -0.2533
 6726W        W23200  15.869   7.296  13.408 -0.4750  0.2420  0.3170
 6727W        W23201   1.894   6.985   3.533 -0.1018 -0.1345  0.1115
 6728W        W23202  12.030  11.043  13.027  0.2077 -0.1982 -0.0711
 6729W        W23203  15.810  10.845   0.074  0.2652  0.0946 -0.2316
 6730W        W23204   0.444   3.384   3.311  0.1705 -0.1316  0.0658
 6731W        W23205   7.268  15.891  14.792  0.1807 -0.1132 -0.1390
 6732W        W23206   3.209  18.276   3.766  0.2903 -0.0533 -0.0269
 6733W        W23207  14.810  14.163   3.086  0.2894  0.3406 -0.2210
 6734W        W23208  12.670  16.417   4.373 -0.2776  0.1735  0.5078
 6735W        W23209   7.810  15.135  11.323  0.1282 -0.1770  0.0044
 6736W        W23210   9.255  10.243   3.658  0.1940 -0.2600  0.1007
 6737W        W23211  14.336  18.787   3.094  0.3032 -0.0807  0.0653
 6738W        W23212  19.202   6.593   1.168  0.1071 -0.1479 -0.1868
 6739W        W23213   6.409   4.970   2.661 -0.1705  0.1044  0.3288
 6740W        W23214  13.239   6.485   0.304  0.1553  0.3354  0.0720
 6741W        W23215   7.041   4.970   9.539 -0.0483  0.3979 -0.0143
 6742W        W23216   7.613   4.964  11.935 -0.1270 -0.2761 -0.0001
 6743W        W23217   3.311  11.682   2.797 -0.0217 -0.1959  0.4401
 6744W        W23218  12.730   1.762  14.635 -0.1357  0.0467 -0.2813
 6745W        W23219  17.231   9.011   4.739 -0.2302  0.1596 -0.1788
 6746W        W23220   5.926  19.096   3.392  0.0446 -0.1621 -0.0985
 6747W        W23221  12.540   6.545  10.962  0.1425  0.1053 -0.2669
 6748W        W23222  12.520   4.806   1.625  0.1285  0.5155 -0.0626
 6749W        W23223   5.159   7.019   0.643 -0.0050  0.2930 -0.0885
 6750W        W23224  15.985  11.310   3.732  0.0797  0.5352  0.0156
 6751W        W23225   5.629   3.568  10.143 -0.0827 -0.0806  0.3092
 6752W        W23226   6.719   1.959  14.815  0.0110 -0.0904  0.0080
 6753W        W23227   8.274  16.548   1.478 -0.0300 -0.1998 -0.2217
 6754W        W23228   7.393  14.318   4.171 -0.3715  0.1208 -0.0938
 6755W        W23229   1.919  12.337   0.861 -0.1162 -0.1747  0.1481
 6756W        W23230   6.489  12.099   1.778 -0.1842 -0.1267 -0.3399
 6757W        W23231  18.472  17.678  12.393 -0.2362  0.2150  0.2363
 6758W        W23232   6.056  15.262   5.126  0.1132  0.0004 -0.2728
 6759W        W23233   8.259   6.541  11.100 -0.0926  0.0459 -0.0157
 6760W        W23234   3.689  17.155   3.135 -0.1611  0.1273 -0.0947
 6761W        W23235   4.974   6.276   2.922  0.1739 -0.0073 -0.0060
 6762W        W23236  17.622   8.961   0.094 -0.2287  0.0888 -0.3068
 6763W        W23237   8.113   6.632   3.052  0.0366 -0.3703  0.1649
 6764W        W23238   6.628  13.450  12.561  0.1468 -0.0960 -0.1373
 6765W        W23239   0.040  10.818  13.806  0.0658  0.0801 -0.2149
 6766W        W23240   0.497   6.962   4.242 -0.2577  0.0568  0.2791
 6767W        W23241   1.701  15.161   4.484  0.1068 -0.2128  0.3961
 6768W        W23242  12.251   1.633   4.402  0.1280 -0.3337 -0.2081
 6769W        W23243   2.359   3.694   4.526 -0.2292 -0.1006  0.3847
 6770W        W23244   6.599  13.551   2.177  0.0666 -0.0382  0.3114
 6771W        W23245  13.569   8.656  14.260 -0.1162 -0.0364 -0.0100
 6772W        W23246   3.170  17.948  14.611 -0.1984  0.3041 -0.0420
 6773W        W23247   7.117   1.131   9.837 -0.1058 -0.2236 -0.0211
 6774W        W23248   2.761   2.842   2.883 -0.0101  0.3231 -0.0703
 6775W        W23249  11.834   6.170   2.601  0.2411 -0.1951 -0.0624
 6776W        W23250   4.817   6.734  14.008 -0.2131  0.2499 -0.1006
 6777W        W23251   4.203   5.043   4.456  0.0740 -0.0245 -0.3422
 6778W        W23252  12.421   9.544   3.227 -0.3473  0.1578 -0.0984
 6779W        W23253  13.949  13.506   4.265 -0.0528  0.0613  0.1587
 6780W        W23254  14.013  13.679  11.383  0.0333 -0.1886 -0.2398
 6781W        W23255  15.180   8.404  13.796 -0.1761  0.2616  0.0183
 6782W        W23256   2.650   4.494   0.598 -0.3110  0.2706 -0.1677
 6783W        W23257  12.688   2.269  13.238 -0.1705 -0.0324  0.3344
 6784W        W23258  15.024  15.292  13.585 -0.0915 -0.0516 -0.2049
 6785W        W23259  16.154   9.435   3.808 -0.1700 -0.1673 -0.1888
 6786W        W23260  14.278   0.495  11.936  0.0772  0.6347  0.0941
 6787W        W23261  13.560  17.514  14.012  0.0930  0.1369  0.0809
 6788W        W23262   9.964   9.688   4.206  0.2402  0.0499  0.2165
 6789W        W23263  14.406   4.593   2.402 -0.0442  0.1422  0.1092
 6790W        W23264   6.656   2.306  13.545 -0.3277 -0.1282  0.0253
 6791W        W23265   5.552  14.946   4.420  0.0196 -0.0261  0.0429
 6792W        W23266   8.708  12.074   0.754 -0.2098  0.1969  0.0203
 6793W        W23267  15.057  19.090   1.709  0.1309  0.4132  0.1321
 6794W        W23268   9.101   5.572   4.288 -0.0700  0.0104  0.1489
 6795W        W23269   6.430  18.223   0.711 -0.0084 -0.1874  0.1036
 6796W        W23270   3.859   6.021   5.173  0.3296  0.2289  0.0253
 6797W        W23271  16.770   6.190   1.574  0.2045  0.3205  0.0123
 6798W        W23272  12.648   0.863   2.730  0.0531  0.1705 -0.0605
 6799W        W23273  12.194   5.605   3.329  0.1554 -0.1809 -0.1043
 6800W        W23274   0.747  16.005  14.672  0.2444  0.2006  0.4888
 6801W        W23275   3.357   1.480  13.954  0.0596 -0.1222  0.1012
 6802W        W23276  12.347  10.384  11.264  0.1553 -0.3509 -0.2175
 6803W        W23277  13.192   3.723   2.663 -0.0706  0.0758 -0.1670
 6804W        W23278   5.009  10.072  12.310 -0.2793  0.1745 -0.2303
 6805W        W23279  14.537  15.929   3.712 -0.0533 -0.0894 -0.0186
 6806W        W23280  18.044   7.395   5.152 -0.1064 -0.0728  0.1048
 6807W        W23281  11.903  15.992   1.478 -0.1815 -0.1015  0.1582
 6808W        W23282  18.619  12.777   5.624 -0.2250  0.5006  0.1144
 6809W        W23283   0.810   4.967  12.101 -0.1424 -0.1057 -0.1682
 6810W        W23284  12.329   9.761  11.369  0.1479 -0.0148  0.1882
 6811W        W23285   1.569  11.484   0.131 -0.1018 -0.4366 -0.0799
 6812W        W23286   8.554   7.101  11.755 -0.1640 -0.2045 -0.1926
 6813W        W23287   5.472  18.654  10.199 -0.5253 -0.1087 -0.2117
 6814W        W23288  18.658   4.483   1.222  0.0167 -0.1272  0.1887
 6815W        W23289  18.721  17.949   3.203  0.3530 -0.0155 -0.1145
 6816W        W23290  16.619  16.627   4.066 -0.0372 -0.1042 -0.4953
 6817W        W23291   7.120   6.314  13.357 -0.1114 -0.1969  0.0236
 6818W        W23292   6.479  19.166   0.023 -0.4164 -0.0765 -0.2234
 6819W        W23293   2.254   4.210   4.591  0.0119  0.0090 -0.1180
 6820W        W23294   1.055  11.870   4.175 -0.2836 -0.0366 -0.0120
 6821W        W23295   8.164  15.978   5.131  0.0427  0.1326 -0.2654
 6822W        W23296   1.470   9.806   0.197 -0.1602  0.1334 -0.0001
 6823W        W23297  14.141   8.892  13.136 -0.2852 -0.0420  0.1807
 6824W        W23298  16.526  10.399   2.938  0.2737  0.0730 -0.0920
 6825W        W23299  11.939   2.446   0.363  0.0925 -0.0947 -0.0923
 6826W        W23300   6.091  14.736   1.628  0.4523  0.1810 -0.0566
 6827W        W23301  19.247  14.266   4.420 -0.0722  0.2971 -0.0389
 6828W        W23302   0.080   4.050   1.822 -0.3702  0.0810 -0.0753
 6829W        W23303  10.777  11.627  11.651 -0.2542  0.0867  0.1612
 6830W        W23304   5.753  16.996  12.909 -0.1248 -0.1410 -0.1377
 6831W        W23305  13.660  19.221   2.553  0.2670 -0.0294  0.0297
 6832W        W23306   6.930  11.532  12.552 -0.0261 -0.0513  0.2940
 6833W        W23307   3.152  10.016   2.328  0.2539 -0.1660 -0.0063
 6834W        W23308  16.822   1.865   2.284 -0.1891 -0.0535  0.0336
 6835W        W23309   0.169  16.064  11.849 -0.0374 -0.1233  0.0786
 6836W        W23310   0.652   7.776  13.324 -0.1676  0.1543 -0.1052
 6837W        W23311  14.294  18.946  11.242 -0.0502 -0.0738 -0.1533
 6838W        W23312   1.873  17.162   1.299 -0.4504  0.1057 -0.0227
 6839W        W23313  17.265   9.242   2.571 -0.0599  0.1792  0.0862
 6840W        W23314  13.250  15.753   2.913 -0.1650 -0.0238  0.0697
 6841W        W23315  10.294   8.383   1.424 -0.2114  0.0987  0.1992
 6842W        W23316   8.803   5.770   3.470  0.2418 -0.1897  0.2380
 6843W        W23317   7.906  12.016  14.512 -0.1484  0.4352 -0.1391
 6844W        W23318  16.075   0.416   3.196  0.0557 -0.0356  0.0330
 6845W        W23319   7.769  15.171   5.315 -0.0211 -0.0576 -0.1058
 6846W        W23320   0.197  10.801   1.087  0.0662  0.0555 -0.2717
 6847W        W23321  13.590   7.964   3.764 -0.0763  0.3611 -0.1214
 6848W        W23322   6.233  18.955   2.454 -0.0325 -0.3523  0.0270
 6849W        W23323   2.947   4.859   2.767 -0.4546  0.3678 -0.0354
 6850W        W23324  11.747   8.600   9.093  0.0439  0.0012 -0.1327
 6851W        W23325  16.710   9.172   2.798 -0.2031 -0.2642 -0.4700
 6852W        W23326   4.864   5.668  10.765 -0.3927 -0.2341  0.2162
 6853W        W23327   8.918  13.972  10.517 -0.1324 -0.0064 -0.3529
 6854W        W23328  12.473  15.086  12.749  0.0501  0.1804 -0.2271
 6855W        W23329  17.513   2.947  13.916  0.1425 -0.1754 -0.3046
 6856W        W23330   9.136   4.988  12.742 -0.1713 -0.1330 -0.0009
 6857W        W23331   5.262   6.210  13.601 -0.0854 -0.3868 -0.0412
 6858W        W23332   8.520  12.012  13.310  0.1493  0.0166  0.4070
 6859W        W23333  13.563   8.217   3.216  0.1154 -0.2459  0.2314
 6860W        W23334   5.712   4.208   3.452  0.1142 -0.0395  0.1735
 6861W        W23335   8.910  13.839  10.041  0.3248 -0.0248  0.0028
 6862W        W23336  16.296  10.948  14.856 -0.0512 -0.0431  0.2037
 6863W        W23337  18.547  18.207   4.332  0.0608  0.1140  0.0778
 6864W        W23338  19.239  10.972  14.255 -0.0417 -0.2193 -0.3002
 6865W        W23339   6.935  14.726   5.027  0.1514 -0.1641  0.2447
 6866W        W23340   3.324   3.421   4.624 -0.0662 -0.1758 -0.2713
 6867W        W23341  10.388   8.925  11.183 -0.2168  0.2113 -0.0161
 6868W        W23342  15.479  15.310  13.233  0.4234  0.4465  0.1532
 6869W        W23343   1.506   5.505   3.592  0.1991 -0.0026 -0.1792
 6870W        W23344   9.556  17.267   0.575  0.1218  0.2107  0.0646
 6871W        W23345   0.832   2.166  13.024 -0.0835 -0.2226  0.1331
 6872W        W23346  18.963   1.028  14.814 -0.1130  0.1294  0.0910
 6873W        W23347   3.785  14.983   0.048 -0.1688  0.2935  0.0448
 6874W        W23348  17.900   7.333   9.911 -0.2281  0.0088  0.0906
 6875W        W23349  14.436   6.487   1.994 -0.1474  0.2063 -0.1426
 6876W        W23350  12.485  13.144  13.506 -0.0287  0.1968  0.0983
 6877W        W23351   0.859  11.616  12.850  0.0039 -0.3455  0.0926
 6878W        W23352   1.901  14.580   2.738 -0.2072 -0.2990 -0.2936
 6879W        W23353  18.608   7.311  14.021 -0.1864  0.1441  0.0799
 6880W        W23354  14.553   4.872  10.998  0.2109  0.0903 -0.0173
 6881W        W23355  17.670   8.564  11.756 -0.1414  0.0990 -0.0117
 6882W        W23356  12.650  16.176  11.042 -0.0220 -0.3164 -0.1098
 6883W        W23357  17.585   5.745   4.830  0.0728 -0.1011  0.0510
 6884W        W23358   0.914  14.583   0.624 -0.0414 -0.3843 -0.0269
 6885W        W23359   7.559  13.689   9.853  0.1571  0.2660 -0.2160
 6886W        W23360  17.862   1.773  11.758 -0.1984 -0.2529  0.5819
 6887W        W23361  17.107  14.458  13.478  0.0406 -0.3407  0.2245
 6888W        W23362   2.600   4.539   3.614 -0.3860 -0.2020 -0.0604
 6889W        W23363   4.890  16.222   3.850  0.0245 -0.0263 -0.0856
 6890W        W23364  18.454  13.250  14.004  0.1273 -0.2177 -0.1468
 6891W        W23365   5.658  13.488   4.406  0.2086  0.0934 -0.1302
 6892W        W23366  16.709  12.540   4.726  0.0033 -0.1555 -0.0523
 6893W        W23367   1.406   7.713   9.482 -0.3798  0.1889  0.3884
 6894W        W23368  18.078  10.093  13.059  0.2106 -0.0539 -0.0824
 6895W        W23369   2.212  11.338  11.481  0.3771  0.2828  0.2554
 6896W        W23370   7.447  17.039   0.433  0.2026 -0.1262  0.0421
 6897W        W23371   8.288   4.510   0.134  0.2500 -0.1510  0.1140
 6898W        W23372   8.959  16.605   2.149  0.0578  0.0071  0.1638
 6899W        W23373   4.357  18.351  10.385  0.0501  0.1077  0.3212
 6900W        W23374  19.091  17.444  14.017  0.0170  0.3442  0.3794
 6901W        W23375  11.679  17.436   3.182  0.1647 -0.2932  0.1534
 6902W        W23376   1.592   7.189  13.651 -0.0315  0.0716 -0.1786
 6903W        W23377  15.103  13.379   1.376 -0.0649  0.2131  0.1052
 6904W        W23378   3.557  16.340  13.120  0.2934 -0.0539 -0.1348
 6905W        W23379   7.489  15.444  14.854 -0.2298  0.2000 -0.1546
 6906W        W23380   6.676  10.839   3.511 -0.0482 -0.0784 -0.0510
 6907W        W23381  18.233   3.989   5.057  0.0840  0.2499 -0.0170
 6908W        W23382   4.437  16.272  13.133 -0.1054 -0.2801  0.2115
 6909W        W23383  12.993  11.843  14.549 -0.0806  0.0116  0.1102
 6910W        W23384   6.795  10.140  12.273 -0.2260  0.3981  0.1258
 6911W        W23385  19.354  16.122  10.955 -0.1586  0.1227 -0.2217
 6912W        W23386   1.014   8.577   3.022  0.0349 -0.1740 -0.2180
 6913W        W23387   4.806   6.565  11.178 -0.1392 -0.3114  0.0250
 6914W        W23388   8.994   7.103  10.852 -0.4726 -0.3209  0.1054
 6915W        W23389   4.485  11.931   4.578 -0.4593 -0.0982 -0.1875
 6916W        W23390   8.992  14.929   0.319 -0.5387  0.1472  0.0121
 6917W        W23391   3.688   3.752   2.355 -0.0493  0.0231  0.0163
 6918W        W23392   6.278   6.044   3.455  0.2787 -0.1100  0.0281
 6919W        W23393  13.367   5.788   4.673  0.3112 -0.0885 -0.0128
 6920W        W23394  15.296   2.572  10.012 -0.3510 -0.2255  0.2201
 6921W        W23395   0.382  12.251   2.228  0.2363 -0.2769  0.2454
 6922W        W23396   2.949   1.691   3.565  0.0916 -0.0994 -0.0008
 6923W        W23397   3.934  12.074   3.469  0.0871 -0.0984 -0.0317
 6924W        W23398  17.636  14.937  14.822  0.2951 -0.2003 -0.0233
 6925W        W23399   3.218  17.087  13.170  0.3433  0.2631  0.0681
 6926W        W23400   6.990   5.397   9.928 -0.1182  0.3822  0.0861
 6927W        W23401   9.103  11.688   9.389 -0.1094 -0.2335 -0.3174
 6928W        W23402   0.301  13.601   1.315 -0.1206 -0.2689  0.0826
 6929W        W23403   1.813  15.326   4.990  0.0389  0.0005  0.0341
 6930W        W23404   2.745   3.179   1.570  0.1981  0.1385  0.1016
 6931W        W23405  15.648  13.887  11.618  0.0764 -0.1148 -0.0809
 6932W        W23406  13.683   6.203  12.897 -0.3258 -0.1349 -0.1260
 6933W        W23407  18.274  18.360   2.557 -0.2771  0.1143 -0.0320
 6934W        W23408   8.714   0.441  10.288 -0.1265  0.3862  0.1994
 6935W        W23409   4.447   6.496   0.243 -0.1375 -0.4278 -0.0831
 6936W        W23410  15.309   1.653  14.055 -0.3500  0.1217  0.0881
 6937W        W23411  16.239   4.671   0.812 -0.2874  0.2014  0.1892
 6938W        W23412  13.078  14.926   0.906  0.2932  0.0386 -0.1103
 6939W        W23413   8.108  14.704   4.512  0.3021 -0.0940  0.1644
 6940W        W23414  16.134   5.178  14.244  0.1589  0.0222  0.1074
 6941W        W23415  10.587  18.730  14.705  0.0644  0.4615  0.0571
 6942W        W23416   7.535  15.756   3.734 -0.2408 -0.0214 -0.2603
 6943W        W23417  17.702   7.232   0.129 -0.0947 -0.0750 -0.2508
 6944W        W23418   1.393   4.546   4.768 -0.1713 -0.0890  0.2226
 6945W        W23419   4.736   7.056  10.058 -0.0095  0.1535  0.1678
 6946W        W23420   0.402  15.183   1.455 -0.2274 -0.2073  0.0158
 6947W        W23421  11.166   6.824   1.568  0.2835 -0.1479  0.2005
 6948W        W23422   8.255  15.262  13.654 -0.0304 -0.2300  0.2498
 6949W        W23423   2.402  18.252  14.495  0.0347 -0.1038 -0.1213
 6950W        W23424   4.417  17.901  13.866 -0.1365 -0.0839  0.1963
 6951W        W23425   1.187  12.283  14.527  0.2293 -0.4425 -0.3551
 6952W        W23426  14.961  10.089   1.541  0.2662  0.1404  0.0792
 6953W        W23427  13.977   1.314  10.871  0.3235  0.0043 -0.1068
 6954W        W23428   4.033   5.601  12.567 -0.0487  0.2248  0.1045
 6955W        W23429   7.273   5.339  11.865  0.1200 -0.0930  0.2520
 6956W        W23430   6.445   9.684  14.440 -0.0161  0.1352  0.1351
 6957W        W23431  17.034  17.535   0.075  0.0530  0.0405  0.0289
 6958W        W23432   7.393   5.910   3.230  0.1175  0.0595  0.0119
 6959W        W23433   8.162   9.761   2.731  0.1313 -0.1599 -0.1771
 6960W        W23434   6.493  18.483  13.743  0.1687  0.2796  0.0197
 6961W        W23435   9.096   1.440   1.176  0.0619 -0.0877 -0.2615
 6962W        W23436  10.211   8.892   3.984 -0.5167  0.1233 -0.3122
 6963W        W23437   2.164   0.541  11.070 -0.1337 -0.1256  0.1102
 6964W        W23438  16.901   7.039  11.840 -0.3358 -0.0268  0.0402
 6965W        W23439  18.515  11.154   5.022  0.1666  0.0811  0.3949
 6966W        W23440  12.767   8.808   2.251  0.1537 -0.0682 -0.0098
 6967W        W23441  13.075   4.559   2.520  0.0067  0.1821 -0.0469
 6968W        W23442  11.741   9.173   9.232  0.1888 -0.1311  0.0308
 6969W        W23443  13.342   4.480  10.524 -0.0320 -0.0742  0.0119
 6970W        W23444  11.684  13.289   4.857  0.2261  0.3456 -0.1041
 6971W        W23445  14.919  18.468   9.872 -0.1156  0.2014  0.1172
 6972W        W23446   4.187  15.366   1.141  0.1323 -0.0692 -0.0241
 6973W        W23447  19.201   8.444   1.403 -0.1656 -0.1175  0.2333
 6974W        W23448  12.522   2.955   2.857 -0.1106  0.4114 -0.0552
 6975W        W23449   8.416   4.954  13.931  0.0256  0.2005  0.1457
 6976W        W23450   9.041   9.393   2.972  0.0171 -0.2179 -0.3311
 6977W        W23451   9.442  13.085   2.459  0.0035  0.2281 -0.1691
 6978W        W23452  11.994   9.670  10.990 -0.1824  0.0286 -0.3557
 6979W        W23453  13.745  14.496   2.488  0.0772 -0.3662  0.1897
 6980W        W23454   1.952  14.417   0.904 -0.2291 -0.0111 -0.0766
 6981W        W23455  14.537  15.810  13.023  0.0221  0.0665  0.0557
 6982W        W23456  11.495   6.450   1.412 -0.0732 -0.1139  0.1231
 6983W        W23457  18.210   1.480   2.668 -0.2786 -0.2197 -0.1782
 6984W        W23458  17.653   4.177  13.946  0.3590 -0.0945  0.0992
 6985W        W23459   6.959   0.020   4.226 -0.1486  0.1958  0.0312
 6986W        W23460  10.140   3.034  10.757 -0.2677  0.2541  0.1775
 6987W        W23461  11.176  18.738   1.421 -0.1447 -0.1902  0.0282
 6988W        W23462   4.842   8.002   0.375  0.2435  0.1380  0.0366
 6989W        W23463   6.405   0.894  12.876  0.1697  0.0535  0.2722
 6990W        W23464   3.834   1.476   1.846  0.5453  0.1608  0.1253
 6991W        W23465  12.042   4.100  13.420 -0.4866 -0.2592  0.2048
 6992W        W23466  11.557   4.977   4.807  0.1008 -0.0619 -0.2002
 6993W        W23467  13.184   2.711  12.889  0.0414 -0.0601 -0.0526
 6994W        W23468  15.253  11.427   9.680  0.2613  0.0046 -0.3835
 6995W        W23469   9.430   9.310   1.088  0.1333 -0.0539 -0.0554
 6996W        W23470  15.498   1.248   1.815 -0.1723 -0.1233 -0.2116
 6997W        W23471  16.593  14.623   4.331 -0.1419 -0.2169  0.1275
 6998W        W23472   6.758  11.598  11.449 -0.1493  0.2087 -0.3689
 6999W        W23473  16.798  10.852   3.108 -0.0994  0.1625 -0.0993
 7000W        W23474   5.439   6.490   2.492  0.0144  0.4396 -0.1396
 7001W        W23475  15.387  19.058   4.894  0.0863 -0.1908  0.2034
 7002W        W23476  12.838   1.516  14.184 -0.1053 -0.1372  0.1545
 7003W        W23477   0.325  12.023  10.039  0.0202 -0.0076  0.2326
 7004W        W23478   5.632  14.165  14.828  0.1414 -0.1128  0.1908
 7005W        W23479  16.855  14.009  13.325 -0.1872 -0.0705  0.2009
 7006W        W23480  13.199   8.363  10.832  0.0540  0.0511  0.1121
 7007W        W23481  17.497  10.903  14.384 -0.3553  0.0513 -0.2809
 7008W        W23482  16.955  11.311  12.796  0.1322 -0.1767  0.2254
 7009W        W23483  19.253  10.933   3.904 -0.0617 -0.4433  0.0068
 7010W        W23484  19.141   3.904  12.268  0.1703 -0.2683 -0.1905
 7011W        W23485   0.019   7.382  12.290  0.0903 -0.1133 -0.0758
 7012W        W23486  14.873  10.159  11.388  0.1098  0.0916  0.3217
 7013W        W23487   7.923   6.206  13.628 -0.0326 -0.2814 -0.2323
 7014W        W23488   9.112  12.380  12.046 -0.1886 -0.1186  0.1191
 7015W        W23489   4.407  12.908   1.144  0.1803 -0.0114 -0.2203
 7016W        W23490   6.069   9.025   2.596 -0.1243 -0.0241  0.0299
 7017W        W23491  13.727   0.997  14.215  0.2296 -0.0138  0.1452
 7018W        W23492  12.109   3.166   3.753 -0.1052 -0.0369 -0.0453
 7019W        W23493  18.888   0.353   4.520  0.3171 -0.0141  0.0304
 7020W        W23494  18.351   7.928   3.658  0.0089  0.1045 -0.2067
 7021W        W23495  19.201  17.404  11.198 -0.1023  0.1348  0.1433
 7022W        W23496   7.927   3.076  14.424 -0.1239  0.0731 -0.0176
 7023W        W23497   9.973  11.778  14.082 -0.3370  0.0028  0.2504
 7024W        W23498  18.965  15.857   3.067  0.4897 -0.2895 -0.0112
 7025W        W23499  18.643   3.469   1.374 -0.0619  0.1007  0.3536
 7026W        W23500   0.674   4.189   3.734 -0.2148 -0.1704  0.0481
 7027W        W23501  13.366  15.923   3.412 -0.3145  0.1808  0.0914
 7028W        W23502   0.093  15.998   0.365  0.1852  0.0375  0.0523
 7029W        W23503   0.023   3.033  11.254 -0.1609  0.1466 -0.0584
 7030W        W23504  15.556  11.538   3.086  0.1420  0.1656  0.1382
 7031W        W23505  10.374   1.486   9.349  0.0756  0.3844 -0.3239
 7032W        W23506   4.893  16.491  13.489  0.1588 -0.0178  0.0994
 7033W        W23507   2.641   0.082   4.674 -0.2004 -0.2227  0.1430
 7034W        W23508   8.947   8.307   2.996  0.0784  0.2410 -0.1001
 7035W        W23509  13.634   5.157  14.044 -0.0547 -0.3869  0.2559
 7036W        W23510  15.764   4.874   3.118 -0.0355 -0.3361  0.0444
 7037W        W23511   8.902   9.226  10.911 -0.5111 -0.0418  0.0567
 7038W        W23512   9.407  13.531   0.262 -0.2421  0.0196 -0.1154
 7039W        W23513  18.501   7.983   1.050  0.1332  0.0441  0.3319
 7040W        W23514   1.133  15.111   3.965 -0.1600  0.3934 -0.0374
 7041W        W23515  17.656  13.588  11.905  0.0310  0.2867 -0.0343
 7042W        W23516   0.899   2.650   4.887 -0.0429  0.4358 -0.1552
 7043W        W23517   9.753   6.108  14.066 -0.2049 -0.1288  0.2122
 7044W        W23518   2.988   5.080  10.693 -0.0850 -0.2163  0.1583
 7045W        W23519  10.041   5.545  10.160  0.1104  0.0820  0.0701
 7046W        W23520   7.041   2.226   3.994 -0.3143  0.4430  0.0318
 7047W        W23521  12.471  13.981  12.030  0.1039 -0.0927  0.4551
 7048W        W23522   5.961   0.432   2.756  0.1587 -0.0681 -0.2714
 7049W        W23523  16.416  12.565   3.825  0.0979  0.0224  0.0538
 7050W        W23524   4.510   5.046  11.085  0.0025 -0.1582 -0.2034
 7051W        W23525  16.166  18.021   3.220  0.1130  0.2212  0.0618
 7052W        W23526  10.884  11.466   0.452  0.1682 -0.2549 -0.0065
 7053W        W23527   5.453   3.568  10.601  0.0790 -0.2095 -0.2088
 7054W        W23528  15.075  11.897  11.030  0.4876 -0.1929  0.1335
 7055W        W23529   9.778  18.775  10.423  0.2528  0.0063 -0.0654
 7056W        W23530  12.204  12.708   3.356 -0.2699 -0.2867  0.1105
 7057W        W23531   3.358  12.148  12.176  0.1178  0.0866  0.1272
 7058W        W23532  16.479  18.978  13.045 -0.2923  0.0018  0.2966
 7059W        W23533   4.643   1.459  12.932 -0.0684  0.0329 -0.0333
 7060W        W23534   7.814   2.263  12.978  0.1442 -0.0613  0.1964
 7061W        W23535   6.561  13.443   0.086  0.3360 -0.1623 -0.1615
 7062W        W23536  19.305   3.705  14.085  0.0173 -0.0194  0.1904
 7063W        W23537   7.019  12.484   5.036 -0.3578  0.1403  0.0329
 7064W        W23538   6.154   8.246  11.804  0.2971  0.0483  0.1288
 7065W        W23539   2.970  12.529  12.999 -0.0573 -0.1665  0.0011
 7066W        W23540   4.500   3.621  14.294  0.0875 -0.1504 -0.5059
 7067W        W23541  15.738   6.362  11.211  0.0824 -0.1212  0.2159
 7068W        W23542  17.788  10.396   2.198 -0.0586 -0.1396  0.2188
 7069W        W23543  18.705  12.584  12.352 -0.1788  0.0546  0.1980
 7070W        W23544  10.258  12.415   0.096 -0.0965 -0.1057 -0.0494
 7071W        W23545  16.045   0.036   1.930 -0.0289 -0.2983  0.2903
 7072W        W23546   3.112   1.129  13.702 -0.0032  0.2914 -0.1778
 7073W        W23547  18.305  17.752   4.089 -0.1647  0.1233  0.0551
 7074W        W23548  18.489  11.898   5.200 -0.0606 -0.1494 -0.1861
 7075W        W23549   9.888  11.591   2.159  0.0201 -0.3832 -0.2841
 7076W        W23550  17.318  15.999   5.241 -0.0862  0.0573  0.2991
 7077W        W23551   7.157   2.320   1.895 -0.2010  0.0649  0.1665
 7078W        W23552   5.537   9.680  12.810 -0.2006  0.1327 -0.1138
 7079W        W23553  11.854  17.178   3.635  0.0778  0.0189  0.0511
 7080W        W23554   5.524   7.883  13.978 -0.0464 -0.1036 -0.1331
 7081W        W23555  14.247  13.004  13.582 -0.0517  0.1729  0.0542
 7082W        W23556   8.181   2.970  11.994  0.0088 -0.1042  0.0502
 7083W        W23557   8.050  11.532  10.798 -0.4365 -0.3481  0.1095
 7084W        W23558  14.458   6.002  14.629 -0.2485 -0.0678  0.0953
 7085W        W23559   1.926   8.019   0.875  0.1710 -0.1344  0.1511
 7086W        W23560  15.170   3.297   0.143 -0.1140  0.4742 -0.0734
 7087W        W23561   0.726   8.127   2.958 -0.3025  0.4266  0.3027
 7088W        W23562   8.265  14.800   5.057 -0.1405  0.0750  0.0820
 7089W        W23563  14.432   0.245  13.994 -0.1402  0.2254  0.4152
 7090W        W23564   2.696   5.882   0.736  0.3491  0.0071 -0.0384
 7091W        W23565  14.192   6.974  14.055 -0.3270  0.0332  0.0566
 7092W        W23566  12.063   4.603  10.638  0.2008 -0.1565  0.1861
 7093W        W23567  14.289   1.931   3.792 -0.1085  0.0003 -0.1328
 7094W        W23568   3.338   6.439   3.827 -0.1154 -0.0692  0.1344
 7095W        W23569   7.689  14.551  13.118 -0.3931  0.2814  0.1193
 7096W        W23570   3.233  18.780   1.250 -0.0860 -0.1885  0.0646
 7097W        W23571  10.301  10.513   4.759 -0.2416 -0.1777  0.2262
 7098W        W23572  11.779   8.687  10.997 -0.1032  0.2151 -0.1393
 7099W        W23573   9.313   5.309   1.542 -0.2881 -0.2133 -0.0592
 7100W        W23574  11.751  13.425  12.807 -0.1781  0.1244 -0.2047
 7101W        W23575  18.158  10.576   2.628  0.1451 -0.1214 -0.0194
 7102W        W23576   5.383  16.690  11.007 -0.2192 -0.2276  0.2563
 7103W        W23577  16.375   4.637  11.568 -0.0332 -0.2292 -0.1510
 7104W        W23578  12.545  18.574  14.052  0.0785 -0.1236 -0.2628
 7105W        W23579   9.944  17.961  12.027 -0.0875  0.3877 -0.3302
 7106W        W23580  12.671  17.006   3.077  0.4668 -0.0547  0.1664
 7107W        W23581  17.118   7.428  12.325  0.1253  0.2211 -0.1667
 7108W        W23582   9.203  12.918  10.420  0.1025  0.1142 -0.3422
 7109W        W23583   8.121   3.169  12.556  0.1593  0.1971 -0.2978
 7110W        W23584  19.332  18.113   1.397  0.0978 -0.1762 -0.3569
 7111W        W23585   7.218   2.083  11.273  0.1937 -0.2211 -0.0921
 7112W        W23586  14.577  10.778   1.829  0.1171 -0.0701 -0.0805
 7113W        W23587   8.927  15.176  12.045  0.0028  0.0626 -0.0499
 7114W        W23588   2.768   4.641  14.716 -0.0557  0.2027  0.0795
 7115W        W23589  12.740  12.551  10.925 -0.1959 -0.1468  0.1690
 7116W        W23590  13.391   2.866  11.532  0.2331 -0.3613 -0.2628
 7117W        W23591   4.883  17.409  10.683 -0.0808 -0.1169  0.2799
 7118W        W23592   4.029  18.293   4.888 -0.3637  0.1859  0.0272
 7119W        W23593   1.730   2.202  14.109  0.0090 -0.1629 -0.0231
 7120W        W23594  16.047  17.606  10.966  0.1770  0.1879  0.0790
 7121W        W23595  18.813   1.051  11.145  0.3162 -0.0986  0.0445
 7122W        W23596  18.907   4.208   0.437 -0.0853 -0.4604 -0.0694
 7123W        W23597   1.613  12.868   0.837  0.3395  0.1402  0.1901
 7124W        W23598  14.362  11.496   0.161  0.2769  0.0470 -0.0432
 7125W        W23599  10.601  18.817   0.749 -0.0785 -0.1290 -0.4030
 7126W        W23600   1.196   9.390   1.959 -0.0909  0.0596 -0.1892
 7127W        W23601   3.383   7.725  12.191  0.1342  0.0973 -0.0522
 7128W        W23602   4.497  15.492   3.308 -0.0939  0.1695  0.2017
 7129W        W23603  15.672   6.552   5.137  0.0501  0.0349 -0.0972
 7130W        W23604  13.558  14.987  14.839 -0.0414 -0.1282  0.1469
 7131W        W23605  17.858  16.144  12.665  0.1839  0.1343 -0.1275
 7132W        W23606   3.543  14.408  10.662  0.1395 -0.0799 -0.2930
 7133W        W23607  11.140  10.772  14.407  0.0250  0.0373  0.0168
 7134W        W23608   7.728  13.597   1.999 -0.0236  0.2563  0.1453
 7135W        W23609  10.659   2.848   1.170  0.2309 -0.3146 -0.0894
 7136W        W23610   8.497   9.363  12.074 -0.4158 -0.1505 -0.0216
 7137W        W23611   5.247  11.303   2.790 -0.0517 -0.1978 -0.0926
 7138W        W23612  11.889  18.141   2.645 -0.3558  0.1142  0.0992
 7139W        W23613   8.886   9.026  12.261 -0.0942  0.1034 -0.0542
 7140W        W23614   1.469   1.937   3.160  0.1498 -0.1136  0.2625
 7141W        W23615  13.956  16.301  14.239  0.1985 -0.1235 -0.1796
 7142W        W23616   0.673  15.940   0.343  0.0274  0.1526 -0.0315
 7143W        W23617  10.087   9.027   4.515 -0.0593 -0.0334 -0.2913
 7144W        W23618   1.516  14.011  12.042 -0.1729  0.2476  0.1952
 7145W        W23619  11.604   4.250   0.996  0.2263 -0.0647 -0.0019
 7146W        W23620   2.185  16.027   5.219  0.2003  0.2471 -0.2742
 7147W        W23621   0.181  13.417   0.186  0.2203  0.0780  0.1871
 7148W        W23622  14.863  16.504   1.461 -0.1612 -0.1203 -0.1043
 7149W        W23623  11.171  15.802  12.422 -0.3003  0.1302  0.0016
 7150W        W23624   0.081   6.051   2.594  0.0775 -0.2571  0.2380
 7151W        W23625  18.321   4.536  14.886 -0.1962  0.3185  0.2154
 7152W        W23626   8.630  15.560   2.116  0.1753  0.2862  0.1721
 7153W        W23627   7.495  18.067  10.484 -0.1472 -0.1583  0.2736
 7154W        W23628   1.237  10.403   4.461 -0.0360 -0.1339  0.1512
 7155W        W23629  18.821   3.642  14.724  0.1032 -0.1437  0.0826
 7156W        W23630   8.564  13.616  13.814  0.0633 -0.0658 -0.3522
 7157W        W23631   5.685  16.754  13.338 -0.0349 -0.2119  0.0271
 7158W        W23632  18.416   9.598  11.285  0.0833 -0.2776  0.0932
 7159W        W23633  15.889  16.288  13.161 -0.1887 -0.1285 -0.2244
 7160W        W23634   2.854  17.749  12.099  0.0995 -0.3201  0.0673
 7161W        W23635   3.613  12.968   5.376 -0.1904  0.1115  0.0313
 7162W        W23636  16.176   9.796  11.501 -0.2852 -0.1770 -0.0258
 7163W        W23637  13.483  18.687  12.332  0.2409  0.0145 -0.3807
 7164W        W23638   5.344  19.240  13.545  0.0491  0.0916 -0.2498
 7165W        W23639   2.092  18.789   3.234 -0.0677 -0.0354  0.0460
 7166W        W23640   6.016   2.480   8.973  0.1311 -0.1203 -0.1744
 7167W        W23641  16.640   2.034   2.744 -0.2336  0.0538 -0.0772
 7168W        W23642  13.611  13.407  12.144 -0.1084  0.2741  0.2395
 7169W        W23643   7.370   8.315   9.601  0.0759  0.2256  0.0932
 7170W        W23644  15.930  10.926   4.466  0.3929  0.1254  0.0078
 7171W        W23645  10.793  12.113  12.785 -0.1398 -0.0627 -0.0220
 7172W        W23646  13.375   0.435  10.730 -0.1457 -0.5187  0.0282
 7173W        W23647  18.787   0.913  13.177 -0.0561 -0.3877 -0.2420
 7174W        W23648   5.026   8.584   9.926 -0.0174 -0.3650 -0.3496
 7175W        W23649  15.678   4.483  11.585 -0.0266 -0.0007  0.1489
 7176W        W23650  15.954  17.779   9.625 -0.1172  0.2452  0.0904
 7177W        W23651   3.319   6.478   2.999 -0.3105  0.0778  0.3142
 7178W        W23652   7.211  10.014  10.655 -0.2679 -0.0861  0.0844
 7179W        W23653   7.013   8.786  13.468 -0.1715  0.2087 -0.4171
 7180W        W23654   4.799  15.707  11.282 -0.1272 -0.0173  0.0251
 7181W        W23655   5.917  10.164   3.058 -0.0331 -0.1942 -0.0744
 7182W        W23656   8.204  17.329  14.550  0.1668  0.0815  0.5264
 7183W        W23657   8.597   2.167  10.457 -0.0753  0.0148 -0.2360
 7184W        W23658  10.816  18.982   1.872  0.1828 -0.1816 -0.1364
 7185W        W23659  18.654   3.567   4.274  0.1681 -0.0484  0.1148
 7186W        W23660   2.854   1.810   0.264 -0.1244 -0.0527 -0.1618
 7187W        W23661  13.290   7.535   1.484 -0.0964  0.2092  0.1913
 7188W        W23662   3.194   7.965  10.783  0.3088 -0.2752 -0.0362
 7189W        W23663   1.080   6.597   1.440 -0.1329 -0.3233  0.0296
 7190W        W23664   4.276  16.590   1.289 -0.0096  0.1576 -0.2471
 7191W        W23665   5.436   9.295   2.045  0.5181  0.1958  0.0097
 7192W        W23666   8.726  12.053  10.450 -0.3905  0.4715  0.3012
 7193W        W23667   0.718   2.600  11.785  0.2125  0.0761 -0.0050
 7194W        W23668   3.440  13.303  11.009 -0.3831  0.0599  0.0697
 7195W        W23669   1.691  17.539  10.970  0.2074  0.1752  0.1716
 7196W        W23670   6.060   7.580  13.859 -0.4316  0.1597  0.1503
 7197W        W23671  16.083   6.380  14.336  0.3302  0.0576  0.1597
 7198W        W23672   2.477   1.708   3.323 -0.0509 -0.1753  0.4893
 7199W        W23673   1.163  12.027  12.668  0.2220 -0.1342  0.1393
 7200W        W23674  13.728  14.658   4.078 -0.2179 -0.2241  0.2982
 7201W        W23675   8.504   3.703  11.223 -0.0470 -0.2706 -0.2021
 7202W        W23676  17.359   4.872   5.044 -0.1365  0.1867  0.2259
 7203W        W23677   3.104   1.282   0.437 -0.0144  0.3016 -0.3069
 7204W        W23678  17.841   1.473  12.694  0.0221 -0.0074 -0.4856
 7205W        W23679  17.779  19.018  11.599  0.0619  0.3427  0.0580
 7206W        W23680   4.183   8.008  10.773  0.1328 -0.4441 -0.1349
 7207W        W23681   0.356  17.659   3.317  0.0981 -0.2696  0.1587
 7208W        W23682  13.631   3.811   2.850 -0.0166  0.0184  0.0955
 7209W        W23683  10.784  13.868   0.131  0.0053 -0.2507 -0.1925
 7210W        W23684  16.291   5.438   0.697 -0.1562 -0.1165 -0.3212
 7211W        W23685  11.748  12.231  12.732  0.0378  0.1494 -0.2722
 7212W        W23686  11.072  14.205   0.415  0.2416  0.1936 -0.0285
 7213W        W23687  16.834  11.836   3.477  0.2133 -0.0004  0.0131
 7214W        W23688   4.435  10.497  13.080 -0.2226 -0.0165  0.1828
 7215W        W23689   4.018  17.795  11.187  0.0316 -0.0982  0.0861
 7216W        W23690   5.983  18.591   4.125  0.2660 -0.1550 -0.2156
 7217W        W23691  11.375   9.032   0.851 -0.1404 -0.0972 -0.1552
 7218W        W23692  14.659   2.322   3.059 -0.2362 -0.2872  0.0244
 7219W        W23693  15.371   3.174  13.078 -0.0052  0.2053  0.0184
 7220W        W23694   9.628   0.397   2.254  0.1342  0.3952 -0.0962
 7221W        W23695  13.207   7.353   4.864 -0.1928 -0.0100 -0.0135
 7222W        W23696  13.552  11.192   0.144 -0.1840 -0.1691  0.1902
 7223W        W23697  19.221  17.734   3.979 -0.0076  0.0539  0.2010
 7224W        W23698   8.058  17.386   1.655  0.1711  0.0962 -0.1927
 7225W        W23699   6.516   7.656   1.338 -0.1852  0.0836 -0.2282
 7226W        W23700   1.493   5.075   3.396  0.1687 -0.3812  0.1925
 7227W        W23701   3.788  18.977  12.034  0.0561 -0.1109 -0.0333
 7228W        W23702  16.732  19.075   9.767 -0.4027  0.1341 -0.2003
 7229W        W23703  11.914   6.087   3.091 -0.2352 -0.0208  0.1445
 7230W        W23704  13.595   1.309   0.601 -0.1234 -0.1141 -0.2843
 7231W        W23705  19.242  14.846  12.739 -0.0171  0.0093  0.1710
 7232W        W23706  16.827  17.651   1.056 -0.2075  0.0845 -0.2770
 7233W        W23707  19.124  15.364   0.643  0.0053 -0.3359 -0.0385
 7234W        W23708   5.693  16.874   5.048  0.1373  0.2834  0.0828
 7235W        W23709   5.869  11.070   4.615  0.0752 -0.3268 -0.0815
 7236W        W23710   4.944   0.739  13.867  0.3054 -0.0224 -0.2385
 7237W        W23711   6.394   7.688   1.958  0.1459 -0.1387 -0.2083
 7238W        W23712   6.576   0.183   3.846  0.0430  0.1345  0.1227
 7239W        W23713  15.917   7.532   3.090  0.1707  0.1738 -0.1272
 7240W        W23714  13.509   2.571  11.120  0.1820  0.2338 -0.0607
 7241W        W23715   4.193  15.185  11.988  0.0959 -0.1984 -0.2810
 7242W        W23716   1.222  15.699   3.151  0.3003 -0.2919 -0.3810
 7243W        W23717   1.509   5.771  12.504 -0.0488 -0.0198 -0.1257
 7244W        W23718   6.768  13.066  12.329 -0.0010  0.2438  0.0132
 7245W        W23719  16.422  10.495   0.968  0.4198  0.0724  0.3893
 7246W        W23720   2.185  12.718   0.041 -0.0336  0.0322 -0.0193
 7247W        W23721  12.582   6.002  12.099 -0.5215  0.3357 -0.3158
 7248W        W23722  14.476   1.787  10.602 -0.0749  0.0349 -0.2420
 7249W        W23723   6.391   7.426  10.054 -0.0922  0.0951 -0.0220
 7250W        W23724   6.317  18.367   1.732  0.0021 -0.2606 -0.2153
 7251W        W23725  14.693   3.412   3.567  0.2132  0.2083  0.2275
 7252W        W23726   4.952  14.306  12.875 -0.1273  0.0186 -0.3802
 7253W        W23727   3.851  19.052   0.508  0.2611 -0.2286  0.0485
 7254W        W23728  11.392  12.984  12.086 -0.2247 -0.0932 -0.0702
 7255W        W23729  18.679  11.797   1.198  0.1417 -0.1925 -0.1240
 7256W        W23730  16.379   5.598  12.791 -0.1072  0.0304 -0.2434
 7257W        W23731  13.083   6.957   1.749  0.0678  0.3165 -0.0005
 7258W        W23732   0.555   7.787   0.200  0.0038  0.0985  0.2206
 7259W        W23733   2.788  11.028   2.295 -0.2149 -0.0879  0.0456
 7260W        W23734  16.417   4.902   0.367 -0.0438 -0.0597 -0.0262
 7261W        W23735   2.952   9.094  11.718  0.2743  0.0546  0.1568
 7262W        W23736   7.786   5.850   4.573  0.1820  0.0063 -0.0387
 7263W        W23737  19.333  10.518   3.647  0.0329  0.3772  0.1169
 7264W        W23738   4.488  16.140   9.729  0.1685  0.1038  0.0171
 7265W        W23739  19.016   7.760   3.339  0.1720 -0.1963  0.1140
 7266W        W23740   9.903  10.096  14.839  0.0710 -0.1007  0.1052
 7267W        W23741   2.923  15.907   0.878 -0.0545  0.1321  0.2372
 7268W        W23742  16.259  15.672  12.671 -0.0687 -0.1885 -0.4118
 7269W        W23743   9.291  18.935   0.594 -0.3806  0.1861  0.0853
 7270W        W23744  11.200   9.886  10.700 -0.0581 -0.0948 -0.1772
 7271W        W23745   3.295   3.706  12.247  0.0279  0.0922 -0.0299
 7272W        W23746  12.162   7.372   3.172  0.3762 -0.2743  0.2814
 7273W        W23747  15.978   1.554  12.872 -0.0481  0.2397  0.1865
 7274W        W23748   2.876  11.720  14.350 -0.0578  0.1603 -0.0260
 7275W        W23749   3.221  10.924  12.784 -0.3980  0.1696  0.0847
 7276W        W23750   7.403   3.447   1.134 -0.1818  0.4553  0.7592
 7277W        W23751   2.878   1.912   3.088 -0.0582 -0.1179  0.0159
 7278W        W23752  17.398  17.411   2.516  0.3571  0.3085 -0.4089
 7279W        W23753   5.205  14.912   5.629  0.3633 -0.4221 -0.2297
 7280W        W23754  18.855  15.129  12.276  0.1159  0.1395  0.2028
 7281W        W23755  18.637   8.235  14.244 -0.0938  0.1996 -0.0918
 7282W        W23756  16.857   4.465  10.778 -0.0673  0.0855  0.2879
 7283W        W23757  13.572   5.422   2.237 -0.0160  0.2552  0.1219
 7284W        W23758   5.702   8.926   3.987 -0.0707 -0.3161 -0.0735
 7285W        W23759   3.457   8.827  12.521  0.0544 -0.2274  0.1913
 7286W        W23760  18.215   0.666   1.300 -0.3524 -0.4479  0.3439
 7287W        W23761   5.510  17.085   3.668  0.2636 -0.1236  0.3239
 7288W        W23762   7.132   8.261   2.456  0.0404 -0.1209  0.3685
 7289W        W23763  14.011   4.211   0.883 -0.1286 -0.2532 -0.3497
 7290W        W23764   0.399  13.799  13.240 -0.0052 -0.1937 -0.0149
 7291W        W23765  17.170  17.750  12.752 -0.2847 -0.1251 -0.2230
 7292W        W23766  13.272   9.856   9.746  0.0534  0.1625 -0.1074
 7293W        W23767   0.575  19.246  12.348  0.3400 -0.1709  0.0824
 7294W        W23768  13.795   6.803  14.574  0.1571  0.1830 -0.0415
 7295W        W23769  16.970   5.256  12.948  0.1594 -0.0388  0.0724
 7296W        W23770   3.909  11.506  11.143  0.0403 -0.1173  0.3098
 7297W        W23771   2.300  14.292   0.429 -0.0120  0.4211  0.0379
 7298W        W23772   7.208   2.769   2.029 -0.2510  0.0579  0.1715
 7299W        W23773   3.894  16.612  12.668  0.1527 -0.3266 -0.1166
 7300W        W23774  12.890  15.944   2.414  0.0832 -0.1798 -0.0158
 7301W        W23775  17.795  12.680   3.263  0.1928 -0.0559  0.1460
 7302W        W23776  13.332  10.358  11.922 -0.0169 -0.2439  0.1754
 7303W        W23777   7.452  18.612   2.969 -0.2061 -0.1829 -0.1425
 7304W        W23778  16.156   6.598  10.452  0.1341  0.1095  0.1393
 7305W        W23779  18.820  10.817   3.661  0.0303  0.1050 -0.0574
 7306W        W23780   7.480   4.329  11.508  0.0130 -0.1923 -0.0420
 7307W        W23781   5.411   9.470   2.616  0.1018 -0.1750 -0.0074
 7308W        W23782   7.969   1.385  13.184  0.3713 -0.1801 -0.1342
 7309W        W23783  14.986  11.320   5.303 -0.2042 -0.0655  0.3118
 7310W        W23784   4.036   6.877  13.478 -0.2267 -0.2468 -0.1537
 7311W        W23785  17.693  12.593   1.735  0.0978 -0.2589  0.0579
 7312W        W23786   6.961   3.837   2.264  0.0107  0.2273  0.5018
 7313W        W23787  16.216  13.223   1.887 -0.3026  0.0150  0.0290
 7314W        W23788  15.578   4.059  11.916  0.1412 -0.0453 -0.0734
 7315W        W23789  12.318  16.058  13.106 -0.0160 -0.1509  0.1301
 7316W        W23790  12.162  13.369   1.686  0.0227  0.3805 -0.0087
 7317W        W23791   2.892  11.880  11.161  0.1643  0.3066 -0.5549
 7318W        W23792  17.249  13.408   0.283 -0.2024  0.1730 -0.0731
 7319W        W23793  14.662  17.028   3.668 -0.1149  0.2190 -0.1126
 7320W        W23794  13.542   2.393  11.932 -0.3429  0.2237 -0.1369
 7321W        W23795   8.772   1.700   4.560 -0.1076 -0.1343  0.0955
 7322W        W23796  15.925  10.095   5.409  0.1404 -0.0681  0.3841
 7323W        W23797  16.514  18.089  13.894 -0.3917 -0.3694  0.0472
 7324W        W23798   3.520  18.517  13.321  0.0464 -0.0133  0.2324
 7325W        W23799   2.203   9.395   3.062 -0.1492 -0.1479 -0.1308
 7326W        W23800   1.932  16.876  14.427  0.2392  0.2345 -0.2577
 7327W        W23801  11.284   4.036  13.520  0.0471 -0.0555 -0.0671
 7328W        W23802  12.388  17.838   3.385  0.3345 -0.0098 -0.0910
 7329W        W23803   4.817   6.585   1.627  0.0780  0.1009 -0.0683
 7330W        W23804   7.077   5.371   4.282 -0.1240  0.0898  0.0888
 7331W        W23805   0.170  10.657   2.545  0.0828 -0.1810 -0.1988
 7332W        W23806  17.218  16.773   4.875  0.0385 -0.1780 -0.2788
 7333W        W23807  13.641   3.357  11.661 -0.1357 -0.0844 -0.4359
 7334W        W23808   7.904  16.919  14.499  0.0089  0.0673  0.0751
 7335W        W23809  13.394   8.379   1.607 -0.0312 -0.0763  0.2376
 7336W        W23810   4.277  16.971   1.612  0.0593 -0.5103 -0.2830
 7337W        W23811  15.033   0.600  13.647  0.0424  0.1256  0.1030
 7338W        W23812  17.774  18.355  11.028 -0.2434  0.3686 -0.0061
 7339W        W23813   4.945  15.349  14.063  0.0529  0.2888  0.1460
 7340W        W23814  14.975   6.168  11.887  0.2070  0.0851  0.1661
 7341W        W23815  13.130   4.845   4.898 -0.3649 -0.0649  0.0704
 7342W        W23816   5.089  15.773  10.873  0.0693  0.1065 -0.0562
 7343W        W23817   4.386   2.378   1.499  0.2143 -0.4315 -0.3029
 7344W        W23818   1.391  12.471  12.625 -0.3007  0.4438  0.0687
 7345W        W23819  15.808   8.033   2.365 -0.0692 -0.0112 -0.0634
 7346W        W23820  11.125   1.432  11.720 -0.0611 -0.0405 -0.4430
 7347W        W23821   6.591   8.280  12.269 -0.2700  0.0041 -0.2619
 7348W        W23822  12.765  11.908  12.936 -0.0462 -0.2131  0.0587
 7349W        W23823   0.183  15.680  12.176 -0.1328  0.0140 -0.1510
 7350W        W23824   5.638   0.352   1.772 -0.1137 -0.1551 -0.0334
 7351W        W23825   2.596   8.317  13.556  0.2155  0.1378  0.0389
 7352W        W23826  13.967  19.020   1.576 -0.1029 -0.0419 -0.0601
 7353W        W23827   4.672  13.289   9.976 -0.0135 -0.4294  0.0036
 7354W        W23828   4.972   7.429   5.212 -0.1405  0.2752  0.5576
 7355W        W23829  11.111   8.826   4.606  0.0143 -0.0843 -0.1424
 7356W        W23830  14.960   9.116  13.082  0.0001 -0.1689  0.1942
 7357W        W23831   9.419  12.235   0.254  0.2299  0.0846 -0.1172
 7358W        W23832  12.943   6.381  11.316  0.4758  0.3422 -0.0689
 7359W        W23833   4.803   6.832  10.647 -0.0493  0.0692  0.0211
 7360W        W23834  17.194   9.518   0.678  0.2210 -0.3113  0.3891
 7361W        W23835   1.903  13.780  14.248 -0.1106 -0.0271  0.3418
 7362W        W23836  15.114   5.844  12.824  0.3115  0.0045  0.0605
 7363W        W23837   7.654   8.143   0.364 -0.2602  0.2539 -0.0900
 7364W        W23838  14.811   3.373  11.400  0.2016  0.2441 -0.2786
 7365W        W23839   9.665  17.098  10.087  0.1160 -0.1639  0.4173
 7366W        W23840  10.711  14.104  13.815  0.0100 -0.1877  0.0220
 7367W        W23841   6.431   0.486  11.670 -0.1435 -0.1381 -0.0703
 7368W        W23842  13.152   5.499   1.865  0.1131 -0.1337 -0.0805
 7369W        W23843  11.553   7.814   1.152 -0.1702  0.0515 -0.1315
 7370W        W23844   0.342  16.756  14.019  0.0639 -0.3388 -0.1899
 7371W        W23845  10.866   2.185   1.594 -0.0096 -0.1792  0.1405
 7372W        W23846   8.150   9.314   3.479  0.2041  0.3276  0.2175
 7373W        W23847   0.601   8.186   4.849  0.1002 -0.2601  0.0718
 7374W        W23848  13.754  19.045  10.983  0.3883  0.1056  0.2579
 7375W        W23849   6.440  17.688  12.990  0.0317 -0.0385  0.0698
 7376W        W23850  15.691  16.275   1.292 -0.1128  0.3111  0.3479
 7377W        W23851   2.191   7.414  11.643  0.0500  0.2188  0.1439
 7378W        W23852   1.340  14.078  11.010  0.0586 -0.0317  0.3088
 7379W        W23853   4.615  15.737   0.153 -0.2182  0.1333  0.0481
 7380W        W23854   9.642   6.667  12.833  0.0632 -0.1310 -0.2641
 7381W        W23855   9.358   1.887   2.753  0.1095 -0.0681  0.0071
 7382W        W23856   9.101  18.552   0.297 -0.1504 -0.2616  0.3114
 7383W        W23857   6.198   4.355   9.927 -0.0606 -0.0943  0.1308
 7384W        W23858   2.837  11.626  14.829 -0.0405  0.1300  0.0393
 7385W        W23859  15.855   3.298   4.134  0.2570  0.1362  0.1355
 7386W        W23860  10.366   9.216   3.292  0.1761  0.0186 -0.2935
 7387W        W23861   2.645   1.416   0.619 -0.1352 -0.0046  0.3383
 7388W        W23862   7.922  14.577  11.468 -0.2712 -0.0869  0.0772
 7389W        W23863  16.401  15.616   4.834  0.1216 -0.0566 -0.2832
 7390W        W23864  16.548   4.606   4.075  0.2122  0.2896  0.1968
 7391W        W23865   4.639  19.091   1.952  0.0232 -0.2924 -0.0266
 7392W        W23866   2.146  13.279  12.722  0.1209 -0.2310 -0.2045
 7393W        W23867  16.235  16.177  12.802  0.0694  0.1086  0.1247
 7394W        W23868  18.769  18.297  12.081 -0.0705 -0.1262  0.1498
 7395W        W23869  12.006  12.573  11.491 -0.1772 -0.0889 -0.1998
 7396W        W23870   1.637   4.459  13.291 -0.3659 -0.1817  0.4532
 7397W        W23871   7.337  19.209   0.630 -0.0218  0.3320 -0.0737
 7398W        W23872  15.316  18.262   0.091  0.2698  0.2102 -0.0748
 7399W        W23873   5.393  16.057   0.450 -0.0562 -0.0659 -0.0540
 7400W        W23874   3.261   3.833   5.530 -0.0084 -0.0575  0.1622
 7401W        W23875   4.656   5.832  12.044 -0.2020  0.2259 -0.2598
 7402W        W23876  11.860  13.442  11.455 -0.0394 -0.0324 -0.0661
 7403W        W23877  19.281  17.781   1.794  0.0859 -0.0011 -0.2787
 7404W        W23878  14.559  17.354  14.785 -0.0067  0.4010 -0.3121
 7405W        W23879  13.172  16.464  14.169  0.0125  0.1009  0.0509
 7406W        W23880  19.176  17.321  12.771 -0.0910  0.4020  0.0944
 7407W        W23881  16.415  14.449   3.703  0.1897  0.1955  0.3329
 7408W        W23882   1.103  18.383  12.952  0.1796 -0.0083  0.1070
 7409W        W23883  14.274   2.991   1.371 -0.2810  0.1888 -0.1627
 7410W        W23884  17.080   7.443   3.559  0.3365  0.0129  0.1426
 7411W        W23885  11.568   4.487   9.640 -0.0508  0.0158  0.0247
 7412W        W23886   9.524   0.099   3.284 -0.2783  0.2123  0.2345
 7413W        W23887  15.227  10.511   4.162 -0.0255 -0.0096  0.2060
 7414W        W23888   4.709  16.822   2.952  0.1679 -0.1871  0.0516
 7415W        W23889   8.120   1.341  10.760  0.0885  0.2187  0.2045
 7416W        W23890   7.407   5.775   0.856  0.0450 -0.5837  0.1899
 7417W        W23891   6.715   2.975   0.782 -0.0947  0.0582 -0.1977
 7418W        W23892   3.776   6.446   4.208 -0.0418 -0.0746 -0.2579
 7419W        W23893   3.886  12.585   3.429 -0.0429  0.2759  0.0841
 7420W        W23894   1.711  15.544   2.412 -0.2873  0.1847  0.2084
 7421W        W23895  15.224   9.348   2.335  0.2004 -0.0667 -0.2003
 7422W        W23896   6.699  17.548  14.143  0.1000 -0.1723 -0.1212
 7423W        W23897   5.519   0.978   3.183 -0.0015  0.2581  0.1210
 7424W        W23898   6.622   4.775  11.557  0.2533  0.0866  0.1533
 7425W        W23899  13.677  17.277   0.087 -0.2569  0.0431 -0.1875
 7426W        W23900   0.757  17.114   4.951  0.1720  0.0646  0.3775
 7427W        W23901  17.947   1.857   9.948  0.0209 -0.0951  0.0918
 7428W        W23902  11.094  14.571   4.689 -0.0376 -0.1125 -0.1079
 7429W        W23903  13.623   8.455   2.591  0.1009 -0.1214  0.4181
 7430W        W23904   8.575  11.793  13.877 -0.2323 -0.1312  0.0333
 7431W        W23905  18.292   6.046  13.777  0.0124 -0.1302 -0.1319
 7432W        W23906   6.530  12.724  12.646 -0.0784  0.1712  0.1686
 7433W        W23907  13.201  17.721   2.364  0.1514 -0.2540 -0.0850
 7434W        W23908  13.697  14.153   4.943 -0.2589  0.1930 -0.0474
 7435W        W23909  16.598  19.075   2.400  0.0834 -0.3414 -0.1031
 7436W        W23910  16.458   2.182   1.433  0.1054 -0.0258 -0.0428
 7437W        W23911  14.916  12.716   5.068 -0.1105  0.0725  0.1559
 7438W        W23912  12.747   3.961   2.502 -0.0394  0.1484  0.0737
 7439W        W23913   1.727   4.668   2.672  0.1796 -0.0676  0.2903
 7440W        W23914  15.066   0.574  11.510  0.1753 -0.0159  0.2239
 7441W        W23915  13.398  18.544   2.793  0.2303  0.0613 -0.2013
 7442W        W23916  13.430   9.472  10.561 -0.1127 -0.0196  0.0296
 7443W        W23917  14.074   1.434   0.791  0.2842 -0.0979 -0.0064
 7444W        W23918   6.693  16.121  13.746  0.1294  0.0669  0.1927
 7445W        W23919  11.215   4.756   2.214 -0.1460  0.1153 -0.2014
 7446W        W23920   9.565  10.068   9.802 -0.2060 -0.2901 -0.3235
 7447W        W23921   2.323   3.463  14.057  0.1725  0.2366 -0.1703
 7448W        W23922  12.534   3.793   0.340 -0.1899 -0.1166  0.1188
 7449W        W23923  16.516  18.308   3.424  0.0714 -0.1513  0.1001
 7450W        W23924   3.979  11.626   0.622 -0.1130  0.0024  0.1521
 7451W        W23925   8.066  12.961   3.135  0.3305 -0.1506  0.0025
 7452W        W23926   0.179   7.373  11.819  0.0343 -0.1000  0.0926
 7453W        W23927   5.098   4.230  13.978  0.0975  0.2453 -0.0650
 7454W        W23928   7.755   2.253   0.665 -0.0848  0.1610 -0.0152
 7455W        W23929  17.155   6.600  14.269  0.2189 -0.0984  0.0465
 7456W        W23930  10.623   0.813   1.067  0.2643  0.1456  0.1548
 7457W        W23931  16.152  10.041   2.835  0.0352 -0.2263  0.2155
 7458W        W23932   0.492   7.307  12.561 -0.0183  0.1846 -0.1251
 7459W        W23933  18.115  13.384   1.888 -0.0195 -0.2501  0.0213
 7460W        W23934  17.880   9.222   5.781 -0.3302 -0.1986 -0.0848
 7461W        W23935  14.697   4.570   4.961  0.3659 -0.2473  0.0332
 7462W        W23936   1.747   5.890  14.337  0.0412 -0.3467  0.0360
 7463W        W23937  16.153   2.430   1.734  0.0150 -0.2763 -0.0870
 7464W        W23938   8.911   2.459   2.182 -0.0765  0.1793 -0.1625
 7465W        W23939   9.567  16.959  13.193 -0.0239 -0.2170 -0.0611
 7466W        W23940  18.068   9.045   2.508 -0.2723  0.2797  0.2666
 7467W        W23941  16.304   0.334  10.498  0.1472  0.3531 -0.0497
 7468W        W23942   3.133  14.209  11.763 -0.0184 -0.1096  0.0065
 7469W        W23943   9.282  13.218  11.828 -0.1522 -0.1970  0.0332
 7470W        W23944  18.390   5.719   3.373  0.2235 -0.2580 -0.0657
 7471W        W23945   1.982   0.423  13.828  0.1809  0.4632  0.0979
 7472W        W23946   7.354  18.203   0.754 -0.2982 -0.0513  0.0033
 7473W        W23947   7.051  15.475  13.103 -0.3802  0.0454 -0.0643
 7474W        W23948  18.304   1.625  12.949  0.1621 -0.0182 -0.1799
 7475W        W23949   9.856   8.201   0.011  0.3632  0.1161  0.1281
 7476W        W23950  12.876  12.788   1.311  0.0503 -0.2399  0.2169
 7477W        W23951   7.662  17.047   0.920  0.2863  0.0900  0.0383
 7478W        W23952   7.237   0.263   0.108 -0.3564 -0.0540 -0.4360
 7479W        W23953  13.636  19.319  11.441 -0.0253  0.1397 -0.1421
 7480W        W23954  13.634  15.057  12.873  0.0921  0.2311  0.2343
 7481W        W23955   9.865  15.630   3.040  0.0562 -0.1313 -0.0563
 7482W        W23956   4.993   6.941  12.496  0.0703 -0.2504 -0.4106
 7483W        W23957   0.783   2.020  14.225  0.3173  0.0735  0.1061
 7484W        W23958   8.720   9.874  10.243 -0.1570  0.1311  0.0333
 7485W        W23959   7.032  19.102  10.249 -0.2283  0.2306  0.0036
 7486W        W23960  10.430   2.039   1.406 -0.2374  0.2417 -0.0378
 7487W        W23961   6.676  17.505   2.006 -0.0478 -0.3354 -0.0803
 7488W        W23962  14.953   2.123   3.792 -0.2510  0.1109 -0.2519
 7489W        W23963   8.189  18.213  14.257 -0.3667 -0.3811  0.1152
 7490W        W23964   3.320  17.796   3.814 -0.1457 -0.3007 -0.3437
 7491W        W23965   2.703  14.803   0.974 -0.1465  0.1998  0.0557
 7492W        W23966   0.122   0.027  14.191 -0.2865 -0.2670 -0.0819
 7493W        W23967   4.759   6.031  11.078 -0.1116  0.1634 -0.2023
 7494W        W23968  11.942  10.995   0.912 -0.3612 -0.2606  0.0308
 7495W        W23969  12.769   1.099   2.033 -0.0373 -0.0580  0.1674
 7496W        W23970   3.562  16.868   2.231  0.1518 -0.0315  0.3308
 7497W        W23971  14.297   7.932   2.694  0.1643  0.2245  0.0518
 7498W        W23972   6.810   9.965  11.603  0.1815 -0.1280  0.1283
 7499W        W23973   1.101  17.180  14.053  0.0236  0.1272  0.3292
 7500W        W23974  12.062  18.891  12.374 -0.0447  0.3982 -0.0159
 7501W        W23975   0.317   3.468  13.925  0.1020 -0.0594 -0.0306
 7502W        W23976  18.576   8.465  12.856 -0.0228 -0.0356  0.2680
 7503W        W23977   4.797   5.523  11.270 -0.2204  0.3675 -0.1137
 7504W        W23978   6.176  19.184   0.612 -0.1691  0.0813 -0.2152
 7505W        W23979  15.526  14.134  13.144  0.0264  0.2105  0.2910
 7506W        W23980   6.131  11.130  13.632  0.0318  0.2489 -0.2199
 7507W        W23981  12.940  12.438   0.387  0.2016  0.2437 -0.1651
 7508W        W23982   8.262   6.086  10.968  0.0895  0.1038  0.3214
 7509W        W23983   2.558   4.508   5.387  0.0907 -0.3273  0.3150
 7510W        W23984   3.016   0.071  12.626  0.2184 -0.1819  0.0734
 7511W        W23985  11.832   3.406  10.704  0.0691  0.1310  0.2769
 7512W        W23986   0.284   3.351  11.859  0.1250 -0.4561  0.2444
 7513W        W23987   3.743   7.115   4.724  0.0568  0.1028  0.0627
 7514W        W23988  10.436  18.311  10.791 -0.0246 -0.3138  0.0393
 7515W        W23989  12.081   6.465   3.442  0.0806  0.0106  0.0997
 7516W        W23990  14.007   5.516  13.923  0.2542  0.1111  0.2767
 7517W        W23991  19.219   8.015  13.030 -0.1226  0.0182  0.2566
 7518W        W23992   3.187  13.049  12.898  0.1408 -0.0137  0.0749
 7519W        W23993   3.449  16.088   1.674 -0.0898  0.1281  0.1289
 7520W        W23994  10.148  14.054   4.495  0.0515 -0.0255  0.0105
 7521W        W23995  15.204  17.880   2.915  0.2158  0.1449 -0.1341
 7522W        W23996  18.771  17.546  12.962 -0.2439  0.0953 -0.0208
 7523W        W23997  15.767   7.922   3.577  0.0566 -0.1487  0.2928
 7524W        W23998   1.000   4.030  13.924  0.0013 -0.0604  0.1272
 7525W        W23999   8.534  15.463  11.963 -0.0175 -0.2769 -0.1568
 7526W        W24000  18.627  15.071   3.620  0.3092  0.4209  0.0688
 7527W        W24001   0.800  19.055  11.840  0.0788  0.0363 -0.2052
 7528W        W24002  16.827  14.549   3.461 -0.1961 -0.0683 -0.0753
 7529W        W24003   0.680   4.441  13.078 -0.0769 -0.3723 -0.2429
 7530W        W24004   5.138   2.099   1.390  0.0766  0.0063 -0.2516
 7531W        W24005  18.855   2.288   1.538 -0.1230  0.1119 -0.1471
 7532W        W24006  17.204   0.996  11.082 -0.0722  0.2835 -0.2568
 7533W        W24007  18.918   0.150   2.608  0.3292 -0.0371 -0.0359
 7534W        W24008  16.630  14.483   0.874  0.0178  0.1067 -0.0459
 7535W        W24009  12.600  10.466  14.370  0.1358  0.1187  0.0993
 7536W        W24010  13.525  10.826  14.485 -0.3206 -0.0459  0.0011
 7537W        W24011   1.404   9.222   4.751 -0.0879  0.1043 -0.0071
 7538W        W24012   9.027  15.442  14.653  0.0664  0.2395 -0.1250
 7539W        W24013  15.387   2.734  10.781  0.0765  0.0522  0.0740
 7540W        W24014  17.658   8.822  12.176  0.3519  0.1496 -0.0502
 7541W        W24015   4.298   6.888   3.354 -0.0157 -0.0776 -0.0538
 7542W        W24016  12.575  18.166   5.601  0.0457 -0.2599 -0.4916
 7543W        W24017   2.915  11.694  12.851 -0.0429 -0.1641 -0.0061
 7544W        W24018   9.802  11.370   0.218  0.2737 -0.3029 -0.1897
 7545W        W24019   1.832  11.900   0.437  0.0243  0.0939  0.2298
 7546W        W24020   7.480   6.224  10.709 -0.0068 -0.3163 -0.0569
 7547W        W24021   8.012  12.494   3.727  0.2092  0.1170 -0.1938
 7548W        W24022   9.392  17.072   2.509  0.1032  0.0209 -0.0139
 7549W        W24023  13.025  18.208  14.000 -0.2413 -0.0132  0.3223
 7550W        W24024  17.161   7.390   2.519  0.0099  0.1944 -0.4069
 7551W        W24025   6.791  16.442   4.913 -0.1647  0.1794  0.1296
 7552W        W24026  12.348   7.628   3.801  0.2649 -0.4067 -0.2391
 7553W        W24027   9.793   0.107  13.903  0.1634 -0.2926 -0.1837
 7554W        W24028  18.998   7.274   5.372 -0.0953  0.0037  0.0975
 7555W        W24029   1.114   4.287  11.755 -0.3217 -0.1920 -0.2229
 7556W        W24030   9.710  16.791   2.890  0.0544  0.1845  0.3000
 7557W        W24031  12.849   7.961  10.547 -0.0660 -0.1385 -0.0323
 7558W        W24032   5.956   0.729  10.758  0.0716  0.1580 -0.0139
 7559W        W24033  10.753  17.166   0.416 -0.0343 -0.1721 -0.1063
 7560W        W24034  15.382   7.384   4.602 -0.4697 -0.2261 -0.0713
 7561W        W24035  16.372  14.343  10.115 -0.0627 -0.0725 -0.0812
 7562W        W24036   8.835  18.403  12.758 -0.0954 -0.2997  0.0269
 7563W        W24037   6.729  12.004  11.785  0.3342 -0.1292  0.0077
 7564W        W24038   3.821  14.768  11.771 -0.2183 -0.0252  0.2647
 7565W        W24039   0.731   6.024   2.026 -0.2111  0.3335 -0.1704
 7566W        W24040   2.346   0.391  13.462 -0.0438  0.0613 -0.2479
 7567W        W24041   4.807  18.648   1.841 -0.0485 -0.2336 -0.0402
 7568W        W24042  13.009   4.954   3.345 -0.1175  0.2310  0.0704
 7569W        W24043   1.887  17.189   1.803  0.5472  0.0913  0.1568
 7570W        W24044  17.726   9.682  12.881 -0.1324  0.3547  0.3731
 7571W        W24045  12.979   7.118  12.733  0.1262 -0.1447 -0.0517
 7572W        W24046  16.981  18.405  12.442 -0.0848 -0.2299  0.0879
 7573W        W24047  13.112   5.171   2.251  0.3083  0.0584  0.1168
 7574W        W24048   0.686   1.731   2.044 -0.0524 -0.0656  0.2735
 7575W        W24049  15.078   4.488  10.245 -0.0547  0.0147 -0.0258
 7576W        W24050  10.627  18.624   4.870  0.0424 -0.1134 -0.1302
 7577W        W24051  13.721  18.989   3.451  0.0969 -0.0325  0.1506
 7578W        W24052  11.340   2.328   4.250 -0.7336 -0.0660  0.0999
 7579W        W24053  16.316   8.973  11.863 -0.0933  0.2760  0.3014
 7580W        W24054  11.310  11.901   2.354 -0.0592 -0.2643  0.2131
 7581W        W24055   6.661  11.551   4.761  0.1353  0.1113 -0.0598
 7582W        W24056  16.232  15.718   1.778  0.1036 -0.0206  0.1271
 7583W        W24057  14.335  16.389  11.287  0.2384  0.0595  0.1242
 7584W        W24058   7.377  16.956  14.447 -0.0978 -0.4658  0.1269
 7585W        W24059   8.667  18.155  10.975 -0.1610 -0.2291 -0.1105
 7586W        W24060  16.535  11.145  11.117 -0.0915 -0.1584 -0.1609
 7587W        W24061   8.318  13.597  12.842  0.0126  0.2282  0.0573
 7588W        W24062   2.784  10.355   3.612 -0.2277  0.2868 -0.3345
 7589W        W24063   8.442   9.200   1.611 -0.1066  0.1059  0.0312
 7590W        W24064  18.746   1.100   0.957  0.0660 -0.0972  0.3907
 7591W        W24065   3.956   0.043  12.049  0.2889 -0.2264  0.0397
 7592W        W24066   9.940  18.018  10.937 -0.0585  0.0173 -0.0343
 7593W        W24067  13.269   3.732  13.896 -0.1024 -0.0745  0.0004
 7594W        W24068  17.100   3.461  11.111  0.2346 -0.2958  0.1906
 7595W        W24069  16.352  11.061   3.437 -0.0675 -0.0908  0.0471
 7596W        W24070  13.208   9.555  11.503  0.0006 -0.3617 -0.1633
 7597W        W24071   2.948   6.886  11.745  0.0096 -0.1714 -0.1185
 7598W        W24072  13.430  19.113   4.346  0.2037  0.0036  0.1432
 7599W        W24073   9.980  12.533  11.961 -0.1738 -0.0660 -0.1492
 7600W        W24074   9.559   2.217  14.004  0.1002 -0.3135 -0.1499
 7601W        W24075   5.065   9.182   2.576  0.1792 -0.1527 -0.2894
 7602W        W24076  18.446  16.937  12.231 -0.0802 -0.0294  0.2508
 7603W        W24077  17.672   1.692  13.292 -0.1959  0.0761 -0.3713
 7604W        W24078  11.198  12.851   2.239 -0.1891  0.0515 -0.2181
 7605W        W24079  13.056   3.450  10.568 -0.1167  0.4599  0.0893
 7606W        W24080  16.416  12.458  14.159 -0.2953 -0.3940 -0.3265
 7607W        W24081   7.124  14.118  13.411 -0.0760 -0.0210  0.1122
 7608W        W24082  13.334   3.416  14.485 -0.0056 -0.1634 -0.0910
 7609W        W24083   6.318  17.840   4.934 -0.0815 -0.1947  0.2251
 7610W        W24084   4.117   2.464  14.493 -0.0006 -0.1120 -0.0346
 7611W        W24085   9.862  15.266   1.606 -0.2401  0.0329 -0.0133
 7612W        W24086  17.327  18.420  13.433  0.1228  0.0921  0.4827
 7613W        W24087  13.653   0.341   5.307  0.0801  0.1724 -0.0997
 7614W        W24088   6.901   2.431   9.669 -0.2305  0.4259  0.1072
 7615W        W24089   6.818   9.790   1.624  0.0328 -0.2092  0.1498
 7616W        W24090  18.620   2.949   2.238 -0.2025  0.2981 -0.1719
 7617W        W24091  12.778   2.716   1.633  0.1709  0.0430 -0.0110
 7618W        W24092  12.167   0.290   1.985 -0.1220 -0.0534 -0.2878
 7619W        W24093   4.925   8.410  12.462 -0.0924  0.4476 -0.0164
 7620W        W24094   9.362  17.785   4.286 -0.3657 -0.3151  0.3524
 7621W        W24095  10.800  10.769  11.663 -0.0645 -0.2896  0.0540
 7622W        W24096  11.699  15.432  12.725  0.0370 -0.0147  0.4069
 7623W        W24097  10.978  17.644  14.414 -0.0448  0.0572  0.0789
 7624W        W24098  13.219   8.346   3.597  0.2321  0.2304 -0.0133
 7625W        W24099  13.210   1.644   4.042 -0.2364 -0.2765  0.1557
 7626W        W24100   5.562   2.380  12.597 -0.0329  0.0708  0.3545
 7627W        W24101  14.734  18.094   3.562  0.2035  0.4357 -0.0327
 7628W        W24102   5.162   1.098  12.908 -0.0324  0.2435 -0.5678
 7629W        W24103   9.390  19.344  10.759  0.1539  0.0216  0.0854
 7630W        W24104   7.876  18.766  11.739 -0.0489 -0.1713  0.0959
 7631W        W24105  14.601   3.973  14.294 -0.1020 -0.2031 -0.1418
 7632W        W24106   8.714  18.785   0.598 -0.4599 -0.2050  0.1609
 7633W        W24107  17.955   9.571   1.381  0.3239  0.1936 -0.0929
 7634W        W24108   6.109  19.148   9.762 -0.1747  0.2914 -0.0028
 7635W        W24109  15.740  11.893   2.625  0.2360  0.0762  0.1380
 7636W        W24110   3.889  14.878  14.452  0.0508 -0.0054 -0.0078
 7637W        W24111   9.083   6.341   2.207 -0.0268 -0.2851  0.1037
 7638W        W24112  13.831  18.713   2.375 -0.3695 -0.2071  0.3448
 7639W        W24113   8.106  12.582   4.188  0.2129 -0.1504  0.0793
 7640W        W24114  14.294   9.036  14.255  0.1391  0.0397  0.0482
 7641W        W24115   6.093   8.726  11.722 -0.0277  0.2170  0.0066
 7642W        W24116   6.899   1.628  12.748  0.0447  0.0346 -0.0217
 7643W        W24117   9.620   4.676   9.936 -0.2419  0.1432  0.0363
 7644W        W24118   9.302   3.026   2.798  0.1407  0.4862  0.1087
 7645W        W24119  17.340  15.707   4.753  0.1170 -0.0953  0.1367
 7646W        W24120  15.007   0.964   2.264  0.0109  0.0682 -0.1674
 7647W        W24121   7.349   8.662   2.149  0.1108  0.0525  0.2364
 7648W        W24122   2.198  16.652  11.510 -0.3425  0.2224 -0.1061
 7649W        W24123   5.476   6.973  13.365 -0.2047 -0.3366 -0.2773
 7650W        W24124  14.559  12.124  10.373  0.1774  0.2017  0.0482
 7651W        W24125  10.976  13.134  11.861  0.1454  0.2277 -0.0255
 7652W        W24126  13.794   2.239  13.372  0.1863 -0.1169 -0.0422
 7653W        W24127  15.045   8.737   0.143  0.1945  0.1833  0.0855
 7654W        W24128   7.283  11.518   2.652  0.0563  0.0251  0.1243
 7655W        W24129  17.788  10.549  12.791 -0.4086  0.2187 -0.0803
 7656W        W24130   2.585   2.726   4.369 -0.0190 -0.0864  0.0965
 7657W        W24131  16.387   5.431  10.878  0.0426 -0.2078  0.2188
 7658W        W24132  18.383   7.776   4.847 -0.1547  0.1605 -0.1863
 7659W        W24133   2.832   4.730  14.241  0.1133 -0.2330  0.0914
 7660W        W24134  14.052   8.340   2.843  0.1480  0.0261  0.1618
 7661W        W24135  14.897   9.224  11.757  0.3787 -0.3605 -0.0177
 7662W        W24136  16.379  18.399  14.815  0.3708  0.1986  0.3034
 7663W        W24137   7.893   5.765   2.488  0.0740 -0.2214  0.2341
 7664W        W24138   5.451  15.606  13.915  0.3076  0.1279  0.0240
 7665W        W24139  12.816   7.081   4.840  0.1566 -0.2238  0.0491
 7666W        W24140   7.141  14.999   2.691  0.1084  0.1757  0.0531
 7667W        W24141  11.057   0.322   0.362  0.1530  0.2004  0.0267
 7668W        W24142  10.354   5.537   4.738  0.4910 -0.0341  0.1307
 7669W        W24143   4.725  12.853   3.359 -0.4244  0.0481 -0.2250
 7670W        W24144   5.026   6.589   0.818 -0.0156  0.1406  0.1295
 7671W        W24145  18.322   4.902   3.951  0.1745  0.0179 -0.2821
 7672W        W24146  10.239   9.319   5.418  0.1920  0.2099 -0.0541
 7673W        W24147   5.145   0.149   0.082 -0.0580  0.1096  0.2125
 7674W        W24148   1.291   2.019  13.193 -0.0657  0.0832  0.1045
 7675W        W24149   0.470  10.751   0.143 -0.1726 -0.0709  0.0699
 7676W        W24150  13.138   1.378   1.812  0.4155  0.0619 -0.0833
 7677W        W24151  16.057   5.426  10.439 -0.0257  0.1672 -0.2418
 7678W        W24152   3.780  15.726  12.316  0.2052  0.3535  0.3114
 7679W        W24153   4.582  13.519   5.902  0.0781 -0.0245  0.1209
 7680W        W24154   4.534   9.089   0.977  0.0993 -0.2999 -0.2726
 7681W        W24155  10.164   7.068   4.138 -0.1537 -0.3886 -0.1398
 7682W        W24156   1.826  15.362  13.782 -0.6805 -0.2255  0.0145
 7683W        W24157   3.446   2.934   5.351  0.0459 -0.2037 -0.0540
 7684W        W24158   3.130  16.106   2.101  0.1993  0.3504 -0.2920
 7685W        W24159   0.367  14.239  12.295 -0.1769  0.2951 -0.1650
 7686W        W24160   5.948   0.731  13.161 -0.1378 -0.0243 -0.2161
 7687W        W24161   0.403   5.826   0.213 -0.2452 -0.0692 -0.1100
 7688W        W24162   3.193  15.375   3.697  0.2756  0.0655 -0.3326
 7689W        W24163   2.780  14.419   1.940 -0.0047 -0.0371  0.0293
 7690W        W24164   2.299  16.033   4.150  0.0637 -0.0014  0.1474
 7691W        W24165   1.098   1.228   0.728 -0.1184 -0.4125  0.0539
 7692W        W24166  15.737   7.195  12.267 -0.1441  0.4696 -0.3131
 7693W        W24167   5.164  16.363   4.919  0.0748 -0.1516 -0.1368
 7694W        W24168  14.841   6.137   2.429  0.0235 -0.1282 -0.1300
 7695W        W24169  13.162  11.319   2.250  0.1492 -0.2025  0.2118
 7696W        W24170  11.004  15.254  14.105 -0.1503  0.0129  0.2662
 7697W        W24171  12.727   6.348  13.035  0.0085 -0.0411  0.1205
 7698W        W24172   8.103   5.475   2.860  0.2245 -0.2339  0.0335
 7699W        W24173  17.340   3.154   0.308  0.0464 -0.0820 -0.1804
 7700W        W24174  17.505  14.510   1.857 -0.2042  0.2561 -0.2683
 7701W        W24175   4.203   0.955   4.239 -0.0300  0.1336 -0.0136
 7702W        W24176  12.338  10.768  11.532  0.0459  0.0186  0.0954
 7703W        W24177  18.592   8.837  10.853 -0.0191  0.1424 -0.0299
 7704W        W24178   7.284   2.143   0.677  0.2935  0.1875  0.0736
 7705W        W24179   1.775   3.600   0.468 -0.1707  0.2497 -0.2003
 7706W        W24180  10.634   6.465  10.225 -0.4865  0.0014  0.2515
 7707W        W24181   9.998   5.212  10.571  0.0170  0.1305  0.0673
 7708W        W24182   7.760   1.664  12.179  0.0862 -0.0863  0.3640
 7709W        W24183  17.267   6.719   4.272 -0.0897  0.1668  0.1383
 7710W        W24184   2.161   7.215   1.001  0.1560  0.4407 -0.1155
 7711W        W24185   1.970  11.741  12.809  0.1417  0.0768  0.0474
 7712W        W24186   0.476  16.866   2.005 -0.3392 -0.1756 -0.1039
 7713W        W24187   7.981  15.149   0.690 -0.0981 -0.2694  0.1177
 7714W        W24188  11.041  18.127  12.861 -0.1178  0.1128 -0.1821
 7715W        W24189   8.229  14.631   3.931 -0.0607  0.0477 -0.0113
 7716W        W24190   9.632   8.313  14.375  0.1370  0.0862  0.2360
 7717W        W24191  10.553  19.234  13.919 -0.0832 -0.0748  0.1191
 7718W        W24192   7.893   7.809  14.155 -0.0739  0.1701 -0.0818
 7719W        W24193  17.771  14.284   5.113 -0.2301 -0.1476  0.2109
 7720W        W24194   3.873  12.432   0.660  0.1212  0.0328 -0.1039
 7721W        W24195  18.178   3.234  13.393  0.3180 -0.0092 -0.0201
 7722W        W24196   0.807  17.756   4.088  0.0599  0.0122 -0.0214
 7723W        W24197  12.702   5.854   3.963 -0.0418 -0.0992 -0.5620
 7724W        W24198   4.751   5.130   4.088 -0.1221 -0.1870 -0.0618
 7725W        W24199   3.232   0.458   1.434  0.1014  0.2905 -0.0344
 7726W        W24200   6.854   0.558   4.081  0.1997  0.3362  0.0067
 7727W        W24201   7.802   0.031   1.115  0.1049 -0.1810  0.0915
 7728W        W24202   9.463  15.140   0.377 -0.1972  0.1438  0.1479
 7729W        W24203  13.106  13.413  12.208 -0.0423  0.2942 -0.0987
 7730W        W24204  14.125   0.618   2.006  0.2074 -0.0252 -0.0678
 7731W        W24205  13.299  13.969   4.559  0.2026 -0.0932  0.2007
 7732W        W24206  14.495   8.765  11.024 -0.0723 -0.1268 -0.2656
 7733W        W24207  15.936  10.925  10.597 -0.1201 -0.1145 -0.4588
 7734W        W24208   0.190  12.812  11.194 -0.0757  0.3397 -0.3124
 7735W        W24209   7.728  16.180   0.756 -0.1268 -0.0527  0.3928
 7736W        W24210  10.951   6.085   5.328  0.1499 -0.1888  0.2114
 7737W        W24211   5.735  14.780  13.596  0.1953 -0.4668 -0.1604
 7738W        W24212   4.890  13.749  11.076  0.1198 -0.1780 -0.1826
 7739W        W24213   0.181   9.147   0.364  0.0643 -0.1500  0.2175
 7740W        W24214  15.881   8.437   3.688 -0.1763  0.0130 -0.0263
 7741W        W24215  10.185  18.969  13.011 -0.0033  0.3606  0.0125
 7742W        W24216  18.410  13.473   0.610 -0.1896  0.3390 -0.0028
 7743W        W24217   5.803  17.020  14.406 -0.2225 -0.0632  0.2113
 7744W        W24218  18.770   4.934  14.289  0.0875 -0.1751 -0.0289
 7745W        W24219  12.116  12.031  14.095 -0.0584 -0.0834  0.0186
 7746W        W24220   3.060  16.841   2.230 -0.1608  0.3534  0.1332
 7747W        W24221   1.079  15.547   1.182  0.2810 -0.0814 -0.5677
 7748W        W24222   7.742   1.439   3.733  0.0560  0.1196  0.2390
 7749W        W24223  13.986   9.514  12.322 -0.0609  0.2461  0.1334
 7750W        W24224  19.014  15.578  12.079 -0.3217  0.1243 -0.0454
 7751W        W24225  16.048  11.884   1.503  0.2236  0.1752 -0.0385
 7752W        W24226  16.477   5.873  10.054 -0.2686 -0.0044 -0.0958
 7753W        W24227  18.834   5.294   4.173 -0.2106 -0.0891  0.3104
 7754W        W24228  17.311  17.471   2.059 -0.5201  0.3078  0.1950
 7755W        W24229  12.708   2.041  11.929  0.1904 -0.2612 -0.2234
 7756W        W24230   6.350   9.462   5.213 -0.1108  0.0402  0.3265
 7757W        W24231  11.612  16.898   1.261 -0.2089 -0.1079  0.0763
 7758W        W24232   7.105   9.669   0.308  0.0449 -0.2285  0.1665
 7759W        W24233  14.080   8.840   5.336 -0.0703  0.2288  0.0608
 7760W        W24234   5.839   7.957   0.314  0.0413  0.3829 -0.0286
 7761W        W24235  16.877   9.946   0.724  0.1020 -0.0242 -0.1326
 7762W        W24236   7.912   5.009   0.262 -0.2982 -0.0194 -0.0993
 7763W        W24237   1.180  14.311   4.069 -0.0345  0.2134 -0.0471
 7764W        W24238  17.186   2.351   3.968 -0.0385  0.1576  0.2288
 7765W        W24239  17.165   2.675  10.930 -0.2039  0.2645  0.1113
 7766W        W24240   1.444  10.775   2.183  0.0280 -0.0682  0.3159
 7767W        W24241  13.505  14.425   1.675  0.0118 -0.0382  0.2342
 7768W        W24242   6.512   4.924  12.001  0.1037  0.0985 -0.3429
 7769W        W24243   1.552  15.308   3.164  0.1001 -0.1809  0.0229
 7770W        W24244   0.853  17.126  11.333  0.1256  0.1430 -0.1145
 7771W        W24245  14.813   9.295   1.404  0.2473 -0.1521 -0.3548
 7772W        W24246  18.223  12.875   0.107 -0.3981 -0.1979  0.3240
 7773W        W24247  12.548  12.805  14.534  0.2879 -0.1490  0.2815
 7774W        W24248   8.492  17.660   4.859 -0.0882 -0.0884  0.0374
 7775W        W24249  18.246  10.018  13.572  0.0186  0.0056 -0.1987
 7776W        W24250   5.109   6.918   3.497 -0.0748 -0.5308  0.1358
 7777W        W24251   8.261   1.301  10.134  0.0983  0.1234 -0.0814
 7778W        W24252   0.567   9.798  12.047 -0.0035  0.0008  0.0096
 7779W        W24253  15.649   1.596  11.463 -0.1739  0.0725  0.0337
 7780W        W24254   0.234   2.823  12.119 -0.0230 -0.2176  0.1139
 7781W        W24255   6.600  12.854   3.650 -0.1757 -0.0316 -0.2509
 7782W        W24256  13.534   3.007  11.968 -0.1060  0.0349  0.2161
 7783W        W24257   2.650  13.490  14.517 -0.1164 -0.2213  0.0799
 7784W        W24258  12.170  15.371  13.043  0.0872 -0.2528 -0.0912
 7785W        W24259  19.130  10.397   4.550  0.1381 -0.1244  0.1714
 7786W        W24260  10.601   5.365   1.680  0.2850 -0.0798  0.0957
 7787W        W24261  17.053  11.670   0.752 -0.0114  0.2743  0.0655
 7788W        W24262   5.721  10.293   0.955  0.1431 -0.1362 -0.3842
 7789W        W24263   7.498  13.203   2.226  0.0743 -0.2604  0.1684
 7790W        W24264  17.438   5.731  10.544 -0.1868  0.3320 -0.2342
 7791W        W24265   0.386   9.375   1.646 -0.0846  0.2145  0.1722
 7792W        W24266  10.321   6.441   8.794 -0.3912  0.3870  0.0259
 7793W        W24267  17.951   2.193  14.531  0.2948 -0.1886 -0.4480
 7794W        W24268  18.350  13.919  12.085 -0.0218 -0.1599 -0.1223
 7795W        W24269   5.538   4.342  14.772  0.0327 -0.2079  0.2363
 7796W        W24270  10.512   9.420  11.442  0.2132  0.4786  0.2480
 7797W        W24271   7.878  14.969   3.990  0.0498 -0.0848 -0.0077
 7798W        W24272  18.964   2.931  13.398 -0.0536  0.2744  0.1922
 7799W        W24273   7.463   6.668   2.535 -0.0492  0.0826 -0.1697
 7800W        W24274  16.981  11.821  13.695  0.0601 -0.3562 -0.4086
 7801W        W24275   3.508  18.163   3.288 -0.3339  0.0598  0.1464
 7802W        W24276  17.907  13.782  11.144  0.0427  0.0477  0.0269
 7803W        W24277   5.646  16.768   4.080 -0.0955 -0.0160  0.0005
 7804W        W24278   3.718  11.332  11.559  0.0829  0.0852  0.0390
 7805W        W24279   4.028   5.874   9.485  0.0869 -0.2848  0.1929
 7806W        W24280  17.771   9.378  14.076  0.1243  0.2094  0.1123
 7807W        W24281  14.111   6.789   9.503  0.1216  0.1579  0.2746
 7808W        W24282  18.329  16.568   3.069  0.1757  0.2905 -0.1657
 7809W        W24283  12.734   7.569   0.007 -0.3951  0.1170  0.0584
 7810W        W24284   5.558   7.665  13.556 -0.1440  0.0271 -0.0603
 7811W        W24285   5.269   1.641   2.948  0.1525  0.2465 -0.1611
 7812W        W24286   9.518  17.392  14.020  0.0072  0.0380 -0.0096
 7813W        W24287   1.154   3.093  10.618  0.1009  0.2108  0.1069
 7814W        W24288  17.639   9.846   2.726  0.2909 -0.3178  0.0651
 7815W        W24289  12.734   2.428  13.712 -0.1596 -0.2647  0.1754
 7816W        W24290  19.103   5.559  11.397  0.0036  0.1212 -0.3211
 7817W        W24291   6.120   2.228  13.551  0.3339 -0.0236  0.1031
 7818W        W24292   8.749  15.356   0.311 -0.2632  0.0955 -0.0428
 7819W        W24293   9.613   6.011  14.532  0.2707  0.2034 -0.3229
 7820W        W24294   8.812   5.406   0.733  0.3351  0.0823  0.1796
 7821W        W24295  18.162  17.145  11.724 -0.0025 -0.1150 -0.1202
 7822W        W24296  12.563  17.243   4.178 -0.1528 -0.2225  0.1619
 7823W        W24297  10.593  17.058   2.140  0.3205  0.0269 -0.2157
 7824W        W24298   0.828   2.228  14.746  0.1708 -0.3820  0.0993
 7825W        W24299  10.456  12.478  13.593 -0.0813  0.0477 -0.2224
 7826W        W24300   0.191  18.905   4.647 -0.2897 -0.2091 -0.0166
 7827W        W24301  17.327   7.655   1.516  0.4049  0.2599 -0.1920
 7828W        W24302   6.386   9.384   1.138  0.1653  0.0519 -0.0690
 7829W        W24303   8.922   1.863  11.638  0.2223  0.0011  0.1335
 7830W        W24304   9.487   6.231  13.045 -0.0211 -0.0315 -0.1082
 7831W        W24305  18.563  10.380   3.789  0.1255  0.1221 -0.0893
 7832W        W24306   1.893   9.491   2.150  0.0841  0.3567  0.0745
 7833W        W24307  14.766  11.702   3.403  0.0356  0.0042 -0.0233
 7834W        W24308   1.757   6.347   2.565 -0.1927 -0.3147 -0.0163
 7835W        W24309   9.998  11.265  11.127  0.1539  0.2197  0.0559
 7836W        W24310   6.342   4.026  11.439 -0.1558 -0.0354 -0.3604
 7837W        W24311  13.363   8.808   3.469  0.1550  0.0760 -0.0917
 7838W        W24312   0.326  17.501   4.157  0.2162  0.0231  0.0984
 7839W        W24313   1.198   5.725   1.856 -0.4687 -0.0102  0.0615
 7840W        W24314  17.396  18.662   3.010  0.3370  0.1022  0.3238
 7841W        W24315  12.754  11.023  11.083  0.0323 -0.0411 -0.1270
 7842W        W24316   1.247  19.378  10.328  0.1356  0.3731  0.2519
 7843W        W24317  18.284   1.845   4.558 -0.3326  0.0142 -0.1615
 7844W        W24318  13.257  17.833  12.963  0.0815  0.4749  0.0872
 7845W        W24319   3.784   4.712  13.126 -0.0521  0.0185 -0.1010
 7846W        W24320   0.144  17.343   9.761  0.0211 -0.0557 -0.1034
 7847W        W24321   3.141   5.673   1.394 -0.1392 -0.3185  0.0519
 7848W        W24322   9.474   2.242  10.010  0.0327 -0.0687  0.1008
 7849W        W24323  10.108   1.994  13.615 -0.2924  0.0948  0.0112
 7850W        W24324   5.313  16.281  11.839 -0.2743  0.2155 -0.0089
 7851W        W24325   5.000  18.455  11.841  0.0360 -0.0253 -0.2704
 7852W        W24326   5.480  10.355   4.772  0.0145 -0.0038  0.0150
 7853W        W24327   4.145   8.923   2.698  0.0067 -0.1559  0.0476
 7854W        W24328  15.760  12.675   3.801  0.0191  0.0360  0.1913
 7855W        W24329   4.894  18.569  14.332  0.4731  0.0741 -0.1889
 7856W        W24330   4.986  14.420  13.762 -0.2829 -0.1212  0.2719
 7857W        W24331  13.729   9.311   3.709 -0.1589 -0.0924  0.2070
 7858W        W24332  16.256  15.941   2.848  0.2370  0.1219  0.1428
 7859W        W24333   6.332  10.405  11.359  0.0628 -0.0482 -0.1572
 7860W        W24334  17.802  18.006  11.880 -0.0676  0.3384 -0.3959
 7861W        W24335   6.868  10.837   1.725 -0.1665  0.0827 -0.0767
 7862W        W24336   5.673  14.518   1.341 -0.0650  0.0591  0.2825
 7863W        W24337  13.483   7.746  14.259 -0.0093 -0.1926  0.2719
 7864W        W24338   7.101   3.383   4.182 -0.1302 -0.1859  0.1936
 7865W        W24339  13.848   5.726  12.171  0.0692  0.1865 -0.1324
 7866W        W24340  12.691   0.131   2.003 -0.2194 -0.4783 -0.0226
 7867W        W24341  12.176   9.815  10.411  0.0512 -0.1078  0.6707
 7868W        W24342  14.411  15.564  12.574 -0.3326  0.0673  0.2536
 7869W        W24343   5.774   9.865   3.397  0.0201  0.4007 -0.1750
 7870W        W24344   4.839   2.871   2.031  0.0934  0.1983 -0.1835
 7871W        W24345  16.306   9.967  12.216  0.2196 -0.2721 -0.1588
 7872W        W24346   1.520   9.502   0.693  0.1130 -0.0335  0.0260
 7873W        W24347  17.233   1.519  10.961 -0.1077  0.0443  0.0422
 7874W        W24348   2.847  18.244  14.307  0.1407 -0.1188  0.1825
 7875W        W24349   0.067  15.192   2.452 -0.1118 -0.1574  0.0207
 7876W        W24350   9.719   7.754   2.920  0.7205  0.0261  0.0502
 7877W        W24351  11.691   7.497   0.767  0.3438  0.1786 -0.0216
 7878W        W24352   9.917  12.930   4.790 -0.3212  0.2596 -0.2036
 7879W        W24353  16.459  19.310   0.940  0.1538 -0.1819 -0.0383
 7880W        W24354  13.810   7.264  13.710 -0.3124  0.1748  0.3285
 7881W        W24355   3.897  12.009  11.501  0.1361  0.1961  0.0570
 7882W        W24356  15.043  19.027  11.028 -0.2473 -0.0959  0.0529
 7883W        W24357  10.436  10.712   2.670 -0.3800  0.2045  0.2237
 7884W        W24358   8.807  17.406   3.017 -0.4485  0.2142  0.1331
 7885W        W24359   1.325  12.393  14.048  0.2858 -0.0328  0.1064
 7886W        W24360  11.763   9.513  12.120  0.0424 -0.0603  0.1298
 7887W        W24361   8.287  19.369   0.988  0.2477  0.1487  0.0675
 7888W        W24362  17.784  16.477   1.264  0.1838 -0.2450 -0.1541
 7889W        W24363   9.384   4.811   4.321  0.1063  0.0742  0.0676
 7890W        W24364   7.588   8.285   1.908  0.1373 -0.2434 -0.1915
 7891W        W24365   0.570   5.313  12.395 -0.2776 -0.1412 -0.0953
 7892W        W24366  13.892  18.699   0.637  0.2171 -0.0157  0.0209
 7893W        W24367  18.164   8.920   4.790  0.0131 -0.3207  0.1930
 7894W        W24368  17.593   0.236  10.638  0.0128  0.0852 -0.0208
 7895W        W24369   1.470  15.156   1.805 -0.0376  0.3238  0.1179
 7896W        W24370   3.704   3.483  11.904 -0.1247  0.3552 -0.0589
 7897W        W24371  14.568   7.447   0.929 -0.0152 -0.1974  0.0845
 7898W        W24372   1.378   6.086   1.274  0.2715 -0.2076  0.0848
 7899W        W24373  13.442   3.965   5.792  0.0293 -0.0941  0.0312
 7900W        W24374  13.789   8.440  11.515 -0.1929 -0.0036 -0.1927
 7901W        W24375  13.904  15.315   4.062 -0.1044  0.0367  0.1667
 7902W        W24376   7.646   8.274  10.935  0.1455  0.0759 -0.0743
 7903W        W24377  10.811   6.694  12.189  0.2531  0.1715  0.2627
 7904W        W24378  12.780   4.577   2.982 -0.0234  0.0345 -0.1597
 7905W        W24379   3.509   5.012  11.989  0.2203  0.1168  0.3573
 7906W        W24380  14.830   4.668  11.958  0.1366  0.0855 -0.1932
 7907W        W24381  18.466   6.744  10.425 -0.0701  0.2860  0.0471
 7908W        W24382  13.022   2.054   3.887  0.0589  0.2704  0.1924
 7909W        W24383   5.630  12.620   2.134  0.4336  0.1268 -0.4934
 7910W        W24384   2.732   3.159  10.429 -0.5523  0.3464 -0.2264
 7911W        W24385  19.092  10.453  13.809  0.1716  0.1983  0.2106
 7912W        W24386   0.437  12.572  14.231  0.2757  0.0043  0.0062
 7913W        W24387   3.383  12.958  12.430  0.0137 -0.0934  0.0047
 7914W        W24388   5.010   8.775   4.745  0.0158 -0.0475 -0.1607
 7915W        W24389  18.537   6.383   0.122 -0.2507 -0.0361  0.3480
 7916W        W24390   2.666  15.386   2.555 -0.1090  0.3319  0.3519
 7917W        W24391   3.927   6.578  11.182  0.1861 -0.2956 -0.2196
 7918W        W24392   6.000  11.681  13.487  0.0905  0.2429  0.1225
 7919W        W24393   7.397   0.449   1.286 -0.0313 -0.0704  0.1809
 7920W        W24394   0.435  10.242  11.962 -0.4202  0.0920 -0.2395
 7921W        W24395  13.615   9.623  13.645  0.2089 -0.1233  0.3111
 7922W        W24396   4.782  18.025  12.515 -0.1343  0.0450 -0.6059
 7923W        W24397  15.955   6.483  13.055  0.1644 -0.0827 -0.2330
 7924W        W24398   4.167  18.947   2.260  0.1195  0.1220 -0.0510
 7925W        W24399   1.503  11.948   2.457  0.2156 -0.0764  0.1758
 7926W        W24400  11.269   3.279   4.325 -0.0059  0.1229  0.1248
 7927W        W24401   8.221   8.754   3.651  0.1702  0.2486  0.0250
 7928W        W24402   6.444  14.267   3.151 -0.0537 -0.2983  0.0363
 7929W        W24403   2.458   5.567  11.175 -0.3240  0.1532  0.1016
 7930W        W24404   0.351   2.551   2.592  0.2857  0.2973  0.1734
 7931W        W24405   0.205  12.753   1.732  0.0043 -0.0167 -0.0653
 7932W        W24406   3.623   6.610  13.336  0.0414 -0.3033 -0.1671
 7933W        W24407   5.580   1.069  13.150 -0.1215 -0.1424 -0.0955
 7934W        W24408  14.310   3.793  11.455 -0.1737 -0.3422  0.0262
 7935W        W24409  15.919  15.572  13.712  0.1164  0.2761  0.0419
 7936W        W24410   5.076  13.325   5.777  0.1803  0.2350  0.0858
 7937W        W24411   9.163   1.591  13.360 -0.2210 -0.0804  0.1380
 7938W        W24412   6.581   4.366  14.501 -0.0961 -0.1109  0.1995
 7939W        W24413  15.801  18.239   0.221 -0.2263  0.2609  0.0233
 7940W        W24414  12.544  15.565   3.011 -0.1229 -0.0538 -0.0215
 7941W        W24415   9.663  17.148   3.842 -0.0304  0.2895  0.3734
 7942W        W24416   5.855   7.034  12.493  0.0985  0.2729 -0.0673
 7943W        W24417   1.849   9.569  13.193  0.0960  0.0140 -0.2722
 7944W        W24418   8.764   7.949   0.181  0.4755 -0.1713 -0.0167
 7945W        W24419  17.269  18.376   2.184 -0.1641 -0.0944 -0.1984
 7946W        W24420   1.481   5.969   4.178 -0.3893  0.0502  0.2112
 7947W        W24421  19.294  12.536  13.025  0.0563 -0.0948 -0.0857
 7948W        W24422   8.181   4.122  13.427  0.0928  0.2610  0.3619
 7949W        W24423  18.266   1.293  11.092 -0.2700  0.0090  0.2287
 7950W        W24424   5.969  16.966   0.888 -0.0267  0.2678 -0.2046
 7951W        W24425   2.925   2.632   0.953  0.2646  0.0218  0.1328
 7952W        W24426   9.422  13.636   1.903  0.2380 -0.0702 -0.2921
 7953W        W24427   1.234   2.363   1.336 -0.1059  0.0784  0.1812
 7954W        W24428   9.489   1.180   0.557  0.1039  0.1905  0.3357
 7955W        W24429  14.775   7.015   1.241 -0.0200 -0.1304  0.1051
 7956W        W24430  16.157  18.638   4.988  0.2165 -0.2979 -0.3549
 7957W        W24431   8.631  12.926   0.817 -0.2297 -0.0281  0.0948
 7958W        W24432   1.422  13.565  13.792 -0.0727 -0.3246 -0.0076
 7959W        W24433  17.474  17.523   0.536  0.1268  0.1617  0.0627
 7960W        W24434   5.234  15.626  14.483 -0.0052 -0.1524 -0.0889
 7961W        W24435   0.120   2.448  13.897  0.1685  0.0222  0.0124
 7962W        W24436   8.827  18.204   2.778  0.0725  0.1044 -0.2418
 7963W        W24437  10.747  16.402   0.896 -0.4394 -0.3220  0.1638
 7964W        W24438  14.487  10.677  12.680 -0.1697 -0.0834 -0.0795
 7965W        W24439   8.521   9.737  11.776 -0.0960  0.0858  0.3145
 7966W        W24440  16.904   3.939   1.329 -0.3444  0.1537  0.2206
 7967W        W24441  14.293   7.048   2.701  0.0934 -0.1791 -0.2841
 7968W        W24442   9.809   7.767  11.219  0.1014 -0.0460  0.0733
 7969W        W24443  11.324   7.395   1.498  0.2092  0.1856 -0.3427
 7970W        W24444   4.481   9.307   5.609 -0.2825  0.0582  0.0521
 7971W        W24445  15.098   3.842  14.178 -0.0239 -0.1210 -0.2838
 7972W        W24446  13.985   8.355  13.817 -0.1487  0.0405 -0.2487
 7973W        W24447  11.497  13.614  14.453 -0.5680 -0.1025  0.1792
 7974W        W24448  14.074   7.218   0.103  0.0439 -0.0159  0.0229
 7975W        W24449  14.962   2.880  13.240 -0.0115 -0.0162 -0.2478
 7976W        W24450   0.347  19.252   1.130  0.2801  0.0643 -0.0901
 7977W        W24451   4.543   9.502   1.770  0.1879  0.1642  0.0834
 7978W        W24452   1.747  17.536  11.663  0.3889  0.0762  0.3112
 7979W        W24453   8.613   7.069   0.690  0.0577 -0.1202 -0.2403
 7980W        W24454   3.705  12.736  14.159 -0.0453 -0.0288 -0.0948
 7981W        W24455  14.971   6.521   0.102 -0.0510  0.3947  0.1726
 7982W        W24456  17.834   6.587   0.688 -0.2486  0.1438 -0.1099
 7983W        W24457   7.257   7.501   3.053 -0.1636  0.1250  0.1836
 7984W        W24458   1.195  17.588  12.430 -0.2983  0.0068  0.0378
 7985W        W24459  18.305  13.715  10.267 -0.0916  0.1105 -0.0451
 7986W        W24460   6.662   2.619  10.730  0.1357  0.2210 -0.2446
 7987W        W24461  14.649  10.896  11.424  0.0511 -0.2933 -0.2965
 7988W        W24462  16.932  14.552   5.942  0.0388  0.1700  0.3467
 7989W        W24463   1.700   6.749   2.904  0.1193 -0.1974  0.1072
 7990W        W24464   7.919   6.528   9.652 -0.2810 -0.0861 -0.1765
 7991W        W24465   1.233  15.312  12.614  0.0609  0.1330  0.0053
 7992W        W24466   3.409  15.129  13.498 -0.1587  0.0680 -0.0183
 7993W        W24467  11.178   3.580   3.780  0.0730  0.0567 -0.1654
 7994W        W24468  10.766  16.686  14.471 -0.0695 -0.2003  0.2175
 7995W        W24469  15.090   7.660  13.421  0.1686  0.0817 -0.1807
 7996W        W24470   2.430   7.124  14.626  0.5191 -0.0008 -0.2476
 7997W        W24471   5.004  16.049   0.876 -0.1344 -0.0242  0.0549
 7998W        W24472   4.454   7.897   9.882  0.2075 -0.1135 -0.1923
 7999W        W24473   8.493  18.029   2.327 -0.3069 -0.0148  0.0545
 8000W        W24474   3.143   2.151   0.596  0.1582  0.2601 -0.0810
 8001W        W24475   5.677  17.823   1.249  0.3618 -0.2551  0.0382
 8002W        W24476   1.759   8.429   4.549 -0.2012  0.0447  0.0660
 8003W        W24477   8.041  11.356   3.669  0.2125  0.1353  0.0974
 8004W        W24478   4.434   5.993   0.286 -0.1825 -0.3590 -0.0248
 8005W        W24479   0.425  17.613  10.551 -0.1759 -0.2474 -0.1718
 8006W        W24480   6.322  16.321   1.469 -0.2386 -0.1630  0.1397
 8007W        W24481  12.373   8.180  11.823  0.1837  0.0187  0.1059
 8008W        W24482  10.860   8.012  12.021 -0.4558 -0.4517 -0.2269
 8009W        W24483  10.511   7.073  13.838 -0.0059 -0.0553 -0.0845
 8010W        W24484   0.035  12.463   0.865  0.0627 -0.0248 -0.2318
 8011W        W24485   3.479  11.767  13.073 -0.3799  0.0737  0.2710
 8012W        W24486  10.612  15.016   3.169  0.0118 -0.0120 -0.0555
 8013W        W24487   3.349   1.275  11.550  0.0138 -0.2344  0.3322
 8014W        W24488   9.622   8.318  10.363  0.0298 -0.0605 -0.2955
 8015W        W24489  19.383   2.887   0.881  0.2229  0.0463 -0.2304
 8016W        W24490   6.162  16.881  12.591  0.3350 -0.0480  0.2550
 8017W        W24491   5.516   6.804   3.282 -0.1428 -0.1940  0.3022
 8018W        W24492  13.282  13.645  11.739 -0.0628  0.2015 -0.1335
 8019W        W24493  16.877  18.687  11.767 -0.0867 -0.2095 -0.3316
 8020W        W24494   2.159  14.948  13.649  0.2482 -0.3325  0.2145
 8021W        W24495   2.848  16.549  14.637 -0.5127  0.1479  0.1062
 8022W        W24496  14.878  17.750  14.543  0.0846 -0.3181  0.3130
 8023W        W24497   7.321  18.312   0.183 -0.1455 -0.3445  0.1552
 8024W        W24498   6.097  12.207  11.392 -0.1846  0.1198  0.1771
 8025W        W24499  13.923   4.398   3.499  0.0854  0.0312 -0.1861
 8026W        W24500   6.413  13.091  11.070  0.1345 -0.6614  0.1260
 8027W        W24501   9.201  11.351   4.578  0.2309  0.2045  0.2310
 8028W        W24502  15.958   7.525   2.546  0.1588 -0.0847 -0.1768
 8029W        W24503  15.997   1.152  14.534  0.0742 -0.1247  0.2114
 8030W        W24504  14.530  15.905   0.023  0.2187 -0.0505 -0.0397
 8031W        W24505   8.367  12.757  12.598 -0.0242  0.0893  0.0388
 8032W        W24506  12.103  15.041   4.051  0.2437  0.4521 -0.3534
 8033W        W24507  15.420  13.657   0.371  0.2374 -0.0916 -0.3968
 8034W        W24508   7.663   3.482   0.695 -0.0180 -0.3702 -0.1492
 8035W        W24509  11.833  14.849  11.481  0.1774 -0.3871 -0.1547
 8036W        W24510  10.141  16.349  11.118  0.1599 -0.1689  0.1091
 8037W        W24511   9.494   0.080   1.360 -0.2116  0.2161 -0.0578
 8038W        W24512   3.180  14.956   1.295  0.4416 -0.1102 -0.0581
 8039W        W24513  11.742  10.504   0.688  0.2111 -0.0635 -0.0702
 8040W        W24514   0.760   1.489  12.196 -0.4628 -0.3761  0.2616
 8041W        W24515  17.981  15.493   5.572 -0.2938 -0.1937  0.1622
 8042W        W24516   8.490   7.620   9.313  0.0221  0.1058 -0.2584
 8043W        W24517  15.299   2.433  11.280 -0.2490  0.1836 -0.0918
 8044W        W24518  17.497  13.028   1.849 -0.2049 -0.1009 -0.2054
 8045W        W24519  11.970  11.430   2.100  0.1661 -0.0350  0.2523
 8046W        W24520   7.136   8.861   4.259 -0.1970 -0.0157 -0.2114
 8047W        W24521  18.775  15.759   1.624  0.2070  0.0425 -0.0669
 8048W        W24522   1.471   5.923  10.426  0.4163 -0.1533 -0.6357
 8049W        W24523   1.298   1.432  11.282 -0.0806 -0.0454  0.0253
 8050W        W24524   2.283  11.156   2.214  0.3223 -0.0308  0.1942
 8051W        W24525  18.391   3.146  14.049 -0.0456  0.1078 -0.1665
 8052W        W24526   3.074  15.209   0.070  0.3399  0.0262 -0.0175
 8053W        W24527  11.289  15.468  11.547 -0.2297 -0.1771 -0.0924
 8054W        W24528  11.547   5.723  10.522 -0.0820  0.1526 -0.1160
 8055W        W24529   6.940  11.965  12.819 -0.0384  0.1206  0.0386
 8056W        W24530  14.751   7.137   4.348 -0.0438  0.0144 -0.4430
 8057W        W24531   1.679   1.697  14.402 -0.1578 -0.1178  0.2469
 8058W        W24532   5.026   6.290  14.339 -0.3426  0.0298 -0.1813
 8059W        W24533   3.357   4.451   2.238  0.0645  0.0085  0.2659
 8060W        W24534   3.866   2.902  10.386  0.2505 -0.3797  0.0966
 8061W        W24535   6.424  13.485   2.618  0.2580 -0.0655 -0.1763
 8062W        W24536   9.484   6.587   1.688  0.0892  0.2139  0.2780
 8063W        W24537  16.541  15.298   5.218  0.1034  0.2518 -0.0877
 8064W        W24538  17.484   5.531   1.842  0.1608 -0.4245 -0.3947
 8065W        W24539  14.285  13.651  14.753 -0.0775 -0.0865 -0.2173
 8066W        W24540   9.445  16.230  13.369 -0.0341 -0.0522 -0.0384
 8067W        W24541  13.991   3.086  10.651 -0.0231 -0.3200 -0.1947
 8068W        W24542   7.420   3.982  11.171  0.0735 -0.2055  0.3367
 8069W        W24543  11.464   6.959   1.936 -0.1684  0.1005  0.0600
 8070W        W24544   9.625   9.954   3.300  0.3444 -0.0365  0.0899
 8071W        W24545   3.910   2.932   0.325  0.1402 -0.1877  0.3522
 8072W        W24546  16.273   2.185   2.169 -0.1388  0.1230 -0.1122
 8073W        W24547  16.041   8.587  11.037  0.1935 -0.1411  0.0496
 8074W        W24548  13.848   8.948  11.587 -0.1332  0.0862 -0.0917
 8075W        W24549   4.415  11.595  14.529 -0.3242  0.1114  0.1058
 8076W        W24550   4.679  19.231  13.237  0.0764 -0.1231  0.3532
 8077W        W24551  12.397   3.843   3.048 -0.0097  0.3887 -0.0845
 8078W        W24552   8.275   8.169  13.164 -0.1039 -0.3426  0.0650
 8079W        W24553   0.616  14.081  10.793  0.1519  0.1697  0.0774
 8080W        W24554  13.092   0.515   1.373  0.4273 -0.1075  0.1909
 8081W        W24555  18.431   5.876  14.823 -0.1001  0.0788  0.1023
 8082W        W24556  11.496  15.910   2.144 -0.0344 -0.1996  0.0012
 8083W        W24557   6.245   3.059   4.028  0.0871 -0.1311  0.0687
 8084W        W24558   8.500   2.281  13.690 -0.4000  0.2859  0.0375
 8085W        W24559   7.906  13.611   5.234  0.0343 -0.1951 -0.2412
 8086W        W24560   7.660   5.764  11.677  0.0497 -0.1616  0.4543
 8087W        W24561   2.227   9.376   5.158  0.2040 -0.0543 -0.0986
 8088W        W24562   7.996   6.513   0.864 -0.2231  0.1502 -0.0381
 8089W        W24563   9.243   4.964   9.962 -0.0829 -0.0604  0.0742
 8090W        W24564  13.105  10.935  10.486  0.0039  0.6188 -0.2377
 8091W        W24565   8.470  11.574  11.149 -0.0282  0.0671  0.2075
 8092W        W24566  11.369  17.823   4.758  0.2488 -0.0874  0.0045
 8093W        W24567   6.580  13.601  13.610  0.2101  0.1997 -0.0503
 8094W        W24568  12.048  12.360  13.678 -0.2657 -0.1383 -0.0634
 8095W        W24569   9.648  15.163   3.227  0.1464 -0.3155  0.1992
 8096W        W24570  17.368  18.751  11.717  0.0322 -0.0064  0.0772
 8097W        W24571   9.827   4.997   4.484  0.2778  0.1410 -0.1577
 8098W        W24572  18.497   4.378   9.644 -0.1940 -0.1883  0.1415
 8099W        W24573   4.374   0.767  14.574  0.0483 -0.5175  0.0819
 8100W        W24574   0.655  10.676  12.773  0.1483 -0.0443 -0.1330
 8101W        W24575  15.108  17.036   3.904 -0.1423  0.2391  0.1824
 8102W        W24576   9.441  10.151   1.215  0.1661 -0.0737  0.1007
 8103W        W24577  14.211  18.361  12.998 -0.5867  0.2189  0.1941
 8104W        W24578   5.662  19.317   4.689  0.0977  0.1187  0.5441
 8105W        W24579  17.920  19.189  10.533 -0.1417  0.0388 -0.0406
 8106W        W24580   0.409   9.876   5.020  0.0041 -0.2253  0.0442
 8107W        W24581   4.746   7.285   3.607 -0.3113  0.0084  0.4128
 8108W        W24582   9.679   3.149   4.020  0.0473  0.2236  0.1744
 8109W        W24583  12.539  17.674   4.475 -0.0982 -0.3181 -0.2747
 8110W        W24584  11.675  19.109   2.131  0.1210  0.1527 -0.0967
 8111W        W24585  18.090   1.290  14.761 -0.0633  0.2581 -0.2348
 8112W        W24586   1.993   7.883   3.763  0.0767  0.2228 -0.1881
 8113W        W24587   2.505  12.412  12.384  0.0951 -0.0206 -0.1697
 8114W        W24588   2.771  14.928  14.650  0.2922 -0.2931 -0.0073
 8115W        W24589  10.118   9.012  13.528 -0.0105 -0.3766 -0.0073
 8116W        W24590  18.395   1.565   0.296 -0.2087 -0.3800  0.1678
 8117W        W24591  10.693  15.510  12.626  0.1088  0.3401  0.2253
 8118W        W24592  12.444   1.905   0.682  0.1302 -0.2449 -0.1298
 8119W        W24593  18.147   9.312   4.459  0.4121  0.0449 -0.2947
 8120W        W24594   0.228   0.668   9.289  0.2805 -0.3716 -0.4034
 8121W        W24595   2.518  17.789   2.159 -0.0793  0.0678  0.0066
 8122W        W24596  16.849   3.826  13.604  0.0892 -0.4768  0.1903
 8123W        W24597  18.463  13.784  10.823 -0.2746 -0.0153  0.1938
 8124W        W24598   3.069   2.788  11.973 -0.2526  0.1338 -0.0700
 8125W        W24599   1.098  10.118   0.097  0.1299 -0.2478 -0.1318
 8126W        W24600  12.408   5.645  11.775 -0.1557 -0.1254 -0.0678
 8127W        W24601  15.031  18.405  11.377  0.2255 -0.2807 -0.3352
 8128W        W24602   9.321  14.838  10.480  0.0668 -0.1857 -0.1109
 8129W        W24603  18.158   4.784  13.381  0.1921  0.2188  0.1091
 8130W        W24604   7.520  12.949   2.986  0.1451 -0.0855 -0.1352
 8131W        W24605   4.434   9.493  11.689 -0.0619  0.2305  0.0266
 8132W        W24606   1.963   0.077  11.599  0.1552  0.2316  0.2393
 8133W        W24607  13.457  16.620   4.088 -0.0059  0.0684  0.1604
 8134W        W24608  16.314   1.878  12.749 -0.0818  0.0740 -0.1007
 8135W        W24609   1.517   2.075   3.995  0.2314 -0.2272 -0.0413
 8136W        W24610  13.552  19.269   4.877 -0.0374 -0.0212  0.2772
 8137W        W24611  11.018   3.141  10.693  0.2557 -0.1935 -0.0229
 8138W        W24612   6.220   2.722  13.539  0.2752  0.0350  0.1550
 8139W        W24613  16.009  18.791  10.985  0.0718  0.0687  0.1379
 8140W        W24614   0.123  17.998  14.623 -0.2729 -0.0027 -0.2615
 8141W        W24615  18.099   8.272   3.966 -0.2531  0.1138  0.1251
 8142W        W24616  12.141  11.063   4.809  0.0831 -0.0164 -0.0148
 8143W        W24617   1.379  16.360  11.396  0.0136 -0.0963 -0.1645
 8144W        W24618   9.018   8.201   4.575  0.0108  0.0043  0.1593
 8145W        W24619   5.294   6.608  13.925 -0.1381  0.0958  0.1086
 8146W        W24620   5.866   7.082   9.055 -0.3403 -0.1542  0.1384
 8147W        W24621   1.254   8.789  13.846  0.3704  0.1235  0.3772
 8148W        W24622  18.047  15.757  14.403  0.2908  0.1965  0.0271
 8149W        W24623  12.877  10.982   1.161  0.1047  0.0314 -0.0693
 8150W        W24624  10.401   5.733   2.770 -0.0243 -0.1880  0.0545
 8151W        W24625   9.296   8.366  10.754  0.0837  0.2618  0.2553
 8152W        W24626  11.321   0.116   3.091  0.1073  0.1940  0.2290
 8153W        W24627   6.181   9.810   0.443 -0.4603  0.0435  0.1901
 8154W        W24628  13.569   3.143  11.137 -0.0743 -0.0888  0.2862
 8155W        W24629  13.307   3.587  13.383  0.3744 -0.2288  0.0037
 8156W        W24630   3.408  15.143  11.674 -0.1368  0.0669 -0.4161
 8157W        W24631   7.419   8.530   2.769  0.1630 -0.0946  0.1072
 8158W        W24632  15.579  11.895   1.765 -0.0323 -0.2521 -0.1101
 8159W        W24633  18.004   2.819  14.084  0.0391  0.0823 -0.0813
 8160W        W24634   2.987   5.098  14.725 -0.0709  0.2926  0.0009
 8161W        W24635   3.983  16.094  12.948 -0.0035  0.1862  0.1741
 8162W        W24636   3.249  14.608   0.824 -0.2225  0.0507  0.4646
 8163W        W24637  15.127   7.347   1.154 -0.1114 -0.0083 -0.1119
 8164W        W24638   8.117   4.260   1.198 -0.0129 -0.2316  0.1378
 8165W        W24639   5.674  18.713   0.380  0.1765  0.0399 -0.1481
 8166W        W24640   7.453  15.893   2.420  0.1491 -0.1458 -0.3175
 8167W        W24641   0.330  13.992  11.414  0.2147 -0.4696 -0.2928
 8168W        W24642   0.094  12.975  13.830  0.0634 -0.0643  0.3397
 8169W        W24643  14.634  11.042   1.373 -0.2726  0.1646 -0.1056
 8170W        W24644  13.891  17.623  13.638 -0.5504  0.2285  0.3100
 8171W        W24645  10.406  17.863  11.127  0.0497 -0.2325 -0.2991
 8172W        W24646   7.428   1.820   3.863  0.2691 -0.0244 -0.1502
 8173W        W24647  18.211   2.023  14.102  0.0448 -0.1135 -0.0356
 8174W        W24648  12.894  15.836   0.705 -0.1810  0.1194  0.0384
 8175W        W24649   4.525   3.359   1.796  0.0313 -0.2205 -0.1026
 8176W        W24650   6.649  15.171   0.435 -0.1343  0.4976 -0.2852
 8177W        W24651   9.921  17.244   2.749  0.2301 -0.0014  0.0666
 8178W        W24652   5.919  13.364  12.648  0.0302 -0.0697 -0.2140
 8179W        W24653   2.123  18.482   1.156 -0.0045  0.4481  0.0378
 8180W        W24654  14.839  14.415   0.091  0.2943 -0.0459 -0.0614
 8181W        W24655  18.489  10.814   4.648 -0.0767 -0.2733 -0.0058
 8182W        W24656  14.275   4.844  12.646  0.0523  0.0516  0.0743
 8183W        W24657   9.017   6.384  13.796  0.1175  0.0083  0.2001
 8184W        W24658  12.227   7.324  13.489 -0.2404  0.1955  0.1582
 8185W        W24659   7.516  19.332   2.587 -0.2660  0.0689  0.1992
 8186W        W24660   6.958   5.148  11.225  0.0550  0.3200  0.0481
 8187W        W24661   6.173  17.189  12.127 -0.3907  0.0578 -0.4399
 8188W        W24662   4.838  15.493  10.482 -0.1734  0.2420 -0.0840
 8189W        W24663  10.694  11.447  14.774 -0.1437  0.1625  0.0658
 8190W        W24664   0.459  17.683  10.060  0.3721 -0.1395 -0.0810
 8191W        W24665  15.264  16.308   4.521 -0.0697 -0.0099 -0.0919
 8192W        W24666  10.868   4.775   0.838 -0.3889  0.3029  0.5390
 8193W        W24667   8.899  16.104  10.666  0.1415  0.1391 -0.2278
 8194W        W24668   1.708   7.528  13.986 -0.0337 -0.1291 -0.0806
 8195W        W24669  13.931   7.180  10.644 -0.0868 -0.1783 -0.1922
 8196W        W24670  13.986   6.774  10.326  0.1781  0.3101  0.2070
 8197W        W24671   0.837  15.521  12.772 -0.1971 -0.1069  0.0293
 8198W        W24672   3.165  11.066  11.523  0.1615 -0.0699 -0.1756
 8199W        W24673   8.111  11.844  13.605  0.5038  0.3108 -0.0466
 8200W        W24674  16.876   3.452   5.026 -0.0911 -0.3068 -0.0420
 8201W        W24675  12.122  10.429   1.687 -0.1064 -0.0337 -0.0212
 8202W        W24676   2.028   4.372  14.675 -0.1490 -0.1830 -0.2118
 8203W        W24677  15.416  11.077  10.558 -0.1520  0.0642  0.1394
 8204W        W24678  10.613  13.700   1.101  0.1014 -0.0980 -0.1745
 8205W        W24679   4.235   3.356   1.399 -0.1321  0.1458  0.0777
 8206W        W24680   0.811  12.489   2.504 -0.0411  0.0923  0.4189
 8207W        W24681   0.369   9.933  13.381 -0.0952  0.1162 -0.0096
 8208W        W24682  12.324   1.208  13.933 -0.0715 -0.0939 -0.1372
 8209W        W24683  17.317  14.688  13.987 -0.0427 -0.1455  0.1138
 8210W        W24684  16.391   8.294   5.357 -0.2814 -0.0204 -0.2672
 8211W        W24685  12.316  18.415  13.558 -0.1343  0.0608 -0.2169
 8212W        W24686   1.154   1.098  12.988 -0.2346  0.5360 -0.0066
 8213W        W24687   3.559  13.884  13.261 -0.1191 -0.0002  0.2002
 8214W        W24688   1.470   4.836   4.269 -0.2081 -0.2405 -0.3879
 8215W        W24689  17.774   9.209  11.325  0.3275 -0.0189 -0.1123
 8216W        W24690  12.682  13.584   2.371  0.2546 -0.0157  0.0026
 8217W        W24691   4.336  14.721  14.768  0.0024  0.0634 -0.1537
 8218W        W24692  14.916  10.921  11.880  0.0811  0.0054 -0.0397
 8219W        W24693   7.862   9.636   0.328  0.1380  0.2093 -0.0838
 8220W        W24694  18.575  16.781   5.816  0.0794  0.3154 -0.1358
 8221W        W24695   0.189   9.792   1.131 -0.1749 -0.0137  0.3841
 8222W        W24696  12.516   0.932  10.252 -0.3055  0.0663 -0.3270
 8223W        W24697  12.354  10.420   0.911 -0.0707  0.0137  0.0307
 8224W        W24698   7.701  16.730  12.047  0.3743 -0.2739  0.1067
 8225W        W24699  13.484  16.026   0.118 -0.0523  0.2010 -0.2675
 8226W        W24700   3.403  14.238  12.254  0.2403  0.1431 -0.2600
 8227W        W24701  15.984  13.807  11.980  0.0466 -0.0994  0.1009
 8228W        W24702  18.596   4.224   3.186  0.1658  0.3016  0.0118
 8229W        W24703   5.600  14.271  12.851 -0.1573  0.3551 -0.3380
 8230W        W24704  18.817  15.250   1.738  0.1824 -0.1414 -0.0873
 8231W        W24705   3.983   9.222   0.853  0.1616  0.1235  0.2617
 8232W        W24706  12.149  16.379  12.494 -0.0243  0.4364  0.0059
 8233W        W24707   1.630   0.167  13.266 -0.1060 -0.0611 -0.0196
 8234W        W24708   6.208  11.294   0.774  0.2265 -0.3730  0.1342
 8235W        W24709   3.344   8.222  13.440 -0.2295  0.1027 -0.0944
 8236W        W24710   8.244  13.302  10.299  0.2339 -0.1896 -0.2524
 8237W        W24711   8.452   9.829  12.370  0.0154 -0.1268  0.1420
 8238W        W24712  11.032   3.877  14.497  0.0013 -0.1078 -0.2469
 8239W        W24713  11.772  11.114  10.812 -0.3368 -0.1332 -0.1042
 8240W        W24714   5.364   0.692  11.040 -0.0079 -0.0809 -0.0042
 8241W        W24715  16.423   8.786   2.139  0.0934  0.0426  0.2844
 8242W        W24716   9.604   8.351   2.314 -0.1114 -0.0628 -0.1535
 8243W        W24717   3.726   0.781   0.198  0.2386  0.0262 -0.0929
 8244W        W24718  14.895   1.563   3.220  0.3101  0.1499  0.0276
 8245W        W24719   1.462  15.740   0.485  0.1491  0.1326 -0.0346
 8246W        W24720   7.432   5.178  10.841 -0.3358  0.2183  0.1381
 8247W        W24721   3.683   0.642   3.895 -0.0781 -0.0050  0.0906
 8248W        W24722  10.741   2.484   4.019 -0.0003 -0.3009  0.1180
 8249W        W24723  18.282  16.969   3.365 -0.3066  0.0118 -0.0295
 8250W        W24724  17.833  18.972  13.026 -0.1283 -0.1488 -0.0057
 8251W        W24725   7.720  11.039  10.924  0.0488 -0.1497  0.0354
 8252W        W24726  10.988  13.667  12.552 -0.1353 -0.5030 -0.0479
 8253W        W24727   2.045   9.602   2.643 -0.2209  0.3771 -0.0019
 8254W        W24728  18.567  17.467   3.709 -0.3244  0.0239  0.0461
 8255W        W24729   2.447   5.124  13.301  0.2433  0.2187 -0.0235
 8256W        W24730  17.866   8.010  13.853  0.1360 -0.4204  0.2357
 8257W        W24731   6.204   0.303   0.682  0.0973  0.2767  0.1286
 8258W        W24732   5.171  11.758   1.110 -0.1969 -0.0130  0.0656
 8259W        W24733   5.336   1.577   0.702  0.2708  0.1107  0.1502
 8260W        W24734   1.451   5.485  10.597 -0.1781  0.1161  0.1244
 8261W        W24735  11.652  18.999   9.671 -0.2015  0.4687 -0.0213
 8262W        W24736   6.163  14.165   2.290  0.1249 -0.0775 -0.0194
 8263W        W24737   0.569   1.586  13.416 -0.0081  0.2383  0.2229
 8264W        W24738   2.675  13.737  13.132 -0.3895 -0.1220  0.2182
 8265W        W24739   6.449   1.405   4.125  0.0559 -0.0258  0.0308
 8266W        W24740   8.143   7.045  13.838 -0.0125 -0.1633  0.2195
 8267W        W24741  10.825   8.405   2.174  0.1167 -0.0552 -0.0388
 8268W        W24742  14.919  13.061  14.753 -0.0715 -0.0129 -0.2389
 8269W        W24743   7.052   5.109   0.906  0.0296 -0.3781  0.2559
 8270W        W24744   2.756  15.926   9.787  0.1630  0.2519 -0.0658
 8271W        W24745  12.777   6.374   4.044  0.0203  0.2594  0.0359
 8272W        W24746  13.687  10.322  12.379  0.1439 -0.0956  0.3297
 8273W        W24747  11.302   2.950  14.411 -0.0733 -0.0400 -0.0704
 8274W        W24748   0.820  17.464   2.667  0.0000  0.0487 -0.1655
 8275W        W24749  16.193   5.972  11.214  0.2302 -0.1569 -0.2971
 8276W        W24750   5.371   4.673   2.903 -0.5878  0.0845  0.1701
 8277W        W24751  15.888  19.180  14.387 -0.1214  0.0680  0.0151
 8278W        W24752   2.802   6.305   1.581 -0.2341  0.0256  0.0116
 8279W        W24753   7.424   5.090   9.753  0.2299 -0.0960  0.0332
 8280W        W24754  15.007   9.692  12.367 -0.0266 -0.1191  0.0753
 8281W        W24755   7.543   6.236   0.772  0.1895 -0.1736 -0.0326
 8282W        W24756   3.266  12.637  13.966  0.3480 -0.0967 -0.3513
 8283W        W24757   6.929   7.165   2.489 -0.1126 -0.1341 -0.1791
 8284W        W24758   8.249   1.078  12.476 -0.0887  0.1610 -0.2701
 8285W        W24759  10.612  12.446  12.320 -0.4345  0.1474  0.0387
 8286W        W24760   5.945   0.666   0.406 -0.0993  0.1295  0.3860
 8287W        W24761  16.110  16.037  13.500  0.0108  0.0011 -0.1803
 8288W        W24762   5.225   6.474   1.985 -0.2133 -0.2819 -0.0500
 8289W        W24763  12.272   3.662  14.852  0.1004 -0.1940 -0.0561
 8290W        W24764   4.305   6.747   5.387 -0.0765 -0.2691  0.0602
 8291W        W24765   4.647   9.986   1.866 -0.0971  0.1283  0.3613
 8292W        W24766   5.394  18.493   2.909 -0.1902  0.3567 -0.2136
 8293W        W24767   0.743   4.244   1.493  0.0955 -0.0034  0.1933
 8294W        W24768   8.188  11.258   9.754 -0.0153  0.1006  0.0632
 8295W        W24769   7.349  14.998  12.143  0.1461 -0.0521 -0.0783
 8296W        W24770  10.936  12.690   0.614 -0.1223 -0.4447 -0.1023
 8297W        W24771  12.775   5.560   2.480  0.3034  0.3774  0.0636
 8298W        W24772  16.319  10.322  14.134  0.0564  0.1495 -0.1426
 8299W        W24773  15.585  14.020  14.368  0.0853  0.0649 -0.0707
 8300W        W24774  17.507  13.109  13.777  0.1246 -0.2598  0.2861
 8301W        W24775  10.806  18.747   0.253  0.2467 -0.1264 -0.2528
 8302W        W24776  17.631  11.336   1.233 -0.2189 -0.2103 -0.3072
 8303W        W24777   8.798  10.614  11.288  0.1665 -0.1198 -0.1775
 8304W        W24778  15.546   7.666  13.212  0.0357  0.1052 -0.1723
 8305W        W24779  14.410   7.522   4.330  0.3237  0.2305 -0.1588
 8306W        W24780  10.763  17.789   3.066 -0.0645 -0.0975 -0.1302
 8307W        W24781  13.454   0.539   9.767 -0.0235  0.1302 -0.3619
 8308W        W24782  15.507  14.288  11.917 -0.1492  0.1082  0.0087
 8309W        W24783  13.151  12.528   1.729 -0.0267 -0.1863  0.3124
 8310W        W24784  12.926  17.072   5.608  0.2574 -0.0167 -0.0647
 8311W        W24785  17.212  10.676  11.416  0.0148  0.3831 -0.2159
 8312W        W24786   8.149  13.293   4.154 -0.1633 -0.0270  0.1240
 8313W        W24787   4.358   5.518   2.919 -0.0278  0.0800 -0.2677
 8314W        W24788  11.362  18.453  13.178 -0.0113 -0.0874 -0.4031
 8315W        W24789   0.093   5.653   2.881  0.1225 -0.1488 -0.0621
 8316W        W24790  12.008   1.530  10.785  0.0223  0.1979  0.0252
 8317W        W24791   7.010   3.719  10.848  0.0467 -0.0452 -0.0380
 8318W        W24792  10.154   1.295   3.608 -0.0280  0.0962  0.3434
 8319W        W24793   0.615   5.640   3.281  0.1120 -0.0559 -0.3758
 8320W        W24794  14.915   9.959   3.230  0.1324  0.3180 -0.1342
 8321W        W24795  18.856  14.298   5.455  0.1793  0.1961  0.1512
 8322W        W24796   6.177   3.296   2.644  0.3472 -0.3106 -0.1837
 8323W        W24797  12.785   4.310  12.942  0.1529 -0.0366  0.0346
 8324W        W24798  17.232  13.083  11.087 -0.4095 -0.2281 -0.0778
 8325W        W24799  14.543  10.105  13.559 -0.0109 -0.1625  0.0969
 8326W        W24800  13.395   2.818   3.764  0.0760 -0.0641 -0.0364
 8327W        W24801   9.307   2.186   0.784  0.0349  0.1314 -0.0382
 8328W        W24802  18.349  12.804  10.893  0.0292  0.0770 -0.0518
 8329W        W24803   6.340   1.436  13.609 -0.1148  0.0501 -0.1238
 8330W        W24804   9.861  10.124  10.763  0.1752 -0.3451 -0.0282
 8331W        W24805  17.798   6.507   2.843  0.1175 -0.1022  0.1764
 8332W        W24806  17.866  14.742   2.559 -0.0044 -0.0191 -0.1944
 8333W        W24807   1.267   4.696   2.293  0.1754 -0.1229 -0.1257
 8334W        W24808  18.001  10.237   3.008 -0.2315 -0.2260  0.2707
 8335W        W24809  12.760   2.142  10.851  0.1463  0.2234  0.1104
 8336W        W24810   8.666  11.057  10.972  0.1943  0.4137  0.1634
 8337W        W24811  16.023   5.200   1.692  0.0976  0.1943  0.0779
 8338W        W24812  11.075  16.116   2.993 -0.1212  0.0012 -0.2550
 8339W        W24813  13.600   0.011  10.594  0.0897  0.0970  0.1252
 8340W        W24814   4.960   3.674  12.140 -0.1520  0.2690 -0.1597
 8341W        W24815  12.205  14.446  13.659 -0.0276  0.2229 -0.0287
 8342W        W24816   6.592  18.319  10.401 -0.4078  0.0984 -0.0705
 8343W        W24817  10.140   5.603   2.373 -0.1789 -0.4253  0.0541
 8344W        W24818   4.588   2.367   3.091  0.2929 -0.0379  0.3985
 8345W        W24819   3.397   0.836   3.039  0.0661  0.2543 -0.0295
 8346W        W24820  17.848  14.795  10.800  0.0124  0.1500  0.0919
 8347W        W24821   4.775   8.094  14.539 -0.0726 -0.0564  0.2135
 8348W        W24822  10.290  17.783   3.232 -0.1765  0.0217 -0.4827
 8349W        W24823   9.155  10.723  10.299 -0.0118 -0.3328  0.1295
 8350W        W24824   6.117   2.158  14.706  0.0186  0.3961 -0.3510
 8351W        W24825   2.495   4.327  12.282  0.1814  0.0746 -0.0265
 8352W        W24826   2.395   7.801  13.592 -0.1448 -0.0463  0.1349
 8353W        W24827   3.405  13.736  14.584 -0.0845  0.0204 -0.1534
 8354W        W24828   5.409  10.290  12.075  0.0706  0.0702 -0.0940
 8355W        W24829   0.840  12.753  14.510 -0.1039  0.3102  0.3232
 8356W        W24830  18.296   5.349   4.326 -0.0898  0.2869 -0.0592
 8357W        W24831   0.246  10.357  13.856  0.4768  0.2989  0.3031
 8358W        W24832  14.457   2.593  10.430  0.0368  0.1808  0.1409
 8359W        W24833   1.187  17.154  10.722  0.1514 -0.1860  0.1151
 8360W        W24834   7.122  17.746   2.558  0.0409 -0.2486  0.3026
 8361W        W24835  14.570   6.918  10.947  0.2098  0.1103 -0.0742
 8362W        W24836  10.652   3.229  11.392 -0.2875 -0.0073 -0.0232
 8363W        W24837   5.434  17.170  11.258  0.1315  0.2522 -0.0947
 8364W        W24838  10.326   8.820   5.444  0.0714 -0.4722  0.1264
 8365W        W24839   9.798   0.811   0.773 -0.1196  0.4538 -0.0635
 8366W        W24840  12.352  14.646   2.047  0.0859  0.0256  0.0396
 8367W        W24841   8.877  17.710   4.536  0.0561 -0.0510 -0.1817
 8368W        W24842  10.763   4.940  11.875  0.3311 -0.3647 -0.2360
 8369W        W24843  15.490   2.306   2.769  0.0870 -0.0035  0.3304
 8370W        W24844  10.346   1.470   3.190 -0.4559  0.2716 -0.0367
 8371W        W24845  17.673  16.357  13.296 -0.1848 -0.1074  0.0582
 8372W        W24846  15.923   2.207   4.222  0.2283  0.0480 -0.1357
 8373W        W24847   0.037   1.793  11.493  0.0878  0.2211 -0.0110
 8374W        W24848  14.643  10.466   2.242  0.3039 -0.1064 -0.2432
 8375W        W24849   0.676   9.348  10.091 -0.0652 -0.1350 -0.2190
 8376W        W24850  14.840   1.471  11.042  0.1176  0.0863 -0.0949
 8377W        W24851  12.905   0.134  14.178  0.1388 -0.2150  0.3979
 8378W        W24852   4.165   8.046  11.905 -0.0796 -0.2472 -0.0167
 8379W        W24853   4.077  16.899   4.505 -0.2282 -0.0548  0.1191
 8380W        W24854  17.948   9.261   4.015  0.0167  0.0996  0.0679
 8381W        W24855  14.797  18.630  10.418 -0.1032  0.0341 -0.4589
 8382W        W24856   6.845   1.444  13.469 -0.0186 -0.2318 -0.2181
 8383W        W24857  11.867   8.809   1.324  0.2431 -0.3508 -0.0017
 8384W        W24858   4.182   3.989   3.982  0.1041 -0.0874  0.0792
 8385W        W24859   4.781  17.631  11.469 -0.2648  0.0870 -0.2423
 8386W        W24860   9.602  18.371   0.026 -0.2541 -0.3332 -0.0828
 8387W        W24861   3.763  14.969   2.637  0.3202  0.0530  0.1599
 8388W        W24862   3.671   2.105  14.654 -0.0631  0.0897 -0.0113
 8389W        W24863   4.935  17.493   9.801 -0.0653  0.0015  0.4825
 8390W        W24864   8.426   2.067   3.050 -0.0281 -0.2473 -0.0580
 8391W        W24865   6.054   5.780  13.209 -0.2313 -0.0544  0.1105
 8392W        W24866   3.633  11.364  14.025 -0.0037 -0.0204 -0.2532
 8393W        W24867   8.347  10.173   2.968  0.3302 -0.0258  0.1058
 8394W        W24868  18.993  17.769   1.374  0.0424 -0.1880 -0.1410
 8395W        W24869   8.375   3.736   0.867  0.2063  0.1815  0.1463
 8396W        W24870  18.297   0.085   4.508 -0.2722 -0.0610 -0.0500
 8397W        W24871   1.758   7.201  11.759 -0.4620 -0.0278  0.0886
 8398W        W24872   6.996  13.571  12.030 -0.0530 -0.2466  0.0676
 8399W        W24873   2.215  18.456  10.864 -0.0061 -0.4190 -0.1344
 8400W        W24874   6.838   0.927  10.229 -0.1123 -0.0263 -0.1422
 8401W        W24875  14.701   6.040   0.275 -0.0359 -0.2517 -0.3658
 8402W        W24876   9.744   2.194   2.796 -0.0686 -0.3752  0.0381
 8403W        W24877   3.738  18.148   2.828  0.0793 -0.1837 -0.3471
 8404W        W24878  13.453   1.317   3.632  0.2461  0.2983  0.3880
 8405W        W24879  14.565  12.329   4.366 -0.3033  0.0417  0.0570
 8406W        W24880  16.377   1.188   1.450 -0.1349  0.0782  0.2025
 8407W        W24881  14.926  10.442  10.961 -0.0820 -0.3595 -0.1153
 8408W        W24882  10.699   9.604   3.487  0.0648 -0.0590  0.0507
 8409W        W24883   3.940   1.909  12.938  0.0945 -0.2214  0.0047
 8410W        W24884   8.954  14.676   4.054 -0.3849 -0.2283  0.2432
 8411W        W24885  16.183  12.491   2.098  0.1109 -0.2272  0.2302
 8412W        W24886   8.296  16.855  12.146  0.0945  0.1763  0.0084
 8413W        W24887   6.434  12.697   3.141  0.2111 -0.1934 -0.0298
 8414W        W24888  16.480   3.252   1.897  0.0232 -0.3377 -0.0753
 8415W        W24889   7.632  17.420   3.514 -0.0799  0.3396 -0.1916
 8416W        W24890   0.770  18.044   1.864 -0.1503 -0.0107 -0.1908
 8417W        W24891   7.093  18.691   1.346  0.1011 -0.1280  0.2469
 8418W        W24892  17.961  10.484   1.114  0.3093  0.0523  0.0096
 8419W        W24893  13.432   4.371  13.641 -0.2745  0.0552 -0.1475
 8420W        W24894  11.048   5.757   0.839 -0.0202 -0.1513  0.2345
 8421W        W24895   3.495  15.330  14.731 -0.0840  0.1425 -0.1988
 8422W        W24896  19.328   5.667  12.790  0.3707 -0.1524 -0.1008
 8423W        W24897  18.320  12.207  10.665 -0.2148 -0.1019  0.1269
 8424W        W24898  12.494  14.261  10.624 -0.0383 -0.3083  0.0237
 8425W        W24899   0.936  13.068  11.883  0.0647 -0.3061 -0.3583
 8426W        W24900   7.415   8.599  12.825 -0.5195  0.5001 -0.3388
 8427W        W24901   5.796   2.512  13.264 -0.0863 -0.2971  0.2570
 8428W        W24902   2.529  17.968  10.957 -0.2850  0.0228 -0.0471
 8429W        W24903  11.112   1.593   3.763  0.0813  0.0857 -0.3629
 8430W        W24904  10.086  10.409  11.306 -0.1308 -0.0521  0.2366
 8431W        W24905  10.234  11.593   0.117  0.1178  0.2456 -0.1057
 8432W        W24906  17.573   0.136   2.448  0.2636 -0.3266  0.2408
 8433W        W24907  13.025   1.730  10.819 -0.1295 -0.1220  0.1912
 8434W        W24908  14.184  14.083  11.612 -0.0743 -0.2325  0.1797
 8435W        W24909  19.120   1.894   0.774 -0.2152 -0.4096  0.0218
 8436W        W24910   9.375   0.601  12.914 -0.0847  0.1462  0.2565
 8437W        W24911   1.659   3.557   3.464  0.0584 -0.1811 -0.1805
 8438W        W24912   5.119   0.477  12.417  0.1355 -0.1890  0.4060
 8439W        W24913  13.261   3.242   1.325 -0.1342 -0.1906  0.0480
 8440W        W24914   5.124  17.284  11.646  0.0141  0.1254  0.2412
 8441W        W24915  17.397   0.736  14.370  0.4253  0.0109 -0.0196
 8442W        W24916  12.848   8.072  12.690 -0.2693  0.2857  0.3434
 8443W        W24917   3.197   5.922   4.770 -0.1316  0.0661  0.0184
 8444W        W24918  16.673  17.575  12.575  0.1132 -0.0297 -0.0297
 8445W        W24919  13.635   4.270  14.531 -0.0098 -0.1162  0.3138
 8446W        W24920   0.333  15.192  12.056 -0.2363 -0.0587 -0.0784
 8447W        W24921   0.831   9.393   3.413 -0.2449  0.0469  0.1117
 8448W        W24922   0.295  18.094  10.655  0.2768  0.5436 -0.3229
 8449W        W24923   9.222  13.133   1.994 -0.0064 -0.2884 -0.1858
 8450W        W24924   1.788  14.570  13.746 -0.3462  0.1770 -0.3384
 8451W        W24925   8.015  11.780  11.888  0.2011 -0.3633 -0.0638
 8452W        W24926  16.334  12.207  10.440 -0.0606 -0.0791 -0.0029
 8453W        W24927   0.477  13.189  11.666 -0.1676  0.0951 -0.0602
 8454W        W24928  18.975  10.096   3.713  0.0752  0.0401 -0.0025
 8455W        W24929   5.134  17.536  11.086  0.2341  0.4136 -0.0504
 8456W        W24930  18.651  17.884  10.680  0.1311 -0.1841  0.0194
 8457W        W24931   1.911  10.889   1.922 -0.1888  0.0514  0.1221
 8458W        W24932  11.281  12.569   3.083  0.2493 -0.2875  0.2844
 8459W        W24933   0.196  14.121  13.542  0.2374  0.0784 -0.0178
 8460W        W24934   9.686   3.029   4.524 -0.0552  0.0169  0.0571
 8461W        W24935  12.642   4.941   5.171 -0.0517 -0.1324 -0.3991
 8462W        W24936  17.447  13.607  13.540 -0.0175  0.0244 -0.1356
 8463W        W24937   5.226  13.514   0.935 -0.0340 -0.1460  0.1790
 8464W        W24938  18.436  11.751   4.727  0.3095  0.3827  0.0209
 8465W        W24939   8.828  11.848  14.598  0.0816 -0.2086  0.0502
 8466W        W24940  16.931   0.630   3.735 -0.5094 -0.0274  0.1471
 8467W        W24941   7.211   1.243  12.545  0.1513 -0.0062  0.0978
 8468W        W24942  19.193   9.590   5.573  0.1863  0.0701  0.0704
 8469W        W24943  10.963  17.704   1.401 -0.1500  0.3017  0.0321
 8470W        W24944  15.200  12.577   3.667 -0.0500 -0.4236  0.1511
 8471W        W24945  16.412  13.388  11.214  0.0152  0.0985  0.1294
 8472W        W24946   8.680   9.154   9.647  0.1212  0.1629  0.1871
 8473W        W24947  14.238   9.136  14.778  0.2068 -0.0713 -0.0474
 8474W        W24948   3.055  13.601   4.491  0.0233  0.0454  0.2593
 8475W        W24949  15.470   2.056  13.283 -0.1219  0.0185  0.6548
 8476W        W24950  18.410  15.180  11.375 -0.1195  0.4134  0.2171
 8477W        W24951   0.711   6.858   4.933 -0.0990  0.2181 -0.1696
 8478W        W24952   7.662   7.115  11.527 -0.1223  0.0222  0.2028
 8479W        W24953  17.226   7.884  11.491  0.1844  0.0438  0.1028
 8480W        W24954   1.633  11.270  10.690 -0.1686  0.2020 -0.0644
 8481W        W24955   0.804  18.727  11.366  0.0243 -0.1654 -0.1640
 8482W        W24956  16.958  17.997   3.928  0.5274  0.1294 -0.1328
 8483W        W24957   6.299   7.068   0.558 -0.1200 -0.0579  0.0869
 8484W        W24958  10.786   0.896  14.579 -0.0769 -0.1227  0.1348
 8485W        W24959   1.611  10.547  12.583 -0.1207  0.0224  0.2938
 8486W        W24960  12.871   6.729   3.614 -0.2365 -0.2129 -0.1246
 8487W        W24961  14.699  15.695  13.565  0.1995 -0.0254 -0.5943
 8488W        W24962   7.852  14.773  14.237  0.0904 -0.2029  0.1220
 8489W        W24963   2.010   9.215   0.696  0.0609  0.1040 -0.0677
 8490W        W24964   5.661  16.008   2.985  0.1128  0.2351 -0.3405
 8491W        W24965   1.865   4.236  10.825 -0.1366 -0.0141 -0.2458
 8492W        W24966   6.787   9.347  14.476 -0.3003  0.5147 -0.3774
 8493W        W24967  16.496  16.049   3.287  0.0416 -0.1511  0.3702
 8494W        W24968  12.094  12.026   2.107 -0.0797  0.1630 -0.1772
 8495W        W24969   5.203  16.922   4.067  0.0406 -0.0648  0.0431
 8496W        W24970  18.707   3.659   0.388  0.0741 -0.0771 -0.5801
 8497W        W24971   3.511  11.007   0.234  0.1762  0.2600  0.4785
 8498W        W24972   5.942   1.108   3.484 -0.1312 -0.0697 -0.0937
 8499W        W24973   2.201   4.660  10.802 -0.0987  0.2090 -0.4010
 8500W        W24974  15.460   7.058  13.322 -0.1179  0.0359 -0.2243
 8501W        W24975   4.450   6.719  12.208 -0.1510  0.1193  0.0852
 8502W        W24976  13.041   4.057   1.616 -0.3450 -0.0524  0.0008
 8503W        W24977  11.671  10.413  12.934  0.0286  0.0971 -0.1639
 8504W        W24978  14.395   5.667   0.385 -0.0239 -0.0372  0.1457
 8505W        W24979   3.708   9.301  14.022 -0.3335 -0.1751  0.0364
 8506W        W24980   2.340  17.470   1.333 -0.3476 -0.1081  0.3883
 8507W        W24981  10.227   3.649   0.058 -0.1180 -0.0652 -0.1852
 8508W        W24982   9.358  13.422   4.316 -0.1287 -0.2610  0.2568
 8509W        W24983   6.678  18.809  14.635  0.4440 -0.1704 -0.0919
 8510W        W24984   9.178   7.470   4.211  0.1363  0.4307  0.3942
 8511W        W24985   2.151   9.949   2.325 -0.0173 -0.0411  0.0829
 8512W        W24986   9.583   1.342   4.010  0.2724  0.0088  0.3212
 8513W        W24987   3.681  18.610   3.099 -0.2272  0.3134  0.0340
 8514W        W24988  18.350   1.433  13.904  0.4146  0.1744  0.2159
 8515W        W24989  18.078  16.319   1.711 -0.2022  0.1283  0.0015
 8516W        W24990   8.661  11.241   4.284 -0.0861 -0.3924 -0.6643
 8517W        W24991   2.013   0.405   5.083  0.0908  0.1002  0.0480
 8518W        W24992   1.293  13.294  14.181 -0.1281  0.2949 -0.0906
 8519W        W24993   2.284  16.612   0.724  0.0034 -0.1207  0.2708
 8520W        W24994  18.656   4.442  13.930 -0.1978  0.0964  0.2857
 8521W        W24995  10.459  12.791  13.240 -0.1289 -0.1588  0.0072
 8522W        W24996  11.617  13.995  10.956 -0.0353  0.2506 -0.1175
 8523W        W24997  16.401   1.571   0.757  0.1527  0.1878  0.0486
 8524W        W24998   6.360  11.501   3.462  0.1303  0.0287 -0.1545
 8525W        W24999  12.094  13.837  12.708  0.1358 -0.1045 -0.0009
 8526W        W25000   6.643   6.626  11.611 -0.1907  0.2655  0.1008
 8527W        W25001  11.483   1.216   3.834  0.1058  0.0697  0.1042
 8528W        W25002  11.417  16.134   0.266 -0.0682 -0.0477 -0.0347
 8529W        W25003   4.914   5.508   3.823 -0.2275  0.0774  0.2364
 8530W        W25004   4.658   7.823   0.799 -0.2120  0.1502 -0.2534
 8531W        W25005   9.333  15.688  12.568 -0.3649  0.1571 -0.0025
 8532W        W25006  16.093   1.152   1.045 -0.1801 -0.1543 -0.2418
 8533W        W25007   9.774   3.217  13.208  0.2560  0.0813 -0.0592
 8534W        W25008  13.933  13.868   0.542 -0.1136 -0.0408  0.1386
 8535W        W25009   5.685   5.245  14.796 -0.0927  0.1133 -0.2605
 8536W        W25010  18.969   5.816   1.174  0.2236  0.1170  0.0761
 8537W        W25011  10.334   5.720  13.197  0.1065  0.3920  0.0006
 8538W        W25012   3.998  19.215   4.781  0.1514 -0.1374 -0.0271
 8539W        W25013   1.164   0.863  12.128 -0.0511 -0.0551 -0.0530
 8540W        W25014   0.578  13.676   9.762  0.1495 -0.0073  0.2638
 8541W        W25015   3.100   2.331   3.537  0.1443 -0.1780 -0.0534
 8542W        W25016   0.012   8.802  12.825 -0.5809  0.1502  0.1754
 8543W        W25017   4.626  10.811  13.829 -0.0469 -0.3028  0.0367
 8544W        W25018  15.307   8.636   3.066  0.1111 -0.3419  0.3544
 8545W        W25019  14.860   7.258  14.301 -0.1781 -0.1959 -0.1767
 8546W        W25020  18.608  17.978   2.686 -0.2341  0.3543  0.5024
 8547W        W25021  19.350  14.246   0.574  0.1312  0.3175  0.0432
 8548W        W25022   5.624   1.994  13.386 -0.3529  0.1129 -0.0942
 8549W        W25023  14.878   0.985   1.255  0.1018 -0.1401 -0.1261
 8550W        W25024   1.856   3.955  11.744 -0.2763  0.0335 -0.0290
 8551W        W25025   0.703  18.241   0.920  0.3340 -0.2625  0.2117
 8552W        W25026  12.225  13.968   1.054 -0.1992  0.0813 -0.0475
 8553W        W25027  12.236   7.821   3.365  0.1117  0.0601 -0.0808
 8554W        W25028  13.407   0.759  13.271 -0.2687  0.2189  0.0008
 8555W        W25029   8.035   0.259   2.330 -0.1901  0.0159  0.0748
 8556W        W25030  14.940   0.167  11.811 -0.4092 -0.2041 -0.0715
 8557W        W25031  16.604   7.384   3.801 -0.0727  0.0370 -0.1993
 8558W        W25032  12.809  16.560   2.750 -0.0607 -0.0603 -0.0261
 8559W        W25033  11.387   3.675  12.311  0.1825  0.1587 -0.1594
 8560W        W25034   2.975   5.581  10.866 -0.0985 -0.2435  0.0107
 8561W        W25035  14.823  16.165  13.109 -0.0382 -0.0005 -0.1559
 8562W        W25036   0.088   9.222   1.289  0.2040  0.1373  0.3554
 8563W        W25037  18.660  17.951   1.800  0.2150  0.2307 -0.0846
 8564W        W25038   5.560   8.515  10.616 -0.0071 -0.1029 -0.2938
 8565W        W25039   8.042   3.111   4.126 -0.0315 -0.0599 -0.2288
 8566W        W25040   2.681   2.161   0.714 -0.1271 -0.0788  0.2152
 8567W        W25041  12.407   3.696  11.886  0.0636  0.0911 -0.2460
 8568W        W25042   2.289  12.071   1.134 -0.1835  0.2314  0.0502
 8569W        W25043  19.054   3.167   4.793  0.4869  0.0139  0.0536
 8570W        W25044   9.592   3.670  14.129  0.0378 -0.2073  0.2344
 8571W        W25045   9.919  15.346  11.013  0.1569  0.1855 -0.1688
 8572W        W25046   6.620  16.560  10.655  0.0771 -0.2236 -0.1221
 8573W        W25047  17.451   5.369   2.475  0.0506  0.1299  0.0470
 8574W        W25048   7.923  18.813  14.342 -0.5917  0.2001  0.0890
 8575W        W25049  15.111  14.243  13.468 -0.0133 -0.0656  0.2207
 8576W        W25050   2.857  18.067   3.449 -0.3236  0.0305  0.0010
 8577W        W25051   8.245   9.614  14.515  0.1602 -0.0115 -0.4258
 8578W        W25052  10.280   9.428  11.025  0.1130  0.1219 -0.2385
 8579W        W25053   4.507  12.609  11.409 -0.0026 -0.1190 -0.3075
 8580W        W25054   7.182   6.401  11.957  0.3125  0.0694 -0.0981
 8581W        W25055  18.175   8.414   1.039 -0.0813 -0.1508  0.2271
 8582W        W25056   0.659  18.069   3.431 -0.0836 -0.0502  0.1456
 8583W        W25057  11.381   8.692  10.066  0.2725  0.1973  0.2048
 8584W        W25058   0.602   7.384  12.099 -0.2886  0.2924 -0.1085
 8585W        W25059  12.325  13.855  13.964 -0.1146 -0.1468  0.0684
 8586W        W25060   0.409  15.526   2.387 -0.2609 -0.0757 -0.2149
 8587W        W25061   6.491  17.512   1.280 -0.4319  0.1895  0.3766
 8588W        W25062   5.887   4.042  11.240  0.0099 -0.1910  0.2379
 8589W        W25063   0.201   1.865   2.198 -0.3055  0.2207  0.0950
 8590W        W25064  17.483  12.602  12.244 -0.1015 -0.0265 -0.1278
 8591W        W25065   2.456   1.821  14.839 -0.0855  0.0933  0.0008
 8592W        W25066   9.058   7.164   3.871  0.0502  0.0242 -0.2459
 8593W        W25067   3.754  15.434  11.902 -0.2478  0.1497 -0.0126
 8594W        W25068   0.135   7.672  14.305 -0.0351  0.1470  0.0938
 8595W        W25069   3.927   2.495  11.740  0.2411 -0.2127  0.0105
 8596W        W25070   0.009  18.478  10.895 -0.0887  0.2397  0.0395
 8597W        W25071   9.504   9.299   2.719 -0.0500  0.0134  0.0915
 8598W        W25072   0.422   8.789   4.044 -0.1011 -0.0978  0.0828
 8599W        W25073  18.903   7.858  11.822 -0.1596 -0.0337 -0.1147
 8600W        W25074   6.757   9.563   3.109 -0.0610  0.0256  0.0297
 8601W        W25075  19.268   5.882   2.076 -0.2908 -0.0945  0.1510
 8602W        W25076   2.620  11.297   9.725  0.0772  0.5301 -0.0676
 8603W        W25077   8.395   1.662  10.448  0.2873  0.0915 -0.1553
 8604W        W25078   3.138  14.477  12.673  0.1583  0.3169  0.1038
 8605W        W25079   2.156  17.667  11.957  0.0266  0.2393 -0.0470
 8606W        W25080   9.862   7.508  12.712 -0.1857 -0.1943 -0.0813
 8607W        W25081   6.184  14.349  11.339 -0.0422 -0.0926 -0.0685
 8608W        W25082   3.256  15.690   0.130 -0.1533 -0.2002 -0.2638
 8609W        W25083  10.896   7.816  14.758  0.0894  0.0183  0.1041
 8610W        W25084  14.002   6.160   5.497  0.0360 -0.3949 -0.0719
 8611W        W25085   2.496   7.133   3.359  0.3141 -0.0248  0.0716
 8612W        W25086  11.839   8.037   0.658 -0.0039  0.0219  0.3864
 8613W        W25087   0.254   2.861  14.850  0.0368 -0.2190 -0.2871
 8614W        W25088  18.743  10.558   2.718 -0.2176 -0.0224 -0.1011
 8615W        W25089   4.541  17.379   2.985  0.0925  0.0659  0.1612
 8616W        W25090   2.898  15.590  11.021  0.0923  0.2801  0.2082
 8617W        W25091   8.544  17.917  11.935  0.1334 -0.4077  0.0489
 8618W        W25092  17.793   5.692   2.927  0.0429 -0.0206  0.0438
 8619W        W25093  19.075  14.559   2.799  0.0092  0.0883 -0.0672
 8620W        W25094   6.602  14.437   1.441  0.1125  0.1332 -0.1892
 8621W        W25095  18.000   0.695  12.259 -0.4606 -0.0140  0.0448
 8622W        W25096   8.809   6.133   9.709  0.2371 -0.0633  0.1026
 8623W        W25097   0.588  19.311  12.889 -0.0212  0.2607  0.0115
 8624W        W25098   7.104   2.461  10.962  0.2196  0.1875 -0.0616
 8625W        W25099  10.583  12.162   4.011  0.1560  0.0723 -0.0305
 8626W        W25100   0.725   6.638   2.287 -0.3421  0.5274 -0.0096
 8627W        W25101  13.914   4.385   4.888 -0.3302  0.0328 -0.1401
 8628W        W25102   3.471   1.276  12.505  0.1716 -0.0278 -0.1769
 8629W        W25103  17.425  13.275  12.804 -0.2764 -0.2777  0.0619
 8630W        W25104   4.818   2.946  10.626 -0.1339  0.2418  0.2178
 8631W        W25105  15.734   9.651  14.167  0.2394 -0.1108  0.1449
 8632W        W25106  12.940   8.581  11.466  0.0444  0.2155  0.0495
 8633W        W25107   5.173   4.819  11.786 -0.2354  0.1431  0.0648
 8634W        W25108  18.892   8.961   3.091  0.2256 -0.0103  0.1028
 8635W        W25109  10.910  19.011  10.874  0.1165 -0.1647 -0.1069
 8636W        W25110  15.834  13.913  10.940  0.2104 -0.2956 -0.0914
 8637W        W25111   9.189  19.286  12.945  0.0630 -0.2682  0.1516
 8638W        W25112  15.235  15.160  11.779  0.0471 -0.0283 -0.0476
 8639W        W25113   5.237  11.778  11.573  0.0761 -0.3004  0.0854
 8640W        W25114   4.843   5.466   1.238  0.0690  0.0153 -0.1003
 8641W        W25115   1.727  12.991  12.892 -0.2509  0.0798 -0.1735
 8642W        W25116  16.599   7.443   4.318  0.4635  0.0943 -0.2954
 8643W        W25117   9.138   8.711  14.228 -0.0398 -0.2069  0.0410
 8644W        W25118   8.377  13.194   2.715 -0.0018 -0.0729 -0.0064
 8645W        W25119  13.294   4.933   2.911  0.0344 -0.2032  0.1981
 8646W        W25120  11.307  10.849   2.180 -0.3307 -0.2033  0.1565
 8647W        W25121   5.436  15.200  14.221  0.1075  0.3288  0.0627
 8648W        W25122  14.943   3.831   3.978  0.1036 -0.3042 -0.3666
 8649W        W25123   6.828  12.894  14.883 -0.1926  0.0019 -0.1526
 8650W        W25124  11.295  13.842   5.328 -0.1321  0.1739  0.1161
 8651W        W25125   7.192   7.884   4.075  0.1221  0.0922 -0.6450
 8652W        W25126   6.959  17.081  14.150  0.0143 -0.0014 -0.1103
 8653W        W25127   4.404   6.877  11.171  0.0471  0.1580 -0.1951
 8654W        W25128   1.750   4.807  14.483 -0.4782 -0.0728  0.0039
 8655W        W25129  10.004  18.426   3.894  0.0203  0.4315  0.0949
 8656W        W25130  10.645  16.686   1.821  0.1300  0.2665  0.0133
 8657W        W25131   7.943  19.064   2.224 -0.0703 -0.1504  0.2195
 8658W        W25132   0.909   5.186   1.032  0.4501 -0.0704  0.1014
 8659W        W25133   3.780   2.141  11.397  0.0937  0.2011  0.1013
 8660W        W25134   1.406   6.236   3.111  0.2074  0.1995 -0.1734
 8661W        W25135   8.539   2.055   3.550 -0.0362  0.2877  0.1017
 8662W        W25136   6.605   5.294  10.216 -0.0351 -0.1891  0.0421
 8663W        W25137  12.733   7.064  13.499  0.1031  0.0029  0.0265
 8664W        W25138   5.561   7.842   3.786  0.1217 -0.0630 -0.2653
 8665W        W25139   0.906   2.092  11.611  0.1381  0.1259  0.0249
 8666W        W25140  13.850  14.733  13.218 -0.1574 -0.0423  0.2180
 8667W        W25141   6.054  14.727   3.134 -0.0810 -0.0071  0.0956
 8668W        W25142  11.647  12.065   3.903 -0.0945 -0.0872 -0.0251
 8669W        W25143  17.682   4.101  12.693 -0.1236  0.0108 -0.1326
 8670W        W25144   4.244   9.119  12.112 -0.1461  0.0468 -0.1703
 8671W        W25145  13.018   7.157   0.286  0.3410  0.0936 -0.1268
 8672W        W25146  13.020  18.548   3.556  0.3042 -0.1162  0.1388
 8673W        W25147  15.403  12.549  11.848 -0.0661 -0.2502  0.0004
 8674W        W25148   2.149   8.873   5.093  0.3564 -0.0388  0.0227
 8675W        W25149  18.227  18.442  13.515 -0.0520  0.0388  0.2496
 8676W        W25150  13.276   0.182   4.483 -0.0105 -0.1382  0.0778
 8677W        W25151   9.280  16.530  10.454 -0.1040  0.0204 -0.4039
 8678W        W25152   6.846   3.421  13.558  0.0100  0.2870  0.3778
 8679W        W25153  18.564  18.300   2.139  0.0157  0.0580  0.0652
 8680W        W25154   1.635  17.683   3.059 -0.1072 -0.1399 -0.2347
 8681W        W25155   2.106   3.568  10.868  0.0373  0.1985 -0.2776
 8682W        W25156   8.455  15.648  12.444  0.0336 -0.2812  0.1295
 8683W        W25157  15.843   4.064   2.938  0.0622 -0.2119 -0.3868
 8684W        W25158  16.207   8.395   2.357  0.0765 -0.2864 -0.0311
 8685W        W25159   6.107   4.630   2.753  0.2141  0.1630  0.1117
 8686W        W25160  16.716   5.476   3.845 -0.1362 -0.1783  0.3252
 8687W        W25161   9.931  18.134  13.645  0.3435  0.0642  0.6132
 8688W        W25162   5.822   5.434   1.399 -0.2153  0.1305 -0.1373
 8689W        W25163  15.903  17.020   4.392  0.4438  0.1714 -0.1467
 8690W        W25164  13.147   7.957   1.320 -0.2083 -0.1500 -0.1739
 8691W        W25165   7.447   6.475   0.307 -0.0670  0.1617  0.0019
 8692W        W25166   6.828   2.188  14.234 -0.4128 -0.2789  0.0247
 8693W        W25167   7.952  14.812  10.002 -0.1766  0.5399  0.1439
 8694W        W25168  12.350  16.759   9.641  0.2604  0.1249 -0.0703
 8695W        W25169  15.486   1.945   4.670  0.1188 -0.2080  0.3025
 8696W        W25170  15.554   9.262  13.142  0.1052  0.1271  0.2667
 8697W        W25171   6.558   1.228  11.207 -0.3293 -0.0057 -0.0909
 8698W        W25172   2.673   1.182   5.018  0.2873 -0.0213 -0.1984
 8699W        W25173   7.840  14.062   1.113  0.2068  0.0370  0.0685
 8700W        W25174   3.437   0.125   0.783 -0.0328 -0.0057 -0.0695
 8701W        W25175   4.704  17.100   3.895  0.2209 -0.0635  0.1461
 8702W        W25176  12.228   4.023  12.243  0.0534 -0.0003 -0.0236
 8703W        W25177  15.146   1.334  10.594 -0.0409  0.1719 -0.3721
 8704W        W25178  17.320   5.375   0.997  0.0517  0.0747 -0.0113
 8705W        W25179  17.109   2.729   2.251  0.0217 -0.0317 -0.3679
 8706W        W25180  12.738   5.773   9.840 -0.0613 -0.0247  0.1638
 8707W        W25181   1.041   7.181  10.537 -0.4248 -0.0678  0.1469
 8708W        W25182   9.905  16.853   2.295  0.3205  0.0817  0.4370
 8709W        W25183  18.285  10.332   1.946  0.1421  0.2906 -0.2810
 8710W        W25184   2.983   7.183  12.609 -0.2061 -0.4701  0.2025
 8711W        W25185   9.012  19.013  10.968  0.0123 -0.2394 -0.4069
 8712W        W25186   2.780   3.502   0.773 -0.1568  0.4091  0.1101
 8713W        W25187  15.799   7.806   4.597 -0.0082 -0.0941  0.2272
 8714W        W25188   1.062  18.796   1.116  0.3035  0.0306 -0.0376
 8715W        W25189   9.371  16.569   0.526 -0.1718  0.0936 -0.1622
 8716W        W25190  10.691  10.159  14.764  0.0238 -0.0817  0.1368
 8717W        W25191  11.997  10.348   4.353 -0.0136 -0.6529  0.1571
 8718W        W25192  16.367   8.407   0.710 -0.6541 -0.0834  0.1920
 8719W        W25193  13.879   0.406   3.901 -0.2097 -0.0936 -0.0965
 8720W        W25194  17.745   1.527  12.189 -0.1482 -0.0071  0.0466
 8721W        W25195  17.128   7.050   3.890 -0.0133  0.2258  0.4008
 8722W        W25196  15.592   5.763  10.039  0.2624  0.0556  0.0452
 8723W        W25197   5.700  11.407   0.728  0.0122 -0.1491 -0.1931
 8724W        W25198   7.525  18.583  10.962 -0.0775 -0.3634 -0.0646
 8725W        W25199  15.239   8.806   5.724 -0.4209 -0.2795  0.3319
 8726W        W25200   9.081   1.745   1.654 -0.0693 -0.1247 -0.1608
 8727W        W25201   5.018   7.112  13.717 -0.0566  0.0459 -0.0063
 8728W        W25202  14.009   7.602  12.677  0.0218  0.1256 -0.2103
 8729W        W25203   7.786  13.077  14.122 -0.1101  0.1589 -0.0270
 8730W        W25204  17.118   5.069   1.769  0.2621 -0.1994 -0.2369
 8731W        W25205  15.932   5.285  12.730 -0.0237  0.0065 -0.2970
 8732W        W25206   9.255   9.762   0.880 -0.0373  0.0237 -0.0286
 8733W        W25207  11.502   9.350   1.843  0.0841 -0.0516  0.1372
 8734W        W25208  15.404  11.150  13.444  0.1235  0.0649 -0.4935
 8735W        W25209  10.621  15.691   0.052 -0.1306  0.0233 -0.1002
 8736W        W25210  18.967  16.766   1.399  0.1063  0.3307 -0.1954
 8737W        W25211  17.785  15.999   9.798  0.0601 -0.0074  0.1677
 8738W        W25212   9.873  16.665  14.308 -0.1149 -0.1209  0.3282
 8739W        W25213   3.083   1.226  11.076  0.1857 -0.2529 -0.0238
 8740W        W25214   4.894   1.095   0.907 -0.0693 -0.1764  0.1009
 8741W        W25215   4.634   5.641  10.243 -0.2806 -0.2215  0.3793
 8742W        W25216   6.787   7.706   3.198  0.2522 -0.1731  0.4033
 8743W        W25217  17.177   0.068  10.939  0.1526  0.2572 -0.0746
 8744W        W25218   2.469   9.190   0.949  0.0318 -0.1780  0.3171
 8745W        W25219  14.601  18.250  14.514  0.1080 -0.0855  0.2331
 8746W        W25220   4.874   4.699   5.297  0.4246  0.2097 -0.2424
 8747W        W25221   7.774  13.000   1.921 -0.1315  0.0638 -0.0922
 8748W        W25222  14.424   2.965  11.411  0.1837  0.0607  0.1926
 8749W        W25223  15.496   1.461  11.973  0.3277 -0.2328  0.0147
 8750W        W25224   1.688   7.910   0.107 -0.1834 -0.1111  0.0154
 8751W        W25225  17.133  18.805  12.157 -0.1733 -0.1964  0.2191
 8752W        W25226  14.045   4.599   4.024 -0.0095  0.0275  0.1659
 8753W        W25227  14.408  11.922  13.340 -0.2493  0.2225 -0.1912
 8754W        W25228  18.636  10.754  13.756  0.1382  0.1327  0.0318
 8755W        W25229   8.377  16.039  14.043 -0.2399 -0.2164  0.0927
 8756W        W25230   6.305   8.599   1.294 -0.0229  0.0313 -0.2011
 8757W        W25231   2.892  10.497   0.788 -0.2093  0.2685  0.3651
 8758W        W25232   9.155   3.723  10.354 -0.0461  0.0363  0.0112
 8759W        W25233   7.363  12.156  13.060 -0.2520 -0.2736 -0.2647
 8760W        W25234   4.509  13.906   5.058  0.1302 -0.3012  0.1901
 8761W        W25235  11.522  10.772  10.366 -0.0522  0.2564  0.0391
 8762W        W25236  14.990   9.374  10.729  0.1148 -0.3359  0.1699
 8763W        W25237  13.945   9.505  10.406 -0.1319 -0.1717 -0.3566
 8764W        W25238   2.270   2.799   1.457 -0.3277  0.0079 -0.1425
 8765W        W25239  14.700  17.617   2.615  0.2238 -0.0207 -0.2044
 8766W        W25240   5.496  12.542   3.691  0.1083 -0.1669  0.2247
 8767W        W25241   6.224  19.121  12.265 -0.0232 -0.0542  0.4570
 8768W        W25242  16.700  17.309   2.903  0.1621 -0.3733 -0.0484
 8769W        W25243   4.261  15.713  14.664 -0.2903  0.1831 -0.0369
 8770W        W25244  10.588  17.641   4.412 -0.2321 -0.1466 -0.2705
 8771W        W25245   3.244  18.735   0.556  0.1756  0.1365 -0.0461
 8772W        W25246  17.299  14.628   3.208 -0.0020  0.0163 -0.0484
 8773W        W25247   1.600  14.860  12.378 -0.2208  0.2925 -0.0894
 8774W        W25248  15.130  15.417   3.295  0.0111  0.1381  0.0671
 8775W        W25249  14.732   3.988  13.744  0.3468 -0.2263  0.3237
 8776W        W25250   6.768  18.506  11.048  0.0813  0.1357  0.1268
 8777W        W25251   0.186   3.222   4.760 -0.3186  0.0075  0.1540
 8778W        W25252   1.741  11.362  13.228  0.4443  0.0600 -0.0035
 8779W        W25253  14.202   7.369  13.055  0.2297  0.2311 -0.1724
 8780W        W25254   3.202  14.282   2.307  0.0357 -0.2469 -0.3837
 8781W        W25255   5.559   1.169   4.469  0.1245  0.2267 -0.0553
 8782W        W25256  16.416   8.740  12.946  0.0748 -0.2797 -0.3825
 8783W        W25257   9.788  15.203   2.745  0.5359 -0.3263 -0.0901
 8784W        W25258   9.442   9.723  12.055 -0.3372  0.2290 -0.0436
 8785W        W25259  14.551   4.213  11.672  0.0241 -0.0504  0.0360
 8786W        W25260  12.037   9.990   4.749 -0.3262  0.1308 -0.0500
 8787W        W25261  15.874  12.289   1.706  0.1096 -0.1786  0.1258
 8788W        W25262   1.978  16.650   2.852  0.0325 -0.0040  0.1705
 8789W        W25263  12.269   4.461   9.557  0.0849  0.3096  0.4632
 8790W        W25264   9.871   5.691  11.117 -0.2869  0.0543 -0.1796
 8791W        W25265  14.144  10.648  13.659  0.2225  0.1381 -0.2611
 8792W        W25266  15.969  18.679  14.687  0.2813 -0.0207  0.0089
 8793W        W25267   1.956   8.777  11.627 -0.3070 -0.1799  0.0666
 8794W        W25268  10.577   3.814  13.290  0.2744 -0.3187  0.0125
 8795W        W25269  15.463   0.091  12.638 -0.1840 -0.0816  0.2149
 8796W        W25270   0.159   1.637  10.896 -0.0279 -0.0201 -0.0814
 8797W        W25271  18.195   1.111   0.335  0.0991  0.3025 -0.1275
 8798W        W25272  10.241   2.593   3.939  0.0842  0.0616  0.0092
 8799W        W25273   5.660   9.054  10.345 -0.2371 -0.0980  0.1731
 8800W        W25274  12.915   1.018   1.469  0.2678 -0.1365 -0.0233
 8801W        W25275  19.230   1.191   1.466  0.0332 -0.2690  0.2149
 8802W        W25276   6.463  18.277  11.524  0.1233  0.0673  0.1944
 8803W        W25277  17.273  11.667  11.836  0.2115  0.3079 -0.0468
 8804W        W25278   0.150  12.379  14.681  0.0009 -0.1350  0.2621
 8805W        W25279  13.344   4.838  13.357 -0.2127  0.1532 -0.0919
 8806W        W25280   4.755  10.134  12.825 -0.0900 -0.1112 -0.3044
 8807W        W25281  12.136  16.930   1.287  0.0554 -0.1328  0.0382
 8808W        W25282  16.618   2.831  12.591  0.1090  0.0740  0.0454
 8809W        W25283  13.057   3.088   3.983  0.1472  0.3283  0.1405
 8810W        W25284  14.206   0.104   1.936  0.1749 -0.5369  0.0537
 8811W        W25285  19.366   2.581  13.381  0.2349 -0.0819 -0.2048
 8812W        W25286  11.586   8.324  11.377  0.1437  0.1548  0.3440
 8813W        W25287   2.542  17.406   3.206 -0.1436  0.0157 -0.1286
 8814W        W25288  11.762  17.737   5.153 -0.0190 -0.0941 -0.3196
 8815W        W25289  10.825   8.441   3.164 -0.1300  0.3469 -0.0339
 8816W        W25290  10.388   7.149  14.474  0.3628 -0.0117  0.3379
 8817W        W25291  12.660  14.183  11.146 -0.1633 -0.0046  0.4328
 8818W        W25292   6.855  11.457   0.242  0.0097  0.2834  0.1367
 8819W        W25293  19.034   7.184   3.586 -0.1169  0.0860  0.2721
 8820W        W25294   5.145   4.683  13.032 -0.0390  0.1229 -0.1417
 8821W        W25295  13.376  10.956  13.633  0.1477  0.3537 -0.3640
 8822W        W25296   7.198  13.444   3.826 -0.0927  0.0524  0.4147
 8823W        W25297  16.774   6.371   2.190 -0.1083  0.1920 -0.1280
 8824W        W25298   6.580   1.250   2.813 -0.0156 -0.0957  0.0923
 8825W        W25299   4.092  16.687  13.191  0.4053  0.3002 -0.2607
 8826W        W25300   1.078   0.686  13.412  0.0161 -0.1299  0.1518
 8827W        W25301   4.694  10.847   1.649  0.2677 -0.0484  0.2872
 8828W        W25302  11.649  10.307   1.718  0.0303  0.0238  0.0552
 8829W        W25303  12.681   2.760   4.331 -0.4340  0.0469  0.2791
 8830W        W25304   1.381   4.476  14.183  0.1435 -0.0110 -0.1826
 8831W        W25305   8.199   3.821  11.674  0.0163  0.0579  0.0167
 8832W        W25306   4.134  15.832   4.543 -0.2785 -0.2095 -0.0847
 8833W        W25307   1.390  12.385  11.173  0.5523 -0.0184 -0.0379
 8834W        W25308   4.327   3.258  10.100 -0.2711 -0.1840  0.1964
 8835W        W25309   0.446  14.263   3.519 -0.1346  0.1200 -0.0089
 8836W        W25310   0.304   1.306  12.151 -0.2141 -0.2623  0.0493
 8837W        W25311   1.737   8.879  14.495 -0.2246  0.1791  0.1056
 8838W        W25312   5.202   5.815   4.404  0.0624  0.0012  0.2926
 8839W        W25313   8.372  16.481  11.263 -0.1168  0.4000 -0.0214
 8840W        W25314   8.263  11.828   3.502 -0.0273  0.0354 -0.0916
 8841W        W25315   9.426  17.875  11.575 -0.2251 -0.0108 -0.4118
 8842W        W25316  15.566   4.803  10.180 -0.0714  0.2661 -0.0995
 8843W        W25317  13.810  16.159  11.443 -0.2851 -0.0899 -0.1456
 8844W        W25318   2.312  10.581   3.527  0.2347  0.0850  0.0562
 8845W        W25319  11.942   1.342   3.558  0.0869 -0.0183  0.0505
 8846W        W25320   2.637   6.017  10.876 -0.3023  0.3809  0.0968
 8847W        W25321  10.399   4.668   0.615  0.0469 -0.0051 -0.0545
 8848W        W25322  14.218   9.143  10.628  0.0548  0.1708  0.1769
 8849W        W25323   5.243   9.608   1.633 -0.2029  0.1288  0.0115
 8850W        W25324  17.717  10.638  11.748 -0.0479 -0.1074 -0.4052
 8851W        W25325  18.815  12.688   0.284  0.0814 -0.1813 -0.1905
 8852W        W25326  11.519   6.013   0.552  0.1944 -0.0261 -0.1135
 8853W        W25327   6.639   2.154   9.966  0.3178  0.3507 -0.0572
 8854W        W25328  10.734  15.903   1.726  0.1014  0.4102  0.1932
 8855W        W25329   8.222   2.487   4.752 -0.1116 -0.1795 -0.3019
 8856W        W25330  14.812  15.407   4.610  0.0317 -0.1083 -0.0978
 8857W        W25331   6.892   2.439  10.333  0.1889  0.0197  0.2672
 8858W        W25332   8.584  11.392   3.584 -0.1270  0.2544  0.1573
 8859W        W25333  10.822  18.072  11.465 -0.0222  0.2318 -0.1117
 8860W        W25334   1.219  17.441  11.176 -0.0725  0.2837  0.2455
 8861W        W25335   6.875  19.149   1.058  0.0012  0.2805  0.1245
 8862W        W25336   5.319   8.184  12.639  0.1662 -0.2730 -0.2539
 8863W        W25337  11.305  15.042  12.965  0.1876 -0.0614  0.1876
 8864W        W25338   7.191   2.465  13.363 -0.1435 -0.0438 -0.0165
 8865W        W25339   3.956  14.262   3.532  0.4936 -0.0901 -0.2862
 8866W        W25340  16.904  18.826  10.852  0.0688 -0.1500 -0.0789
 8867W        W25341   0.869  14.662  14.482 -0.2019 -0.2372 -0.0835
 8868W        W25342   6.358  10.588   4.482 -0.2217 -0.0176  0.2592
 8869W        W25343   5.435   9.458  10.066  0.2939 -0.3183  0.0620
 8870W        W25344  13.883   4.340  12.080  0.0219 -0.0319 -0.0001
 8871W        W25345  15.507   3.003   3.942 -0.2070  0.2412 -0.0073
 8872W        W25346   0.806   8.019  12.146 -0.2260  0.1493  0.1582
 8873W        W25347   7.359   0.168   3.127  0.0215  0.1126 -0.1609
 8874W        W25348   9.300   5.122  12.206 -0.2272  0.2393  0.1941
 8875W        W25349  10.087   7.850   2.025 -0.0283 -0.2129  0.1481
 8876W        W25350   5.044  13.111  12.164 -0.3568 -0.0396  0.2623
 8877W        W25351  11.445  10.281  12.188  0.0008 -0.3041  0.1948
 8878W        W25352  15.083  12.594  13.946 -0.3077 -0.1450 -0.0324
 8879W        W25353   6.888   0.051   3.125  0.1269 -0.1284  0.3525
 8880W        W25354   4.263   8.797   0.661 -0.4116 -0.0786 -0.0356
 8881W        W25355  19.351   9.376  14.045  0.1531 -0.1417  0.3846
 8882W        W25356   3.244   9.725  11.060 -0.1066  0.1194  0.0312
 8883W        W25357  17.171  16.807  14.446  0.2640 -0.0001 -0.0664
 8884W        W25358  18.448  12.727  14.064  0.1450  0.1065 -0.1065
 8885W        W25359  17.197  10.057   2.562 -0.0582 -0.1555 -0.3180
 8886W        W25360   9.629  16.436  13.906 -0.0905  0.0706 -0.0872
 8887W        W25361   9.775   7.824  10.290 -0.2377 -0.2466 -0.0703
 8888W        W25362  15.515  18.340   2.529  0.0357  0.0196 -0.3494
 8889W        W25363  10.789  13.273   3.591  0.0942 -0.0576 -0.1825
 8890W        W25364  19.253   4.837  14.392  0.2971  0.0256  0.2031
 8891W        W25365  17.309   0.895  14.794  0.2149 -0.0150 -0.1291
 8892W        W25366  13.393  16.184   0.716  0.0175 -0.1232  0.1388
 8893W        W25367   9.409   1.445   9.518 -0.1240  0.1616 -0.1688
 8894W        W25368   3.789   0.055   3.573  0.2559  0.1223 -0.0963
 8895W        W25369   2.269   1.336   4.852  0.2465 -0.2342  0.2216
 8896W        W25370  16.572   0.014   1.450  0.0947  0.3470  0.0318
 8897W        W25371  10.941   5.227   0.653 -0.0049 -0.0198 -0.0906
 8898W        W25372   3.457  17.407  11.266 -0.3244  0.2513 -0.1106
 8899W        W25373   5.615  11.593  13.100 -0.1025  0.0289  0.0426
 8900W        W25374   0.593   7.946   4.323 -0.3331 -0.0196 -0.0631
 8901W        W25375   7.648  15.296  12.434 -0.3240 -0.2963  0.2900
 8902W        W25376   8.711   1.125  14.382 -0.2975 -0.4812  0.2179
 8903W        W25377  10.373  11.574   0.601 -0.0647  0.0394 -0.3769
 8904W        W25378  17.912   0.937   5.575 -0.1955  0.6302  0.3734
 8905W        W25379  18.982  14.440  14.693  0.0463 -0.1408  0.2155
 8906W        W25380  18.533  15.045  13.929  0.2509  0.1039  0.0195
 8907W        W25381   4.056   5.481  13.822  0.2132  0.3496  0.3170
 8908W        W25382  13.299   4.979  10.263  0.0647  0.1163  0.1271
 8909W        W25383   2.365   7.968  13.122 -0.1262 -0.1952 -0.2080
 8910W        W25384  15.876  14.178  13.906 -0.0107  0.2206 -0.1412
 8911W        W25385   0.841  11.803  10.841 -0.1133  0.1062 -0.1455
 8912W        W25386  16.738  16.455   2.113 -0.1439 -0.1203 -0.2169
 8913W        W25387  16.762  12.346  14.861 -0.1755  0.3901 -0.1724
 8914W        W25388  19.144   0.469  11.291  0.2050 -0.2102  0.1398
 8915W        W25389  11.932  14.765   0.656 -0.3636 -0.4192  0.0609
 8916W        W25390   2.580   6.387   0.719 -0.3564 -0.0935 -0.2469
 8917W        W25391  13.927  17.993   3.572  0.3738  0.0634  0.1219
 8918W        W25392   0.955  12.348  10.861 -0.4728 -0.0208 -0.1779
 8919W        W25393   8.952   9.370   1.098  0.2123 -0.0337 -0.1022
 8920W        W25394   7.309   0.398  12.825 -0.1701 -0.1999  0.1948
 8921W        W25395   9.844   7.226  13.153  0.1773 -0.1808 -0.0147
 8922W        W25396  11.811   6.626   3.877  0.0961 -0.1783  0.3104
 8923W        W25397  13.778  11.321   1.668 -0.1822 -0.1697 -0.1993
 8924W        W25398  11.445  11.174   1.831  0.0200  0.3931 -0.0388
 8925W        W25399  13.380  18.314  12.023 -0.2308  0.0930 -0.1906
 8926W        W25400  14.616  12.771   5.531  0.0608  0.0046 -0.2691
 8927W        W25401   5.806   3.952   4.076 -0.1569  0.0503 -0.0807
 8928W        W25402   0.416   4.185   4.806  0.1865  0.0042 -0.2166
 8929W        W25403   1.020   0.250  10.683  0.1405 -0.2556 -0.1244
 8930W        W25404   4.447   9.812   4.693  0.1699 -0.1126 -0.1128
 8931W        W25405  10.430   4.402  10.738 -0.1035 -0.1489 -0.1719
 8932W        W25406  13.106   7.621  12.489  0.1778  0.0883 -0.2491
 8933W        W25407   7.193  10.366   4.513 -0.0383  0.1228  0.3741
 8934W        W25408   5.614   8.092  10.858  0.0700  0.1276  0.1763
 8935W        W25409  10.186   7.138   3.583 -0.2818  0.2597  0.2291
 8936W        W25410   1.701  16.929  12.044  0.2152 -0.2240  0.0771
 8937W        W25411  15.824  17.732   2.956 -0.1177 -0.1935  0.0916
 8938W        W25412   6.514  11.092  13.367 -0.0568  0.1894  0.1929
 8939W        W25413   6.382   8.753  13.542  0.0536  0.1120 -0.2102
 8940W        W25414   5.238   7.755   1.139 -0.2405  0.0983  0.1250
 8941W        W25415   7.732   9.215  14.032 -0.1779  0.1941  0.2006
 8942W        W25416   5.065   9.718  10.611  0.1331 -0.0610  0.0107
 8943W        W25417   3.309   8.342   3.456  0.2094  0.2985  0.2245
 8944W        W25418  10.195  13.273  13.496 -0.1446 -0.1713  0.0518
 8945W        W25419   2.528  17.483  11.644  0.3252  0.1892 -0.1897
 8946W        W25420  13.865   8.318   1.940 -0.1257  0.1124 -0.0405
 8947W        W25421   3.573   7.454  14.057  0.0180  0.1571  0.0596
 8948W        W25422   1.206  15.826   0.070 -0.0188 -0.2335  0.0348
 8949W        W25423  14.524  13.894  12.974  0.1512  0.3218  0.1787
 8950W        W25424   7.586  12.672  13.321 -0.1306  0.1025  0.0754
 8951W        W25425   8.760   2.337  11.221 -0.0051  0.2678 -0.3752
 8952W        W25426   8.303   3.547  10.226  0.1403  0.0499  0.1499
 8953W        W25427  13.076  15.348  13.526 -0.0218 -0.0849  0.4231
 8954W        W25428  15.591   8.257   4.499 -0.0677 -0.0679 -0.2024
 8955W        W25429  16.503  10.293  14.842 -0.1954 -0.3094  0.0606
 8956W        W25430   8.372   9.018   4.323  0.1217 -0.0390 -0.3573
 8957W        W25431  13.954  11.600   2.746  0.3256 -0.0967 -0.0828
 8958W        W25432   6.143  13.550  13.921  0.0178 -0.1832  0.0955
 8959W        W25433  18.140  16.969   0.423  0.1668 -0.2489  0.0832
 8960W        W25434  13.958   2.905  11.669 -0.0344  0.0268  0.2099
 8961W        W25435  11.443  15.915  12.847  0.2413 -0.3424 -0.0447
 8962W        W25436   2.987  17.371  11.564  0.1718  0.0674 -0.2329
 8963W        W25437   9.723   3.895  12.304 -0.0384 -0.2948  0.0094
 8964W        W25438  12.071   5.112  10.872  0.3832  0.0844  0.0709
 8965W        W25439  16.118   1.370   1.937  0.1991  0.1480 -0.4357
 8966W        W25440  16.717   2.565   4.988  0.0061 -0.1310 -0.0091
 8967W        W25441  11.127   8.244   1.099 -0.1542 -0.1094 -0.0328
 8968W        W25442  17.668  17.072   0.589 -0.1422  0.3402 -0.0149
 8969W        W25443  19.299   6.510  12.267 -0.2425 -0.0527 -0.1316
 8970W        W25444   5.109  12.938  13.516 -0.2683  0.0876  0.0957
 8971W        W25445  10.564   8.043  14.315  0.0021 -0.1920 -0.1013
 8972W        W25446  11.063  15.724   5.011 -0.1693 -0.1980  0.0772
 8973W        W25447   8.758   1.324   1.726 -0.3064 -0.0037 -0.0788
 8974W        W25448  11.698  12.292   4.707 -0.0469  0.1056  0.0205
 8975W        W25449  17.663  13.385   1.174  0.3238  0.0159 -0.3047
 8976W        W25450  13.051   8.095   3.162  0.0275 -0.1575 -0.2565
 8977W        W25451  14.740   2.135  10.385 -0.0785  0.2831 -0.1850
 8978W        W25452  13.694   9.794   3.799 -0.3460  0.3177 -0.0042
 8979W        W25453  12.331   3.330   0.543 -0.2246 -0.0825 -0.1722
 8980W        W25454   1.001   0.964   1.825  0.0104 -0.1866 -0.0414
 8981W        W25455  17.725  15.267   4.811 -0.2644  0.1179 -0.0634
 8982W        W25456   6.512  18.229   5.113  0.3334  0.1772  0.0636
 8983W        W25457   4.232   9.934   3.628 -0.0823  0.1172  0.1147
 8984W        W25458  17.054  16.727   4.409  0.0017 -0.0209  0.2379
 8985W        W25459   4.917   5.087  12.846 -0.3139  0.0130  0.0726
 8986W        W25460   1.727   6.058   9.593 -0.2194  0.1014 -0.4767
 8987W        W25461   1.369   3.219   3.156  0.0629  0.1546  0.1559
 8988W        W25462  15.866   6.755   1.257 -0.1808 -0.0471  0.1426
 8989W        W25463   1.561   0.561  13.574  0.1991 -0.0547 -0.0805
 8990W        W25464  11.890  11.261   2.709  0.1417 -0.1034 -0.2985
 8991W        W25465   1.345   7.758   9.994  0.0374 -0.2513  0.2125
 8992W        W25466   0.285   9.219  12.075 -0.0099 -0.0789  0.3744
 8993W        W25467   9.071   9.937   1.564 -0.0165  0.4470  0.0075
 8994W        W25468   7.956   6.943  10.106 -0.3641  0.0049 -0.3383
 8995W        W25469   3.006  17.320   4.639 -0.0907 -0.1709  0.2039
 8996W        W25470  15.213  17.740  14.168  0.1574 -0.0862 -0.2422
 8997W        W25471   6.380   0.314  14.208  0.0401 -0.1551  0.2159
 8998W        W25472   0.670  11.522   4.693  0.1802  0.0043 -0.3004
 8999W        W25473   9.542   8.194   2.931 -0.0451 -0.3264 -0.3266
 9000W        W25474   8.056   7.365   9.413 -0.1701 -0.0090 -0.3144
 9001W        W25475   7.474  16.611   0.754  0.1122 -0.1134 -0.1431
 9002W        W25476  16.083   4.217  11.779 -0.0354 -0.4518  0.2083
 9003W        W25477  16.321   3.763  11.735  0.1064 -0.2149  0.0249
 9004W        W25478  16.878   2.282  14.495  0.0053  0.1476 -0.1700
 9005W        W25479   1.625  12.778   3.121 -0.0225  0.1862  0.0562
 9006W        W25480   1.292   9.861   2.591 -0.0898  0.2472 -0.2410
 9007W        W25481  14.732  15.179  11.537 -0.0069  0.1434  0.1137
 9008W        W25482   8.774   4.270  14.189 -0.2363  0.1333  0.0170
 9009W        W25483  10.726   6.475   3.956  0.0297 -0.0231  0.1418
 9010W        W25484  12.987  15.776   5.241 -0.1889  0.0001  0.0457
 9011W        W25485   2.752  17.002   4.041  0.2834  0.2488  0.0760
 9012W        W25486   3.189  15.835  13.836 -0.0203  0.0228  0.2935
 9013W        W25487   8.780  17.589   2.148 -0.1238  0.1811 -0.0761
 9014W        W25488   5.268  12.173   3.932 -0.1113 -0.1924 -0.0691
 9015W        W25489   1.665   5.807   1.660  0.0194 -0.0110  0.0239
 9016W        W25490   3.362  13.269   6.064 -0.2627  0.1846 -0.2229
 9017W        W25491  11.167  19.140   0.225 -0.1441 -0.0977  0.0906
 9018W        W25492  15.021   7.131  11.502 -0.0490  0.1315 -0.0680
 9019W        W25493  10.965  11.837   3.207  0.0466 -0.2817 -0.0097
 9020W        W25494  14.305  12.440  13.226 -0.1151 -0.1712  0.1888
 9021W        W25495   7.160   8.911  14.581  0.0596  0.0011 -0.0188
 9022W        W25496   8.289  13.231  11.755  0.1042  0.1649 -0.1837
 9023W        W25497  18.171   0.384   3.051  0.1540  0.3432  0.0852
 9024W        W25498   4.251   5.651  14.241 -0.2310  0.0990 -0.3175
 9025W        W25499   5.757   5.959   4.112  0.3698  0.0504 -0.0938
 9026W        W25500   5.741   5.862  11.141  0.0720  0.2281  0.4816
 9027W        W25501  13.658   2.942  12.810  0.1582  0.2619  0.3496
 9028W        W25502   2.376   2.388  12.751  0.0032 -0.1414 -0.2760
 9029W        W25503  13.469   4.119   1.970 -0.1734  0.0340  0.1580
 9030W        W25504  13.686  10.446  11.477  0.1376 -0.2462 -0.1793
 9031W        W25505   5.087   4.764   0.580  0.2418 -0.0493 -0.1579
 9032W        W25506   0.957   4.502   2.761 -0.0521  0.3343  0.1582
 9033W        W25507  15.821  15.186  11.078 -0.3254 -0.0097  0.0446
 9034W        W25508  17.490   1.807   3.037 -0.1746 -0.0070  0.1035
 9035W        W25509  10.960   2.478  12.496  0.2004  0.0318 -0.0154
 9036W        W25510   4.181   0.983  10.924  0.0307 -0.3862 -0.1925
 9037W        W25511  10.425   3.368   2.988 -0.3591  0.0681 -0.1076
 9038W        W25512  10.729   3.154   9.831 -0.1162 -0.1063  0.2126
 9039W        W25513  11.847  17.353   1.118  0.1015 -0.2105  0.1551
 9040W        W25514  19.323   0.907  12.936  0.3355 -0.1851 -0.2134
 9041W        W25515   0.766  12.168  13.548  0.3875 -0.1655  0.2617
 9042W        W25516   2.570   7.658  11.433  0.2195 -0.0143  0.0488
 9043W        W25517  11.726   3.412  13.356 -0.0811 -0.1468  0.0793
 9044W        W25518   5.637   1.081   1.175 -0.1036  0.0408 -0.1344
 9045W        W25519  18.480   0.276   5.398  0.1117  0.0978  0.1897
 9046W        W25520  13.077   8.960   0.631  0.2299 -0.1890  0.3345
 9047W        W25521  18.638   5.173  11.143 -0.1202  0.3227 -0.1290
 9048W        W25522   2.846   0.328  13.080  0.3442  0.2360  0.0990
 9049W        W25523   4.585   3.271   5.155 -0.0872 -0.1205  0.0554
 9050W        W25524  14.222  13.686  10.904 -0.1598 -0.2338 -0.1845
 9051W        W25525   6.211  18.815  14.457 -0.0519 -0.0116 -0.1758
 9052W        W25526  11.828  10.698  13.853 -0.1388 -0.1476  0.1684
 9053W        W25527   9.621  10.932   0.444  0.0647  0.0250 -0.1767
 9054W        W25528   7.028   8.024  13.358 -0.1252  0.0457 -0.1227
 9055W        W25529   4.598  12.942   4.565  0.0298 -0.1208  0.1947
 9056W        W25530   8.894   2.923   9.618  0.3230  0.1367  0.0330
 9057W        W25531   8.296   3.208  14.787  0.4692 -0.2965  0.1492
 9058W        W25532   6.210   1.313   4.545 -0.2381  0.5616 -0.3479
 9059W        W25533  11.401   3.773  11.824  0.0612 -0.2533 -0.1364
 9060W        W25534  11.949  16.859  10.349  0.1448 -0.3103  0.4036
 9061W        W25535  11.292  17.492   1.806  0.0809  0.1749 -0.0378
 9062W        W25536   2.049   0.225   1.577 -0.0510 -0.0779 -0.0897
 9063W        W25537   5.734   0.521   0.901 -0.2968  0.1697  0.2220
 9064W        W25538  15.512   9.548  10.900 -0.3020  0.1740  0.0564
 9065W        W25539  18.938   7.810   0.392 -0.2251  0.0601 -0.0048
 9066W        W25540  14.916  13.218   4.220  0.5549 -0.0352  0.1424
 9067W        W25541  13.799  13.335  11.710 -0.1497  0.1321  0.0661
 9068W        W25542   1.711   0.998   0.021 -0.1776  0.2109  0.0733
 9069W        W25543   9.014  12.392  11.393  0.0908  0.0126 -0.0891
 9070W        W25544   3.148  11.033   5.329 -0.0676  0.0416 -0.1629
 9071W        W25545  11.457   5.258   4.434  0.0133  0.1258  0.0267
 9072W        W25546   1.530  13.462   4.080 -0.0047  0.1527  0.2869
 9073W        W25547  11.979  18.002  13.525 -0.0690 -0.1340 -0.0561
 9074W        W25548  10.502   1.482  13.257 -0.0694  0.0075 -0.3100
 9075W        W25549   6.015   3.519   3.986 -0.0306  0.1923 -0.0648
 9076W        W25550   2.814   7.494   3.549 -0.4528  0.0751 -0.1970
 9077W        W25551  11.874  19.116  11.520  0.1493  0.1648  0.2528
 9078W        W25552   3.053  13.602  10.960  0.0537  0.1304  0.0282
 9079W        W25553   0.109  18.004  12.076  0.2351 -0.0106  0.3941
 9080W        W25554   6.835  10.443   0.428 -0.1234 -0.1039 -0.2627
 9081W        W25555  18.254   3.318   5.167  0.0314  0.0039  0.0211
 9082W        W25556   7.127  17.373   2.043  0.0311  0.1174  0.3984
 9083W        W25557  15.592  16.151  13.610  0.0245  0.0298 -0.2034
 9084W        W25558  18.918   3.334  11.507  0.1275  0.0347 -0.2813
 9085W        W25559   8.599   5.838   4.335  0.0968  0.1188 -0.1074
 9086W        W25560   9.288   7.355   3.108 -0.0122 -0.0581 -0.0064
 9087W        W25561  13.125  16.398   4.590 -0.1547  0.0369  0.3830
 9088W        W25562  12.537  11.636  10.933 -0.0075 -0.1669 -0.0429
 9089W        W25563  12.920   9.902   0.618 -0.1780 -0.2330  0.2887
 9090W        W25564  15.919   5.206   4.080  0.2865 -0.0977 -0.2117
 9091W        W25565   3.044  15.044   0.618 -0.0400  0.2070 -0.1325
 9092W        W25566  16.717  13.358   2.169  0.2146  0.1228 -0.1525
 9093W        W25567   3.155   5.718   0.637 -0.0619  0.0595 -0.0627
 9094W        W25568  17.388  18.350   0.792  0.2367 -0.2153  0.0251
 9095W        W25569   8.398  10.084  14.594 -0.1325 -0.4252  0.2100
 9096W        W25570   7.134  13.000  14.098 -0.2484 -0.0921  0.2679
 9097W        W25571  12.376  16.622  14.740 -0.0472 -0.0689 -0.0403
 9098W        W25572  14.288  11.626  12.076 -0.2529  0.0821 -0.2189
 9099W        W25573  13.405   0.545   3.722 -0.2731 -0.0587 -0.2958
 9100W        W25574  10.668  13.720   0.583  0.4371  0.1545 -0.1768
 9101W        W25575   0.721   1.030  11.828 -0.2738  0.0262 -0.0093
 9102W        W25576   7.685  18.979   0.883 -0.0358  0.0497  0.1042
 9103W        W25577  14.947   2.991   0.472  0.1575  0.0571  0.0594
 9104W        W25578  18.054   1.784  10.805 -0.1189 -0.0838 -0.2142
 9105W        W25579  16.467   3.434  10.863  0.0711 -0.2431  0.1049
 9106W        W25580  16.237  12.579   2.595 -0.4494  0.0189  0.2030
 9107W        W25581   7.837  15.197   3.067 -0.3180 -0.1274 -0.0776
 9108W        W25582   1.597   9.342   9.823 -0.2585  0.1047  0.0710
 9109W        W25583  14.474   1.554   1.899 -0.3111  0.1516  0.0194
 9110W        W25584  17.996   7.749  11.379  0.1238  0.2528 -0.1795
 9111W        W25585  15.691   2.270   1.859  0.1039 -0.1054  0.2385
 9112W        W25586   6.737   9.380  11.835  0.0443  0.1004  0.1729
 9113W        W25587  18.989   4.405  14.290  0.1143  0.1606  0.1491
 9114W        W25588  11.055   6.732  14.581  0.0182  0.0896 -0.0594
 9115W        W25589   9.802  14.367  12.670  0.3442 -0.1236 -0.1780
 9116W        W25590  14.951  11.252   3.613 -0.1896  0.1597 -0.3631
 9117W        W25591  18.588  14.515  13.342 -0.4537  0.0660  0.0312
 9118W        W25592   9.445  12.827  12.804 -0.0658  0.1805 -0.1292
 9119W        W25593  16.191   5.705   2.948  0.1065  0.1189 -0.1674
 9120W        W25594   0.327   7.797  12.388 -0.2453 -0.1273 -0.0989
 9121W        W25595   7.411  14.924  12.908  0.0623 -0.3989 -0.0596
 9122W        W25596  12.035  13.844  11.811  0.1321  0.2195  0.0137
 9123W        W25597  13.247  18.564  14.790  0.0243  0.0509 -0.0704
 9124W        W25598   5.521   2.697   0.192 -0.0109 -0.2222  0.0936
 9125W        W25599  15.794  15.992  12.754 -0.0892  0.1703  0.3484
 9126W        W25600  13.949  18.090  13.759 -0.0489 -0.0784 -0.0445
 9127W        W25601   5.238  10.324   0.905  0.1916  0.2068 -0.1644
 9128W        W25602   9.149  11.844  12.062 -0.0776  0.0664 -0.1144
 9129W        W25603   0.769   0.033   0.019  0.2717 -0.2144  0.0180
 9130W        W25604   6.001   1.633  12.808  0.2762  0.1906  0.0265
 9131W        W25605   7.602  14.127   1.971  0.0905 -0.3533  0.2625
 9132W        W25606   5.480   1.383   3.807 -0.0146 -0.0564  0.0878
 9133W        W25607   9.832   1.658  13.910  0.1234  0.2625  0.3329
 9134W        W25608  14.109   9.595   1.405  0.0617  0.2724 -0.0229
 9135W        W25609   1.883  16.261   1.867 -0.0975  0.1311 -0.0924
 9136W        W25610  16.581   9.343   5.441 -0.0450 -0.1423 -0.0179
 9137W        W25611   5.209   7.322  10.323 -0.1513  0.1178  0.0441
 9138W        W25612   4.676  10.753   2.183  0.2449  0.0880  0.1462
 9139W        W25613  14.300   2.043  14.094 -0.1985  0.1303 -0.1512
 9140W        W25614   8.410  15.590   3.362  0.0725 -0.0767 -0.3340
 9141W        W25615   9.374  16.882   3.523 -0.1008 -0.1086  0.0174
 9142W        W25616  15.329   7.255  11.900  0.1313 -0.0505  0.0411
 9143W        W25617  14.405  19.012   4.785 -0.3165 -0.0900  0.2970
 9144W        W25618   5.812   3.833   3.163 -0.0016 -0.1736 -0.1615
 9145W        W25619   3.182  15.771   5.850  0.0053  0.0782 -0.0924
 9146W        W25620   4.955  14.774  11.244  0.0472  0.3354  0.0457
 9147W        W25621   6.954   2.050   2.372 -0.1352 -0.2566  0.1663
 9148W        W25622   8.499   7.573  10.091 -0.2276 -0.0791  0.1265
 9149W        W25623   8.989  11.565  14.004 -0.5155 -0.1751  0.3117
 9150W        W25624  16.166   0.789  14.846  0.1560  0.1948  0.0666
 9151W        W25625  11.793   8.920  10.080 -0.0146 -0.0849  0.2610
 9152W        W25626  10.913  16.858   1.266  0.5076  0.2117  0.1246
 9153W        W25627   3.365   7.298  10.239 -0.3618 -0.2797 -0.0594
 9154W        W25628   7.410  15.561  14.122  0.2260  0.0680 -0.1584
 9155W        W25629   7.987  13.137  13.634  0.1636 -0.1316  0.0410
 9156W        W25630  18.795  13.939  11.193  0.0990 -0.2258  0.1192
 9157W        W25631  17.053  13.846   4.140  0.0814  0.0641 -0.1414
 9158W        W25632  13.307   4.871  14.872 -0.1243 -0.0424  0.3147
 9159W        W25633   9.543   5.516  10.680 -0.1915 -0.2049  0.0586
 9160W        W25634   1.199  13.307   3.731 -0.1151 -0.1463 -0.1370
 9161W        W25635   8.234   7.325  12.142 -0.4998  0.0920  0.0717
 9162W        W25636   5.842   1.813  14.537  0.0469  0.0244 -0.3612
 9163W        W25637  12.071   4.067   0.723  0.0580 -0.1291 -0.0944
 9164W        W25638  12.036   9.560   3.846 -0.1351 -0.0942 -0.0358
 9165W        W25639  18.868   3.037  12.918  0.2202  0.3029 -0.0563
 9166W        W25640  14.119  10.187  12.721  0.2196  0.1161 -0.1363
 9167W        W25641  14.430  10.010   5.583 -0.0893  0.0560 -0.1035
 9168W        W25642  14.196  12.620  14.017  0.1142 -0.2730  0.0214
 9169W        W25643   1.212   6.392   2.684 -0.2406 -0.1589 -0.2576
 9170W        W25644   0.110   2.220   0.665 -0.2328 -0.2996 -0.0495
 9171W        W25645  11.346   6.534   4.074 -0.0686  0.0037 -0.0054
 9172W        W25646  12.319   9.252  11.227 -0.2026  0.4617  0.0392
 9173W        W25647   1.791   0.508   2.234 -0.1834  0.1322 -0.0394
 9174W        W25648   5.046   6.370  10.687 -0.4010 -0.2368  0.2281
 9175W        W25649   9.878   6.475  10.686 -0.1218  0.1538  0.0790
 9176W        W25650   4.914   8.697   0.971 -0.1302 -0.0977 -0.0211
 9177W        W25651  13.653  14.024   2.485  0.2299  0.3019  0.4037
 9178W        W25652   3.495  10.363  11.147 -0.0724 -0.1606  0.1402
 9179W        W25653  19.199  17.778   0.132 -0.0820 -0.1217 -0.0517
 9180W        W25654   5.962  10.952  10.528  0.2177 -0.1555 -0.2979
 9181W        W25655   7.341   3.592  10.417 -0.1010 -0.0494 -0.4072
 9182W        W25656  11.361   0.260   4.077 -0.2229 -0.0045  0.0051
 9183W        W25657  11.276  16.318  14.274 -0.2599 -0.3421  0.1144
 9184W        W25658  19.178  17.266  13.379 -0.1050  0.3204 -0.0868
 9185W        W25659   1.994   2.733   1.877  0.0097  0.2210 -0.3581
 9186W        W25660   4.493  11.490  10.691 -0.0158  0.1194 -0.0828
 9187W        W25661  18.122  14.165   3.533  0.1118  0.2488 -0.0312
 9188W        W25662   9.652   4.643   3.514 -0.0742 -0.0262 -0.0685
 9189W        W25663  18.130   0.127  12.905 -0.1138  0.0764  0.2475
 9190W        W25664  17.235  14.601   0.235  0.1549  0.1247 -0.1842
 9191W        W25665  18.356   4.612   5.917 -0.0473 -0.1194 -0.0865
 9192W        W25666   9.217  17.366   3.398 -0.1752  0.1657  0.2332
 9193W        W25667  16.407   1.715   0.140 -0.1149  0.1379 -0.3197
 9194W        W25668   5.634   7.432  12.218  0.0192  0.1552 -0.2626
 9195W        W25669   0.331   5.152   2.888  0.0288  0.2818  0.1700
 9196W        W25670  18.867  18.801   3.750 -0.0586  0.4452 -0.1564
 9197W        W25671   4.773   9.194   2.986 -0.0096  0.2465  0.0897
 9198W        W25672  13.778   4.478  14.041 -0.0797 -0.2800  0.3130
 9199W        W25673   1.762  19.306  10.609  0.1120  0.1910 -0.1298
 9200W        W25674   8.423   2.352   3.918 -0.1392 -0.2548 -0.1924
 9201W        W25675   5.327   8.115  10.249  0.0672  0.1225  0.0918
 9202W        W25676  13.607   2.588   5.125 -0.2609 -0.1806 -0.1348
 9203W        W25677   2.885  17.423   2.046 -0.0469 -0.0007 -0.3980
 9204W        W25678  17.240   3.694  14.452 -0.0854 -0.1969  0.0344
 9205W        W25679  17.544   7.704   9.966 -0.0418  0.1346  0.5355
 9206W        W25680  11.985  13.114   0.299 -0.0309 -0.1312 -0.2427
 9207W        W25681   1.833  16.031  10.768 -0.1408  0.3222  0.1084
 9208W        W25682   1.107  17.336   0.382 -0.2102  0.1395  0.5393
 9209W        W25683   7.182   2.908  11.098  0.0559 -0.0023  0.1722
 9210W        W25684  13.154   5.051   0.401 -0.0106  0.2148 -0.0197
 9211W        W25685  12.371   3.918   9.456  0.0871 -0.3933  0.0525
 9212W        W25686   4.831  11.033   5.385 -0.1466  0.0112 -0.0126
 9213W        W25687   9.924   7.962   2.453  0.1557 -0.0561  0.0933
 9214W        W25688   2.209  12.174   2.227 -0.2418  0.1462 -0.2221
 9215W        W25689  12.993   0.071   1.616 -0.0439 -0.3445  0.0363
 9216W        W25690   3.436   0.993  10.481  0.1074  0.2309 -0.2075
 9217W        W25691  10.839  13.812   4.327 -0.1170 -0.3658 -0.2080
 9218W        W25692   7.950   7.641   4.570 -0.1343 -0.0044 -0.0043
 9219W        W25693  15.389  14.921  13.561 -0.2034 -0.0178 -0.0644
 9220W        W25694   0.322   0.837  12.613  0.1643  0.0162  0.1796
 9221W        W25695   9.261  16.115   4.667 -0.3664 -0.0118 -0.0118
 9222W        W25696  13.208  17.587  14.801 -0.0074  0.1224 -0.0737
 9223W        W25697   1.961   0.908   4.139  0.1579  0.1171 -0.2019
 9224W        W25698  16.356  18.996   4.097 -0.1708  0.0374  0.3663
 9225W        W25699   0.712  18.449   2.885 -0.2767  0.4675 -0.0318
 9226W        W25700  15.608  16.427  10.647  0.0494 -0.1474 -0.2164
 9227W        W25701  11.245   9.583   4.154  0.0552 -0.1551  0.2046
 9228W        W25702  19.049   6.951  12.251  0.2571 -0.1397  0.1631
 9229W        W25703  12.597   6.947   1.646  0.0683  0.0920  0.1322
 9230W        W25704   6.817  18.311  12.191 -0.0933 -0.0608  0.2656
 9231W        W25705   8.329  15.994  14.728  0.1043  0.3484 -0.0818
 9232W        W25706  18.932   5.616  10.929 -0.0593 -0.2590 -0.1386
 9233W        W25707   4.778  11.131  12.785  0.2876 -0.0324  0.2133
 9234W        W25708  10.017  15.627   1.295 -0.0278  0.2538 -0.4073
 9235W        W25709   9.939  14.636   0.644  0.0273  0.3342  0.1649
 9236W        W25710  10.222   2.347  12.976  0.0790 -0.3581  0.2375
 9237W        W25711   4.105  17.311   3.377 -0.1271  0.4026 -0.2000
 9238W        W25712   8.491   0.716  14.102 -0.1538  0.1428  0.0808
 9239W        W25713  18.125   0.186  10.804  0.0843 -0.0107 -0.0293
 9240W        W25714   1.472  15.625  10.698 -0.1459 -0.4358 -0.0136
 9241W        W25715   5.072  13.595   3.187  0.1990 -0.0357  0.1524
 9242W        W25716  12.394  17.708  14.668  0.0147 -0.3409 -0.0413
 9243W        W25717  18.549  10.672   4.213 -0.0568 -0.0441 -0.2421
 9244W        W25718  10.128  13.343   4.607 -0.0402  0.1511 -0.0041
 9245W        W25719  12.775   1.508  11.314 -0.2130  0.1073 -0.3751
 9246W        W25720  12.579   8.465   0.882 -0.0742  0.1117  0.2022
 9247W        W25721  11.002   3.601   4.624  0.1418 -0.3934 -0.2085
 9248W        W25722  15.742  10.964   3.111  0.1609 -0.0528 -0.0199
 9249W        W25723  15.891   0.232  12.006  0.1071  0.1387  0.1857
 9250W        W25724   7.774  15.684   5.097 -0.2791  0.0563 -0.1765
 9251W        W25725  18.703   1.481  12.027 -0.1900  0.0885  0.1474
 9252W        W25726   7.422   1.272   4.099  0.1149  0.2820  0.1663
 9253W        W25727   3.981   1.304  12.370  0.2026  0.0548  0.0214
 9254W        W25728   1.080   7.710   4.342  0.1668  0.3523 -0.1587
 9255W        W25729   5.621   3.784  12.727  0.1867  0.0169 -0.1529
 9256W        W25730  15.767   5.661   3.953  0.1452 -0.2084 -0.1031
 9257W        W25731   6.536  15.541   4.069 -0.1773 -0.3819 -0.0979
 9258W        W25732   1.792   8.188   3.208 -0.3120 -0.1397 -0.0311
 9259W        W25733   6.661  15.846  10.831  0.1992  0.1546 -0.1269
 9260W        W25734  11.219   8.759   9.215 -0.1009  0.3168  0.3109
 9261W        W25735   1.425   7.962  10.955 -0.1855  0.1017  0.0007
 9262W        W25736  19.327   0.504  12.574 -0.0205 -0.2750  0.1703
 9263W        W25737  14.420  16.321  14.482 -0.0144  0.2570  0.5385
 9264W        W25738  11.429  18.391   2.705 -0.0585 -0.0523 -0.2452
 9265W        W25739  10.301  18.805  11.573 -0.0800  0.3087 -0.3543
 9266W        W25740   0.327   7.353   1.071 -0.3483  0.0534 -0.3281
 9267W        W25741   1.146   0.037  14.200  0.1263  0.1782  0.1950
 9268W        W25742   0.830  13.887  12.882  0.2016  0.2306 -0.0163
 9269W        W25743   6.179   0.771   9.939 -0.0299  0.1700  0.2010
 9270W        W25744   1.890   9.370   4.716 -0.0194 -0.2136  0.1278
 9271W        W25745  15.274  18.212   4.641 -0.2603  0.0052  0.1466
 9272W        W25746  16.025  15.971  14.868 -0.1004 -0.1857  0.1660
 9273W        W25747  12.044   4.774   3.361 -0.1982  0.1828  0.2495
 9274W        W25748  13.739   9.166   3.242  0.0157  0.0205 -0.4076
 9275W        W25749   8.632  14.641   3.530  0.0935 -0.3110 -0.1660
 9276W        W25750  12.536   9.805   0.236 -0.0875  0.0960 -0.1995
 9277W        W25751  19.262   9.696   2.463  0.5644 -0.4999 -0.1701
 9278W        W25752   9.636  18.674   1.902 -0.0521  0.1553  0.3450
 9279W        W25753   0.035   6.116   1.182 -0.2730 -0.0481 -0.0691
 9280W        W25754   5.628   2.599   2.240  0.0848 -0.1840  0.1595
 9281W        W25755  19.083   2.773   3.995  0.0183 -0.1714 -0.1321
 9282W        W25756  11.722  10.006  14.706 -0.0247 -0.2098  0.1877
 9283W        W25757   2.432   7.139   4.897 -0.1986  0.3365  0.4024
 9284W        W25758   6.714  18.307  12.674  0.0236 -0.1685 -0.2280
 9285W        W25759   0.455   5.946  13.544 -0.1093 -0.0773  0.0730
 9286W        W25760   5.332   6.210   3.831 -0.0217 -0.2925 -0.1955
 9287W        W25761  13.515  13.092   4.213 -0.0880  0.0631  0.3574
 9288W        W25762   0.614  13.841   3.122 -0.0019 -0.0521  0.3784
 9289W        W25763   6.415  11.595  10.859 -0.2441 -0.0492 -0.3867
 9290W        W25764  16.772   6.886   3.560  0.0608 -0.3086 -0.0361
 9291W        W25765  14.668  16.617  14.850  0.1714 -0.0036 -0.5768
 9292W        W25766   9.977  15.833   5.685  0.0400 -0.2432 -0.0233
 9293W        W25767   9.556   2.812   0.853  0.0157 -0.0228 -0.0703
 9294W        W25768   2.449   9.454   1.453  0.4295  0.2180  0.1297
 9295W        W25769   5.628   4.530  10.910  0.2202 -0.1629 -0.0244
 9296W        W25770   0.483   7.959  11.333  0.3961 -0.0393  0.2977
 9297W        W25771  14.087   0.035   2.478 -0.3223  0.1655  0.1088
 9298W        W25772  11.033   2.234  14.695 -0.2791 -0.0749  0.1145
 9299W        W25773  11.377   9.175  12.279 -0.1304  0.0483 -0.1273
 9300W        W25774   0.065   6.081  12.036  0.0508  0.0836 -0.2950
 9301W        W25775   6.125  18.597   0.519 -0.1834  0.4137  0.0916
 9302W        W25776  10.427  14.228   1.102  0.1048 -0.0410 -0.0906
 9303W        W25777  15.480  10.778  12.591 -0.1659  0.2173  0.0675
 9304W        W25778   0.457  12.835  12.048 -0.3625 -0.1801 -0.0035
 9305W        W25779  17.267  15.289   0.878  0.0003 -0.1811  0.0924
 9306W        W25780  11.569  12.561  14.008 -0.1150 -0.3081 -0.2309
 9307W        W25781   9.789   1.739  12.649 -0.2421  0.2087  0.3350
 9308W        W25782   0.663   1.191   3.269  0.0220  0.2017 -0.1862
 9309W        W25783  11.363  19.220  11.578  0.2316 -0.1872 -0.2609
 9310W        W25784   7.130   0.444   4.503  0.0665  0.1757 -0.1200
 9311W        W25785   9.470  11.337  10.338  0.2399 -0.0784  0.1997
 9312W        W25786   6.358   2.484  13.087  0.1327 -0.1144  0.0032
 9313W        W25787  19.358  16.324  12.882  0.0841 -0.1263  0.0940
 9314W        W25788   4.843   4.064  14.788 -0.0025 -0.2113 -0.1309
 9315W        W25789  17.074  15.395  10.756  0.1213 -0.0175 -0.1482
 9316W        W25790   7.126  11.449   4.650  0.1266 -0.2646  0.0385
 9317W        W25791  10.698   3.975  10.913 -0.4265  0.2063 -0.1117
 9318W        W25792  14.369  12.662  11.483 -0.1225 -0.1487  0.0002
 9319W        W25793  11.070  12.804  13.595 -0.1614  0.1522  0.0960
 9320W        W25794   0.748  10.381   0.305  0.2323  0.1251 -0.0398
 9321W        W25795  11.601   7.565  14.206 -0.0822 -0.0477  0.2856
 9322W        W25796   0.713   9.334  12.302 -0.2872 -0.0829  0.3776
 9323W        W25797   0.117   9.928   2.866 -0.1357  0.0234  0.2043
 9324W        W25798  18.154   9.256   2.087 -0.0388 -0.1961  0.0620
 9325W        W25799   6.028  16.428  13.594 -0.2911  0.1335 -0.0628
 9326W        W25800  12.536  12.741  12.390 -0.2175  0.1899 -0.0320
 9327W        W25801   1.564   0.062   5.210 -0.1791  0.0423 -0.0326
 9328W        W25802   9.703  18.206   1.761 -0.1746  0.2274 -0.1293
 9329W        W25803  14.051  18.274  12.495  0.0670  0.0716 -0.0132
 9330W        W25804   7.673   6.178  13.226  0.1535 -0.1301 -0.0083
 9331W        W25805   1.199  17.784  10.816  0.0897  0.0165  0.2010
 9332W        W25806   2.065   4.805   3.600 -0.1462  0.2494  0.1448
 9333W        W25807  15.693   9.957  11.341 -0.1653 -0.0097 -0.0620
 9334W        W25808   5.729   5.993  12.335 -0.1269  0.1556  0.1288
 9335W        W25809  16.071  14.815  11.390  0.0791 -0.3625 -0.0395
 9336W        W25810   9.898   9.751  12.851 -0.3527  0.1593 -0.4497
 9337W        W25811  17.240   0.821   1.533 -0.1721  0.0630 -0.1746
 9338W        W25812   9.287  10.546   2.739 -0.0243 -0.3422  0.2065
 9339W        W25813   0.175   9.142  11.019  0.0486 -0.0442  0.0888
 9340W        W25814  13.275   1.436  14.425 -0.5358 -0.3266 -0.0127
 9341W        W25815   8.803  13.850  11.926  0.2909 -0.3551  0.0629
 9342W        W25816  10.205   1.745   4.358  0.0681  0.1409 -0.1359
 9343W        W25817   8.050   2.369  13.735  0.0417 -0.1720 -0.0160
 9344W        W25818  15.240   4.561   0.824  0.0898 -0.0514  0.1761
 9345W        W25819  14.100  17.453  12.000 -0.0566 -0.1724 -0.2309
 9346W        W25820  12.006  13.570   4.105 -0.3911  0.0682 -0.4548
 9347W        W25821   1.474   8.614  11.700 -0.1593 -0.1689  0.1440
 9348W        W25822  19.318   2.897   5.164  0.2391 -0.0041 -0.0297
 9349W        W25823   7.759  12.981   0.313 -0.0585 -0.0592  0.0935
 9350W        W25824   9.965  17.745   1.551 -0.0152  0.1336  0.0615
 9351W        W25825  19.013   3.407   2.957 -0.1234  0.0154 -0.0929
 9352W        W25826   7.162   2.692  14.840  0.2356 -0.2711  0.1915
 9353W        W25827  10.092  16.665   4.873 -0.2079  0.0818 -0.0349
 9354W        W25828   0.189   4.132   0.578 -0.0040 -0.0180  0.3296
 9355W        W25829  13.643  16.735  14.266 -0.2384  0.1664  0.3048
 9356W        W25830  12.986  11.702   0.980  0.6794  0.0661  0.4790
 9357W        W25831   2.921   0.883   2.730 -0.0433  0.3015 -0.2097
 9358W        W25832  18.831   6.098   1.990 -0.0229  0.1745  0.0526
 9359W        W25833   7.208  17.282  13.734  0.1352  0.0077  0.2889
 9360W        W25834  12.197  14.913  13.954  0.1035 -0.6085  0.1054
 9361W        W25835   4.767   8.159   9.087 -0.2333 -0.0616  0.1965
 9362W        W25836  17.674  13.622   1.745 -0.3170  0.2080  0.0621
 9363W        W25837   3.668   0.551   0.907 -0.2231 -0.3284 -0.2353
 9364W        W25838   2.081  11.523   9.275  0.0918  0.0107  0.2142
 9365W        W25839  12.198   4.726  12.632  0.0800 -0.3101  0.1777
 9366W        W25840   3.048  14.470   4.956 -0.1840 -0.0084  0.0756
 9367W        W25841   0.952  15.607  10.973 -0.1658 -0.2823  0.0571
 9368W        W25842   7.106  11.082   5.371  0.2053  0.1790 -0.1436
 9369W        W25843  16.699  12.377   2.254 -0.2055 -0.3332 -0.1076
 9370W        W25844   9.572  14.863   2.423  0.3061 -0.0854 -0.1247
 9371W        W25845  11.894   2.772   0.984  0.0649  0.0245 -0.0737
 9372W        W25846  15.706  12.880  11.657 -0.1937  0.2237 -0.0414
 9373W        W25847   8.446   7.812  12.657 -0.0166  0.1115  0.0268
 9374W        W25848  14.764  15.744   2.471 -0.2629 -0.0277  0.2470
 9375W        W25849  10.049   0.425   0.297 -0.1725  0.5749  0.0660
 9376W        W25850  17.840   3.699  14.676 -0.1902  0.1347  0.0935
 9377W        W25851  14.337   9.926   0.491 -0.2723  0.2441 -0.1502
 9378W        W25852   9.648   2.780   1.494 -0.0353 -0.1388  0.0878
 9379W        W25853  18.851  15.153  11.719  0.1991  0.1321  0.0501
 9380W        W25854   6.434  18.166   1.242 -0.0313 -0.1247 -0.1672
 9381W        W25855   8.877  15.748   3.029 -0.0015 -0.0404  0.1425
 9382W        W25856   5.577   1.297   5.402  0.2508 -0.0064  0.0696
 9383W        W25857   5.783   6.687   3.735  0.4877 -0.2874  0.0077
 9384W        W25858   2.574   8.448   3.912  0.0880 -0.1536  0.2302
 9385W        W25859  18.248  10.477  10.969  0.1939  0.2381 -0.1008
 9386W        W25860   2.818   7.100  13.086  0.0587  0.0554  0.1173
 9387W        W25861  18.979   2.260   0.452 -0.0628 -0.3021  0.3161
 9388W        W25862   3.927  14.765   0.472 -0.2798  0.0382 -0.1718
 9389W        W25863  19.276   6.478   4.393  0.0554  0.5097  0.0123
 9390W        W25864   2.564   3.488   3.680  0.2347 -0.1676 -0.0302
 9391W        W25865  13.840   0.964   3.742 -0.1233  0.0994 -0.1108
 9392W        W25866  11.194   7.407   2.517  0.1192  0.1210 -0.1114
 9393W        W25867  16.107  14.376   9.701  0.0079  0.2886  0.2477
 9394W        W25868  19.194  16.566  10.896 -0.2668 -0.1531  0.2061
 9395W        W25869  17.833  14.039  14.227  0.0183  0.6012  0.3193
 9396W        W25870  12.952  18.694   2.600  0.1332 -0.3568 -0.0077
 9397W        W25871  14.426  19.190   5.230 -0.4924 -0.1102 -0.2145
 9398W        W25872   4.273   0.012   9.136 -0.0634 -0.1577 -0.0368
 9399W        W25873  12.876  10.571   3.972 -0.1326  0.0604  0.0474
 9400W        W25874  17.445   7.385   1.979  0.1723 -0.0356  0.0271
 9401W        W25875   2.961   0.681   4.586 -0.1740  0.2089  0.0918
 9402W        W25876   7.381   5.406  11.301 -0.1603  0.2662 -0.2566
 9403W        W25877   3.308   5.217   1.312 -0.0110 -0.0667  0.0909
 9404W        W25878  13.897   4.515   1.291  0.4076  0.1415  0.4056
 9405W        W25879   5.176  15.424   3.575 -0.0339 -0.2150 -0.0176
 9406W        W25880  11.348  13.875  14.042 -0.2159  0.2511 -0.2468
 9407W        W25881   3.229   9.608   3.458 -0.0859 -0.2037  0.2204
 9408W        W25882   2.709   6.727   4.687  0.1064 -0.3120  0.0395
 9409W        W25883   1.022   2.714   0.505  0.2585  0.0918 -0.0277
 9410W        W25884   8.928   9.410   2.469  0.1009 -0.0034 -0.1837
 9411W        W25885   7.520   7.257   8.567  0.5154 -0.1896 -0.0531
 9412W        W25886   3.606   4.224   2.621 -0.3223 -0.3666 -0.1076
 9413W        W25887   6.320   1.132  10.294 -0.0581  0.1648  0.1891
 9414W        W25888   2.047   7.549  12.091  0.0888 -0.1251 -0.0828
 9415W        W25889   5.718   1.788   0.156 -0.1692  0.1760  0.3731
 9416W        W25890   0.861  15.124  11.217 -0.0721  0.0799  0.2282
 9417W        W25891  16.085  17.342   1.530 -0.2441  0.2874 -0.1318
 9418W        W25892  15.398  10.485  11.000 -0.4502 -0.1613  0.1561
 9419W        W25893  11.498   8.245  13.450  0.0330 -0.2752  0.1280
 9420W        W25894  10.560  11.173  14.336 -0.0935  0.4634  0.1696
 9421W        W25895  13.357  14.706   4.860 -0.2629  0.1713 -0.0251
 9422W        W25896  12.277   9.626  13.970 -0.0805  0.0781 -0.1604
 9423W        W25897   7.313  12.926  12.287 -0.0833  0.2816 -0.0977
 9424W        W25898  15.087  19.293   3.807 -0.1329  0.2626 -0.0357
 9425W        W25899  16.380  15.017   3.019 -0.2633 -0.1788 -0.2404
 9426W        W25900   8.261   2.364   0.401  0.0270 -0.1244 -0.1305
 9427W        W25901  10.530   7.874   3.949 -0.0161 -0.0808  0.0033
 9428W        W25902   2.870  12.406  14.382 -0.0432 -0.1459 -0.0285
 9429W        W25903  14.208  16.409   3.681  0.2007 -0.0377  0.2522
 9430W        W25904  16.486  18.570  13.829  0.0384 -0.3297 -0.2735
 9431W        W25905   7.654  10.151  12.047  0.1301  0.2536  0.0653
 9432W        W25906   9.142  16.259   0.208  0.3634 -0.3607  0.0515
 9433W        W25907   7.367  12.453   3.029  0.0657 -0.0917 -0.1636
 9434W        W25908   0.349  17.158   3.348 -0.0307  0.2610 -0.1313
 9435W        W25909   8.933  12.186   9.683 -0.2874 -0.0458  0.3680
 9436W        W25910  14.897   9.697   4.609 -0.1095 -0.0015  0.3060
 9437W        W25911   7.416   6.603   2.052  0.0314  0.0485  0.2335
 9438W        W25912   7.677  12.814  10.830 -0.1612  0.0720  0.1418
 9439W        W25913   5.856   5.991   0.655  0.1859  0.2581 -0.1918
 9440W        W25914   0.203  15.067   3.917  0.5590 -0.1299  0.0643
 9441W        W25915   7.761  12.271  13.621 -0.1551 -0.0440 -0.1827
 9442W        W25916  19.085   8.536  12.552 -0.1330 -0.0620 -0.0198
 9443W        W25917   2.518   5.039  14.810  0.0083  0.0546  0.0465
 9444W        W25918   1.090  18.444  14.591  0.1397 -0.2792 -0.2015
 9445W        W25919   2.313  10.536   1.410 -0.3569  0.0713 -0.0494
 9446W        W25920   9.652   6.194  12.523 -0.1877  0.0549  0.1667
 9447W        W25921   1.149   0.313   4.259 -0.2251  0.0884 -0.2176
 9448W        W25922  13.364  11.070   1.608  0.1821  0.2653  0.1438
 9449W        W25923   9.842  12.349   4.725  0.0738  0.0310 -0.1671
 9450W        W25924   3.665   6.059   3.876  0.1603 -0.0890 -0.0423
 9451W        W25925   4.525   3.304   0.868 -0.0491 -0.1795 -0.0896
 9452W        W25926   3.034  10.125  11.240  0.0271  0.0667 -0.0702
 9453W        W25927   2.561   6.886  13.646 -0.1738 -0.2131 -0.0661
 9454W        W25928  16.913   9.247  12.520  0.1074 -0.0055  0.0366
 9455W        W25929   4.957  10.006   0.572  0.0739 -0.0304  0.2618
 9456W        W25930  14.461   5.535  13.485 -0.3519 -0.1221 -0.1317
 9457W        W25931  13.659  12.853  10.885 -0.2629 -0.2965  0.1931
 9458W        W25932  12.424   6.419  14.311 -0.1265  0.0180  0.1468
 9459W        W25933  13.828  16.341   5.107 -0.0010  0.0582 -0.4637
 9460W        W25934  16.613   0.806   2.854 -0.0424  0.2521  0.3585
 9461W        W25935   0.278   4.423   1.438  0.1498 -0.0767 -0.0864
 9462W        W25936  15.913   1.187  11.848  0.0692  0.2931  0.0409
 9463W        W25937   4.828   6.317  13.199  0.1630  0.2189 -0.0563
 9464W        W25938  10.186  17.764  14.401 -0.4292  0.1375 -0.0432
 9465W        W25939   1.933   5.101  12.741  0.0691  0.0668 -0.2613
 9466W        W25940  17.959  19.361   2.791 -0.1597 -0.3918 -0.0577
 9467W        W25941   1.225  12.461   1.588 -0.0960 -0.0555 -0.0557
 9468W        W25942   8.535   7.115  11.184 -0.1060  0.0084  0.2377
 9469W        W25943  16.297  19.079  11.237 -0.0779 -0.1214 -0.1431
 9470W        W25944   2.045  10.344  11.442 -0.3834 -0.0843  0.0063
 9471W        W25945  16.039   3.491   2.289  0.2658 -0.1461 -0.1827
 9472W        W25946   1.100   0.433  13.884  0.2277 -0.1092  0.0975
 9473W        W25947  11.171   5.661   2.943 -0.3444 -0.0200 -0.3069
 9474W        W25948   1.349  11.491  12.745 -0.1665 -0.0195  0.1605
 9475W        W25949  16.284  11.615  11.593  0.2742 -0.0459  0.1264
 9476W        W25950   6.096   3.515  10.251  0.2379  0.0390 -0.2304
 9477W        W25951  14.624  11.439   0.580  0.0301 -0.1210  0.0667
 9478W        W25952   8.081  10.947  11.960  0.0166  0.1662 -0.0845
 9479W        W25953  14.066  14.159  12.112  0.2455  0.0829 -0.2497
 9480W        W25954  10.712  17.928   0.854 -0.3768  0.2065  0.1646
 9481W        W25955   3.017  14.697  14.242 -0.1346  0.0865 -0.6105
 9482W        W25956   8.049  17.328  12.180 -0.0681  0.1009 -0.3508
 9483W        W25957  16.664  12.490  13.676  0.0731  0.0380  0.0860
 9484W        W25958   4.813  15.732  12.244 -0.4809 -0.0033 -0.0957
 9485W        W25959   7.489  14.314   4.635  0.3437 -0.1216 -0.0042
 9486W        W25960   4.570   5.751   9.728  0.0473  0.0631  0.0553
 9487W        W25961   3.861  14.835  13.560 -0.0631  0.1649  0.1367
 9488W        W25962  14.603   6.248   3.510 -0.0819  0.1731 -0.0357
 9489W        W25963  14.112  14.098   2.577  0.0315  0.2260 -0.2083
 9490W        W25964   2.790   5.388   1.155 -0.2314 -0.0860  0.1519
 9491W        W25965   5.154   8.695   2.209 -0.2164 -0.1756  0.2107
 9492W        W25966  12.761  13.855  10.685 -0.0354 -0.1186  0.2559
 9493W        W25967   5.481   2.485  10.573 -0.1345  0.1858  0.0867
 9494W        W25968   0.814  19.274   4.708 -0.2168  0.1918 -0.0830
 9495W        W25969  14.916  18.121  14.025  0.1494  0.0489 -0.3232
 9496W        W25970   9.396  16.434  11.587 -0.1290 -0.2744 -0.2235
 9497W        W25971  11.323   7.049  13.948  0.1397 -0.2234  0.0072
 9498W        W25972   8.169  13.859  10.889  0.0703 -0.1871  0.1554
 9499W        W25973  16.752   6.946  13.157  0.1127  0.0946 -0.0492
 9500W        W25974   9.754   8.486  12.410  0.2756 -0.2143  0.3716
 9501W        W25975   6.206   3.797  14.641  0.2204  0.2311  0.0009
 9502W        W25976  16.852  17.692   4.809 -0.1432 -0.0016  0.2087
 9503W        W25977   1.031  18.423   3.315 -0.0822 -0.1660  0.2363
 9504W        W25978  18.927   3.986  10.754 -0.0670  0.1548  0.1525
 9505W        W25979  18.162   8.493   4.417  0.2088 -0.2755  0.1360
 9506W        W25980   5.199   5.210  11.377 -0.1300  0.0009  0.0120
 9507W        W25981  14.388   6.678   3.186 -0.3174  0.1409  0.1677
 9508W        W25982  19.309  15.427  11.678  0.1617  0.0084  0.0263
 9509W        W25983  13.020   7.360  13.101 -0.0760 -0.1425 -0.1142
 9510W        W25984   9.271   6.412   3.250 -0.0067 -0.1672 -0.2314
 9511W        W25985   0.048  14.126   4.000 -0.2594  0.0019  0.1730
 9512W        W25986  16.890  15.549  14.713 -0.0073 -0.2865 -0.1054
 9513W        W25987   1.873  10.315   3.531  0.0744 -0.0899 -0.3108
 9514W        W25988   8.366   8.616   3.027  0.0605 -0.0032  0.0891
 9515W        W25989  10.736   8.831   4.212  0.1152  0.1101 -0.0282
 9516W        W25990   2.580  11.749  11.528 -0.0470 -0.0560 -0.0755
 9517W        W25991  13.848  11.924   4.600 -0.1471 -0.0883  0.1091
 9518W        W25992  18.108  13.641  11.728 -0.3425 -0.0283 -0.1107
 9519W        W25993  13.724  10.780  12.023  0.0283  0.1293  0.5600
 9520W        W25994   1.900   3.195  13.879  0.2127 -0.0998  0.4151
 9521W        W25995  17.202  13.513   2.022  0.2982  0.1155  0.0079
 9522W        W25996  16.632   0.335   2.980 -0.1531  0.3704  0.2643
 9523W        W25997   0.526   3.310  10.998  0.0983  0.4073 -0.0860
 9524W        W25998   5.229   5.174   3.981  0.0185  0.1486  0.0599
 9525W        W25999   1.391  15.715   1.991 -0.2476 -0.1215  0.4455
 9526W        W26000  15.733   6.245   1.272 -0.3945 -0.4544  0.1905
 9527W        W26001   3.420   0.271   4.186  0.3375 -0.3129 -0.2037
 9528W        W26002   5.872  10.166  12.589  0.1062  0.1581 -0.2590
 9529W        W26003   9.651  12.790   1.971 -0.1302  0.0344 -0.2129
 9530W        W26004   2.732  14.206   3.214  0.4351 -0.0095  0.0007
 9531W        W26005   4.838  19.144   0.271 -0.0947  0.0088  0.1307
 9532W        W26006   8.719   7.950   1.468  0.1554  0.0120 -0.0125
 9533W        W26007   0.766   4.586  12.579 -0.1187 -0.5673 -0.1049
 9534W        W26008   8.088  19.198   3.845  0.4482 -0.0515  0.0309
 9535W        W26009  10.174   8.099  11.805  0.0021 -0.2311 -0.2533
 9536W        W26010  17.295   3.637   1.995  0.2010  0.1431 -0.1002
 9537W        W26011   7.495   4.901  10.386  0.3217  0.2806 -0.0620
 9538W        W26012   3.475  15.277   0.400 -0.0949  0.0593  0.1890
 9539W        W26013  10.242  18.984   4.552 -0.1496 -0.0500  0.0938
 9540W        W26014  12.365   0.718   4.835 -0.2400 -0.2233 -0.0524
 9541W        W26015   8.140   2.476  12.301  0.0193  0.4129  0.1282
 9542W        W26016   3.267   6.583  10.906 -0.2023  0.3442 -0.0523
 9543W        W26017   7.547  11.590  10.274  0.3303 -0.1513  0.2186
 9544W        W26018  14.555  12.308   3.809 -0.0155 -0.2655 -0.0471
 9545W        W26019   9.300   8.203  12.465  0.1161  0.1092  0.1635
 9546W        W26020   6.761   9.220  13.304 -0.0785  0.0493  0.2392
 9547W        W26021   1.235  13.089  10.981 -0.3592 -0.0147  0.2716
 9548W        W26022   0.149   7.826   0.452 -0.1690 -0.0630  0.0787
 9549W        W26023   4.136  16.454  10.287  0.1594  0.1316  0.0335
 9550W        W26024  11.728   7.874   0.172  0.2978 -0.0025  0.1410
 9551W        W26025  13.366   0.068   1.110  0.2826 -0.0119 -0.0908
 9552W        W26026   3.739   5.376   0.103  0.3521 -0.0976 -0.1765
 9553W        W26027   9.588   9.683  10.467  0.1848 -0.3476 -0.0459
 9554W        W26028  18.497   9.063  12.157  0.0763  0.0414  0.3492
 9555W        W26029  17.726  13.995   9.666 -0.1169 -0.3477 -0.1948
 9556W        W26030   7.786  11.406  13.373  0.0336  0.0534  0.0429
 9557W        W26031  13.295  17.748   1.298 -0.2575  0.2906  0.0668
 9558W        W26032  18.528   8.314   4.674 -0.0424  0.2077 -0.0173
 9559W        W26033   7.462   9.624  13.297 -0.0528 -0.0106 -0.3361
 9560W        W26034  17.644   1.699  11.232  0.1040 -0.0655 -0.0176
 9561W        W26035  12.172   2.102  12.000  0.2327  0.2240 -0.0910
 9562W        W26036  17.404  17.436   5.602  0.0044  0.0067  0.0346
 9563W        W26037  17.353   9.881   0.986 -0.1395  0.0289 -0.1413
 9564W        W26038  17.538  16.158   2.312 -0.1845 -0.1873  0.0053
 9565W        W26039   1.664   3.092   4.219  0.3666 -0.3394 -0.1379
 9566W        W26040  13.632   6.211  12.005 -0.0981 -0.3112 -0.2169
 9567W        W26041   3.423   4.857  14.486  0.2042  0.0693 -0.3518
 9568W        W26042  10.913   9.122   2.536 -0.1204  0.2695 -0.0065
 9569W        W26043   1.302   0.382   0.392  0.1462  0.0515  0.0426
 9570W        W26044  13.444  15.853   1.624  0.0239  0.2917  0.3606
 9571W        W26045   5.366   2.611  13.588 -0.3380 -0.2547  0.2423
 9572W        W26046  17.862   6.946  14.626 -0.0603  0.1309  0.7617
 9573W        W26047   6.357   3.238  11.626  0.3862 -0.2241  0.1810
 9574W        W26048  13.188   6.153  11.724  0.1161 -0.0843  0.0337
 9575W        W26049  16.566   5.570   3.324 -0.0353  0.0430  0.1965
 9576W        W26050   4.290  14.590  13.689 -0.0404 -0.4127 -0.1528
 9577W        W26051  17.555  11.075   0.478 -0.3823 -0.0677 -0.1365
 9578W        W26052  12.852  19.314  11.378  0.3423  0.1213 -0.0798
 9579W        W26053  15.299   6.765   0.435 -0.0154  0.0991  0.1584
 9580W        W26054   3.756   6.781  11.678  0.0607  0.1443  0.4966
 9581W        W26055  16.500   4.814  10.593 -0.5661 -0.2271 -0.2280
 9582W        W26056  15.283  16.549   5.012  0.0132  0.2190 -0.1727
 9583W        W26057   6.320  13.096  12.857 -0.1499 -0.1014  0.0836
 9584W        W26058   1.552   3.666   5.009  0.1235  0.0032  0.1619
 9585W        W26059   5.404   3.813   3.451 -0.5130 -0.1405 -0.1300
 9586W        W26060  16.558   1.797   9.886 -0.0777  0.2533  0.0905
 9587W        W26061  14.706   8.225   3.926  0.0230 -0.1149 -0.2077
 9588W        W26062  14.867  15.994   5.074 -0.1708 -0.0941 -0.0573
 9589W        W26063  12.848  16.094  12.163 -0.3191  0.2211  0.3612
 9590W        W26064  18.912   1.439   5.811 -0.0599  0.0093 -0.4685
 9591W        W26065  18.957  14.533   0.764 -0.0530 -0.1339  0.0474
 9592W        W26066   5.094  14.624  12.548 -0.1058 -0.0373 -0.4566
 9593W        W26067  13.712  11.717  10.179 -0.1694 -0.3141 -0.1473
 9594W        W26068   5.357   9.879  14.032  0.0699 -0.1032 -0.0384
 9595W        W26069   9.897   1.800  11.726 -0.0387 -0.2719  0.2796
 9596W        W26070   6.465  12.017  11.174  0.0617  0.1468  0.0489
 9597W        W26071  19.284  11.633   0.276  0.2695 -0.1964 -0.0470
 9598W        W26072   6.459  16.487   0.971  0.2928  0.1737 -0.0390
 9599W        W26073   0.449  16.353   2.814 -0.3005 -0.0763 -0.0214
 9600W        W26074  19.046   5.427  12.401 -0.0167 -0.2556 -0.0048
 9601W        W26075  18.092  11.219  12.425  0.3777 -0.0287  0.1165
 9602W        W26076  14.482   4.665  11.498  0.0907  0.1384  0.3240
 9603W        W26077   9.716  18.668   0.432  0.0921 -0.3563 -0.0066
 9604W        W26078   6.283  16.553  14.464 -0.0574 -0.3427 -0.1973
 9605W        W26079   0.131  16.194   4.943 -0.0377 -0.3875  0.4613
 9606W        W26080   4.133  18.357   0.710  0.1417  0.1924 -0.0747
 9607W        W26081  16.074  17.050   0.158 -0.0993 -0.1777 -0.1540
 9608W        W26082   1.124   1.204   2.258 -0.4199  0.0189 -0.0279
 9609W        W26083  16.758   1.708  11.679 -0.1183 -0.2045  0.2017
 9610W        W26084  16.547   9.580  10.946  0.0851 -0.0144 -0.3713
 9611W        W26085  12.918   8.798   2.745 -0.0202  0.0510  0.1358
 9612W        W26086   2.752  17.767   9.590  0.0883 -0.3172 -0.0231
 9613W        W26087  12.461   2.977  11.158  0.0759 -0.0166 -0.3428
 9614W        W26088   3.061   0.764  11.863  0.0061  0.1967 -0.2928
 9615W        W26089  15.539  11.310  12.557  0.1446 -0.2214 -0.2032
 9616W        W26090  17.086   4.040  14.060 -0.0645  0.0083  0.1849
 9617W        W26091  18.612  10.169   0.085  0.1334  0.1859  0.0058
 9618W        W26092   8.589   7.237   4.144 -0.0816  0.2041 -0.0459
 9619W        W26093  11.477   0.746   1.999 -0.0643 -0.0199 -0.3061
 9620W        W26094  15.283   4.454   3.549  0.0406  0.1998  0.1249
 9621W        W26095   4.192   4.264  13.355 -0.0678 -0.2598  0.1309
 9622W        W26096   9.491  12.009   4.887  0.3203  0.0643 -0.1785
 9623W        W26097  17.952   2.352   0.176  0.1175 -0.0548 -0.3518
 9624W        W26098  17.016  13.402   4.851 -0.1697 -0.0250  0.2048
 9625W        W26099   5.832  13.394   2.695  0.2308  0.0540  0.2759
 9626W        W26100  13.777  10.827   2.512  0.1455 -0.3171 -0.0543
 9627W        W26101   5.622  15.427  14.725 -0.1416  0.2200  0.1633
 9628W        W26102  15.380   9.702  13.298 -0.1852  0.0451  0.0145
 9629W        W26103   0.248   4.212   5.833  0.3297 -0.2073  0.1217
 9630W        W26104   3.116   7.002   0.994 -0.2070  0.0325  0.1942
 9631W        W26105  16.947   7.413  12.854 -0.1755  0.0020 -0.1150
 9632W        W26106  15.138   1.208   3.655 -0.4392  0.2794 -0.2779
 9633W        W26107   2.707  16.049   3.818 -0.1044  0.0047 -0.1178
 9634W        W26108   2.452  14.678  11.121 -0.1618 -0.1221 -0.1371
 9635W        W26109  15.319   9.989   5.290 -0.4053  0.0005 -0.2522
 9636W        W26110  14.761  10.306  14.490  0.0366 -0.2925 -0.0587
 9637W        W26111  15.328   3.981   3.326 -0.0268 -0.0208 -0.1100
 9638W        W26112  14.151  17.258   0.231  0.3086  0.0953  0.2414
 9639W        W26113  18.440  10.855  10.695 -0.0114  0.2833  0.1849
 9640W        W26114   3.553   1.925   3.748  0.3569  0.1252  0.0924
 9641W        W26115  18.831  11.353   2.862  0.1818 -0.0524 -0.1885
 9642W        W26116  14.254  13.994   3.484  0.1266 -0.0864 -0.0319
 9643W        W26117   4.661   2.623   2.462 -0.1211 -0.2338  0.0174
 9644W        W26118  14.889   2.905   1.308  0.0709 -0.2674 -0.0403
 9645W        W26119   3.521   6.994  10.720 -0.3144  0.0417 -0.0332
 9646W        W26120  10.777   7.875   4.399 -0.0054 -0.1623  0.3185
 9647W        W26121   3.904  13.686   4.207  0.1180  0.0116 -0.1934
 9648W        W26122   5.347  14.024   3.172 -0.2075  0.1393  0.4119
 9649W        W26123  14.202  15.079  13.991  0.1014 -0.0435 -0.1343
 9650W        W26124   7.894   2.112   3.534 -0.1365  0.1584  0.1521
 9651W        W26125   9.293   7.902  10.377 -0.0420 -0.3291  0.1326
 9652W        W26126   4.269   8.617   1.591 -0.0144  0.2764  0.1980
 9653W        W26127  16.641   8.155   3.310  0.1668 -0.1404 -0.1723
 9654W        W26128   4.305  15.877   2.814  0.2074  0.4317 -0.1776
 9655W        W26129   7.093  17.113   5.275  0.2098  0.1061 -0.0082
 9656W        W26130   1.544   8.892  12.555 -0.4010 -0.2391 -0.3500
 9657W        W26131  15.157  15.113  12.937  0.1365 -0.0545 -0.3071
 9658W        W26132   8.241   4.012   3.037 -0.0023  0.0266 -0.1030
 9659W        W26133   8.323   8.034   4.721  0.3256 -0.4756 -0.1159
 9660W        W26134  16.225   3.380  12.895  0.1073  0.0598  0.0421
 9661W        W26135   7.441   3.901   2.011  0.0939  0.3314  0.0485
 9662W        W26136  17.158  14.854  11.168  0.1649 -0.0320  0.2508
 9663W        W26137   8.457  12.364  13.669  0.1669 -0.1864  0.1858
 9664W        W26138   8.949   2.992  14.108  0.1542  0.0391 -0.0481
 9665W        W26139  10.156   5.902   0.516 -0.1901  0.1911  0.2515
 9666W        W26140  16.859   0.503  10.944 -0.2376  0.1236  0.1707
 9667W        W26141   7.435  12.314  11.539 -0.1406 -0.0682  0.0839
 9668W        W26142  10.269   1.887  14.592 -0.0681 -0.1704  0.1070
 9669W        W26143   3.652   0.560  13.668  0.2128  0.1560  0.0323
 9670W        W26144   6.727  18.641   3.710 -0.1529  0.0153  0.2016
 9671W        W26145   5.505  12.693   9.988 -0.2317  0.4664 -0.2589
 9672W        W26146  19.121   0.251  10.808  0.2200 -0.2618 -0.3445
 9673W        W26147  13.303   3.081  12.403  0.1143 -0.0035  0.0712
 9674W        W26148   4.001  13.590   0.898 -0.0264 -0.2311  0.1833
 9675W        W26149  18.635   7.738  13.588 -0.0092  0.4555  0.1411
 9676W        W26150  11.817   0.916   0.728  0.1460 -0.0109  0.1647
 9677W        W26151  15.986   1.766   0.978  0.3466  0.2676 -0.1103
 9678W        W26152   5.006  13.092  11.658 -0.0062 -0.1352  0.1343
 9679W        W26153  10.101  10.233  13.110  0.0650  0.3095 -0.1513
 9680W        W26154   6.443  12.926  11.558  0.1125  0.0432 -0.1647
 9681W        W26155   6.525   0.721   2.833  0.2673 -0.0995 -0.2409
 9682W        W26156  13.905   8.961  12.319 -0.0026 -0.1981  0.0904
 9683W        W26157  13.165  19.323   2.065  0.0366 -0.1342  0.1557
 9684W        W26158   7.219   5.404  14.805 -0.0424  0.0040 -0.1061
 9685W        W26159   3.988  17.975  14.054  0.0465 -0.2593  0.0492
 9686W        W26160   2.670   7.532  14.527  0.2748 -0.1569  0.1142
 9687W        W26161   1.420   3.556   4.436  0.2544 -0.2258  0.2218
 9688W        W26162  11.808  13.109   4.112  0.0646 -0.0795 -0.0509
 9689W        W26163  13.739   3.757  12.942  0.0151 -0.2561 -0.2021
 9690W        W26164  11.964  18.669   1.942 -0.2724 -0.4474 -0.2536
 9691W        W26165  11.762  13.185  12.390  0.0227 -0.1502 -0.0912
 9692W        W26166  19.116   6.808  11.110 -0.1390 -0.0426  0.0323
 9693W        W26167   2.747  11.818  13.852  0.1234 -0.1994 -0.1843
 9694W        W26168   2.864  10.343   4.628 -0.1090 -0.0873  0.0063
 9695W        W26169  13.244   4.634  14.388 -0.1274 -0.0231 -0.1473
 9696W        W26170   9.615  16.473   3.226 -0.2503  0.3159 -0.2952
 9697W        W26171  14.307  18.389   3.502  0.2109 -0.2269  0.2324
 9698W        W26172  10.506   2.430  11.826  0.0799 -0.2958  0.0606
 9699W        W26173   3.533  18.810   0.086 -0.0710  0.1700  0.0848
 9700W        W26174  14.910   5.811  14.315  0.0529  0.0887  0.0642
 9701W        W26175  18.434   7.875  12.114  0.0410 -0.3339 -0.1015
 9702W        W26176  18.978   1.836  11.776 -0.1313 -0.0790  0.1163
 9703W        W26177   8.447   4.506   3.005 -0.0610  0.0616  0.1326
 9704W        W26178   7.708   5.822  13.802 -0.2621 -0.0916  0.1594
 9705W        W26179   1.634   6.671  13.726 -0.3183 -0.0506 -0.2438
 9706W        W26180   8.792  18.701   2.767 -0.4505  0.1108 -0.2602
 9707W        W26181   8.053   8.295  11.924 -0.0466 -0.4734 -0.2794
 9708W        W26182   0.361  15.485  13.006  0.1014 -0.1179  0.1100
 9709W        W26183  19.071  10.502  12.085  0.0776 -0.0773  0.1452
 9710W        W26184  18.779   6.472   4.620 -0.0969 -0.1538  0.1390
 9711W        W26185   9.989  12.031   0.202 -0.1758  0.2349 -0.1328
 9712W        W26186   7.178  16.023  13.891  0.0607 -0.0321  0.2232
 9713W        W26187  12.182  10.665  14.151 -0.1046 -0.1777  0.0122
 9714W        W26188   6.784   6.402  12.428  0.2057  0.1125  0.1688
 9715W        W26189   8.823   3.937   0.658  0.1502 -0.0998 -0.1419
 9716W        W26190   2.116  16.665  12.007  0.2493  0.1027 -0.0138
 9717W        W26191  12.528  11.906   4.293  0.0036  0.1583  0.1852
 9718W        W26192   6.390  12.815  12.031 -0.0317 -0.0275  0.2400
 9719W        W26193   3.366   4.461   1.740 -0.0853  0.0296 -0.0208
 9720W        W26194   0.162   3.745  14.689 -0.6033 -0.0122 -0.1662
 9721W        W26195  15.902  14.127  12.409  0.0180  0.0199 -0.2137
 9722W        W26196   9.473  17.711  12.082  0.2463 -0.0015  0.0730
 9723W        W26197   1.062   8.876   2.235  0.0763 -0.1004 -0.0378
 9724W        W26198  11.000   1.412  12.431 -0.0098  0.0027  0.3761
 9725W        W26199   2.586   2.866  12.692 -0.0552  0.0830  0.1008
 9726W        W26200   3.166  13.335  14.587  0.4343  0.0857  0.0426
 9727W        W26201  18.470  12.231  14.248 -0.1680  0.3248  0.0634
 9728W        W26202   1.450  16.940   1.148  0.3794 -0.0222 -0.0524
 9729W        W26203  11.455  13.273   1.469  0.1623  0.0874  0.1138
 9730W        W26204  17.350  15.096   5.033  0.0610  0.1700 -0.1135
 9731W        W26205   0.952   6.586   4.543  0.1203  0.0460  0.0178
 9732W        W26206   2.663  12.072   1.966  0.0689  0.3531 -0.1474
 9733W        W26207  11.872   1.057   1.539 -0.0076 -0.1201 -0.0355
 9734W        W26208   4.340   6.021  10.176 -0.0886  0.1450 -0.2979
 9735W        W26209  16.842   8.619   4.280 -0.0582 -0.0112  0.0858
 9736W        W26210   7.741  11.332   1.455  0.0392 -0.1184  0.1327
 9737W        W26211  11.475  10.825  12.190  0.1812  0.2483  0.1581
 9738W        W26212   6.132   6.636  14.223  0.1967  0.1241 -0.1768
 9739W        W26213  16.559   4.276   0.773 -0.4053 -0.2092 -0.1225
 9740W        W26214  12.106   5.665   9.661 -0.1634 -0.1850 -0.2426
 9741W        W26215   3.570   0.167   2.814 -0.3023 -0.0438 -0.0212
 9742W        W26216  16.283   1.775  13.676 -0.0781 -0.5106  0.0105
 9743W        W26217  16.150   9.882   1.437 -0.0318  0.0250  0.1389
 9744W        W26218  15.540  10.481  13.579 -0.2515  0.0984  0.3555
 9745W        W26219  11.788  10.991  11.830 -0.4309  0.0194 -0.0434
 9746W        W26220  11.190  19.312   2.090 -0.0234 -0.0859  0.1473
 9747W        W26221   4.201  16.037   0.242  0.0447 -0.2978 -0.0167
 9748W        W26222  13.705  17.387   5.677 -0.0002 -0.1955 -0.5249
 9749W        W26223  15.844  13.439   2.772 -0.3802  0.0971  0.1245
 9750W        W26224   3.516   2.409   3.986  0.2953 -0.2166 -0.1373
 9751W        W26225   2.430  12.935   3.472  0.0011  0.4625 -0.1120
 9752W        W26226   6.349   1.767  14.505 -0.1510  0.2053  0.2055
 9753W        W26227   1.638   7.442   1.556 -0.4108  0.1384 -0.0455
 9754W        W26228   5.229  14.598   5.106  0.2461  0.0798 -0.0495
 9755W        W26229  12.598  14.085   5.352 -0.0105 -0.1335  0.4337
 9756W        W26230  18.552   1.023   4.823  0.1018 -0.0733  0.0987
 9757W        W26231  14.910   8.491  14.591 -0.0035  0.0164 -0.4368
 9758W        W26232  14.161   4.875  14.036 -0.0277 -0.2606 -0.0704
 9759W        W26233   7.180   6.405   3.184  0.2513  0.1113 -0.0582
 9760W        W26234   1.074  12.614   2.083 -0.0185  0.3067 -0.1182
 9761W        W26235   3.160   9.385  14.277 -0.0552 -0.1891 -0.0253
 9762W        W26236  11.597   9.292   3.923 -0.2229 -0.2311 -0.1956
 9763W        W26237  11.476  13.866   0.049 -0.1902 -0.3944 -0.0135
 9764W        W26238  17.869  16.266   2.650 -0.1143 -0.1500  0.2598
 9765W        W26239   2.023  14.395   3.919 -0.0901  0.0374 -0.0614
 9766W        W26240   8.571   6.734  14.615  0.0988 -0.0588 -0.1364
 9767W        W26241   1.883  13.473  11.050 -0.2206  0.2716 -0.0398
 9768W        W26242   5.465   4.498  14.327 -0.1408 -0.2062  0.2780
 9769W        W26243   6.485  13.241  14.031 -0.1754  0.1784 -0.0018
 9770W        W26244  15.951   0.128  13.062 -0.1680 -0.1623  0.0727
 9771W        W26245   6.912   5.595  11.467  0.0771  0.0581 -0.1391
 9772W        W26246  10.618   5.789  14.074  0.3208  0.0485 -0.3508
 9773W        W26247  10.760   5.742  10.863 -0.0415 -0.0525  0.2613
 9774W        W26248   5.898  10.117   4.880 -0.3052  0.0547  0.1747
 9775W        W26249   3.045   6.179  14.153 -0.1827  0.0931  0.0659
 9776W        W26250   2.651  15.050  13.669 -0.2130  0.2516 -0.1069
 9777W        W26251  15.603   7.261  12.801 -0.0792  0.4471 -0.2350
 9778W        W26252  16.793  13.445  11.534  0.0873  0.1474  0.1255
 9779W        W26253  10.592  10.688   0.545  0.3560  0.3058 -0.1927
 9780W        W26254  18.082   2.017  13.174 -0.0328  0.1847  0.3898
 9781W        W26255   3.872   4.642   1.961 -0.0128  0.0504 -0.2965
 9782W        W26256  17.911  15.804   1.417 -0.0619  0.1133  0.1358
 9783W        W26257   4.720  15.926  10.528  0.1117 -0.2098  0.2125
 9784W        W26258   4.130   6.548   4.544  0.1313 -0.1342  0.1674
 9785W        W26259   6.251   6.189   1.135 -0.1066 -0.0509  0.1996
 9786W        W26260   9.077  17.103  14.800 -0.3099 -0.0531  0.0528
 9787W        W26261   1.235  11.766  14.717 -0.1262  0.2224 -0.1249
 9788W        W26262  14.485   1.739  13.383 -0.0812  0.3733 -0.2226
 9789W        W26263  12.847   7.147  10.236 -0.1263  0.1538  0.0964
 9790W        W26264  15.460   4.078  14.845 -0.0571  0.1127 -0.0656
 9791W        W26265   3.014  10.774  13.221  0.0392 -0.0447  0.1070
 9792W        W26266   8.177   4.921   2.823 -0.0401  0.2145  0.0545
 9793W        W26267  19.309   6.856   3.290  0.3794  0.1419 -0.0565
 9794W        W26268  12.668  13.563   5.206 -0.0417 -0.2997 -0.0934
 9795W        W26269   4.652  18.436   3.159 -0.0286 -0.0052 -0.2922
 9796W        W26270   0.968  18.887   3.820 -0.0031  0.3609  0.0791
 9797W        W26271   2.036   9.324  14.284  0.1791  0.1982 -0.1105
 9798W        W26272   7.434  11.298   3.059  0.1627  0.0987 -0.2886
 9799W        W26273  15.942  18.745  13.886  0.1751 -0.2153 -0.0825
 9800W        W26274   9.558   0.870   4.908  0.2318 -0.2156 -0.0068
 9801W        W26275  15.671   2.838   2.596  0.2724 -0.0877 -0.2157
 9802W        W26276   5.362   7.759  11.593 -0.0733  0.1408  0.0165
 9803W        W26277   8.059   3.676   0.463  0.0383 -0.1479 -0.1295
 9804W        W26278  14.799  12.971  11.378  0.0369  0.2035  0.2718
 9805W        W26279   1.703  16.630   3.761  0.0971 -0.1560 -0.1482
 9806W        W26280   2.895  15.316  12.301 -0.1580  0.0039 -0.0529
 9807W        W26281  10.011  18.714   3.461  0.0349  0.1063 -0.0111
 9808W        W26282  10.493  15.179   2.233  0.1247  0.3243  0.0691
 9809W        W26283   2.306   8.450   3.000  0.2606 -0.0082 -0.0915
 9810W        W26284  11.248   2.787   2.579  0.1665  0.0582 -0.0025
 9811W        W26285  18.252   7.524  14.570 -0.2107  0.0672  0.0370
 9812W        W26286  16.634   4.999   3.465  0.3515 -0.3308 -0.0516
 9813W        W26287   0.993   5.196   3.442  0.1095 -0.0865 -0.0951
 9814W        W26288   4.268   2.946  13.198 -0.1420 -0.0897 -0.0796
 9815W        W26289   6.671  13.916   1.341  0.0201 -0.0522 -0.0857
 9816W        W26290   4.178   8.491   4.776  0.1118  0.0804  0.3007
 9817W        W26291  15.475  14.172  11.153 -0.1367 -0.0300 -0.0074
 9818W        W26292   2.208  16.909   3.914  0.0106 -0.0941 -0.3835
 9819W        W26293  13.806  17.570   2.042 -0.2077 -0.0893  0.0981
 9820W        W26294   6.183   7.236   9.530 -0.1629  0.0745  0.1705
 9821W        W26295   8.162   8.802  11.609 -0.0016  0.1842 -0.1257
 9822W        W26296   1.208   8.845   5.046 -0.0521  0.1362  0.2736
 9823W        W26297   9.651   5.865  10.130  0.0054 -0.0389 -0.2484
 9824W        W26298   1.363  12.463   4.346  0.1963  0.0358 -0.1384
 9825W        W26299   0.663   9.236  10.908 -0.1627 -0.1794 -0.1116
 9826W        W26300  15.607  15.431   4.063  0.1280  0.0927  0.0637
 9827W        W26301   9.565   7.835   1.292  0.1958 -0.0059  0.0501
 9828W        W26302   5.258  19.100   0.515 -0.1742 -0.0597 -0.2921
 9829W        W26303  16.649  12.575   5.246  0.7406 -0.1166  0.2067
 9830W        W26304   4.111   0.354   3.935 -0.2654  0.0311  0.0369
 9831W        W26305   6.280  15.640   0.724 -0.0044  0.1299 -0.3716
 9832W        W26306  18.535  15.712   4.793  0.0170 -0.2728 -0.0445
 9833W        W26307   7.475   0.621  14.641  0.0664  0.1505 -0.2542
 9834W        W26308  11.865  17.571  11.708 -0.1577  0.0040 -0.0709
 9835W        W26309  13.319   7.654   9.492  0.1968 -0.1688  0.1171
 9836W        W26310  14.511   5.108   2.182  0.0290 -0.2018  0.1241
 9837W        W26311   2.536  17.309  12.068 -0.1216  0.3716 -0.3437
 9838W        W26312   1.752   6.912   2.311 -0.2340  0.0618 -0.4483
 9839W        W26313  17.736  12.283   3.827  0.1039  0.2510  0.3694
 9840W        W26314  13.405   0.595  11.607 -0.0189  0.2976  0.1662
 9841W        W26315  13.138  14.673  14.832  0.1297 -0.2059 -0.1705
 9842W        W26316  12.715  17.619   2.398 -0.1618 -0.3482 -0.0463
 9843W        W26317   8.382   8.643  13.151 -0.0746  0.0354 -0.0658
 9844W        W26318  13.549   5.304   3.768  0.3601  0.2075 -0.0484
 9845W        W26319  15.360   8.558   1.024 -0.2040 -0.1450 -0.1232
 9846W        W26320  18.454  18.097   1.262 -0.1093 -0.0936  0.1721
 9847W        W26321   0.184   6.560   1.547  0.2695 -0.1180  0.3239
 9848W        W26322   2.718   7.609  12.989 -0.0380  0.1700  0.1147
 9849W        W26323   6.931  12.015  14.359 -0.0019  0.0583 -0.2291
 9850W        W26324   5.393   6.841   4.365  0.1010 -0.0368  0.2399
 9851W        W26325  10.336   8.964   1.426  0.1109 -0.0788  0.1678
 9852W        W26326  13.805  12.163  13.704 -0.1295  0.2967  0.0936
 9853W        W26327  11.731  14.166  14.562 -0.0627  0.0303  0.1376
 9854W        W26328  16.813  12.959   3.747  0.2153 -0.0684 -0.1482
 9855W        W26329   3.205   3.425  11.716 -0.1894  0.1099  0.0571
 9856W        W26330  11.808  17.526   3.980  0.1512  0.0441  0.0391
 9857W        W26331   9.688   5.026  13.107 -0.0058  0.2655  0.0556
 9858W        W26332   1.955  13.794   1.850 -0.0115  0.1833  0.1411
 9859W        W26333   9.524   2.481  10.443  0.0339 -0.3804  0.0273
 9860W        W26334  17.177  17.420  11.804  0.2340 -0.1208 -0.4676
 9861W        W26335   2.969   8.533  13.187  0.0364  0.0068 -0.2189
 9862W        W26336   9.336  19.323  14.851  0.3417  0.0247  0.1106
 9863W        W26337   5.669  16.100   1.429 -0.3628 -0.1891  0.0582
 9864W        W26338  13.988   7.702  10.917  0.1402 -0.1240  0.4419
 9865W        W26339  12.479   9.199  11.874 -0.4470  0.1490 -0.1594
 9866W        W26340   4.558   2.288  10.721  0.1478  0.1612  0.2108
 9867W        W26341  15.285  10.541  10.072 -0.1734  0.1987  0.0010
 9868W        W26342   9.747   2.612   3.379 -0.3361  0.2166  0.0403
 9869W        W26343  10.343   2.178   0.930  0.0675 -0.1384 -0.2443
 9870W        W26344   9.994   2.707  11.077 -0.1540  0.0569  0.0867
 9871W        W26345  16.741   5.565  11.888 -0.1506  0.0439 -0.2872
 9872W        W26346   8.817   9.920   3.810  0.1383 -0.1086  0.1273
 9873W        W26347   3.038  15.358  11.455  0.1728  0.1133 -0.1493
 9874W        W26348   5.090  12.473  10.986  0.2026 -0.1111  0.0348
 9875W        W26349   1.148   0.555  12.638  0.2480  0.1849 -0.0341
 9876W        W26350  11.173   4.989  13.974  0.1412  0.3089 -0.0725
 9877W        W26351  18.921  16.877   4.183 -0.1546  0.2977  0.1501
 9878W        W26352  11.055  12.948  13.094  0.2015  0.0385 -0.0125
 9879W        W26353  16.999   8.739   2.835  0.2543  0.4542 -0.1357
 9880W        W26354   1.701  16.126  12.687  0.0767  0.3135 -0.0353
 9881W        W26355  10.688   9.777   8.993  0.0495 -0.0495  0.1303
 9882W        W26356  16.868  12.448   3.739  0.2220 -0.1484  0.1323
 9883W        W26357   1.787  18.967   0.750  0.1437  0.0129 -0.0300
 9884W        W26358   5.373  12.931   0.619 -0.0963 -0.2637 -0.1315
 9885W        W26359   1.003   3.074   0.854 -0.0764  0.0549 -0.0221
 9886W        W26360  10.461  15.798   4.241  0.0323 -0.0702  0.1765
 9887W        W26361   7.792  13.413  14.500  0.1966 -0.1796  0.1599
 9888W        W26362  11.605   9.983  12.599  0.2227  0.2338 -0.1487
 9889W        W26363   8.230   0.764  12.919 -0.0608 -0.1815 -0.0861
 9890W        W26364  11.300  16.475  11.255  0.1678  0.3148  0.1586
 9891W        W26365   1.803  18.962   2.267 -0.1425  0.3760  0.2030
 9892W        W26366   2.593   2.197   4.111  0.2708  0.1811  0.4336
 9893W        W26367  11.349  16.878   5.137 -0.0461  0.1191  0.0343
 9894W        W26368   8.529  17.388  14.064  0.1513  0.0864  0.2791
 9895W        W26369  15.204  12.501  13.201  0.0680 -0.4434  0.0536
 9896W        W26370  13.143   7.419  10.774  0.1130 -0.0827 -0.0616
 9897W        W26371   3.046   3.868  12.846 -0.0174 -0.1069 -0.1130
 9898W        W26372   5.405   8.923  11.287  0.0664  0.0088  0.0362
 9899W        W26373   1.267   0.689   2.283 -0.1567 -0.1484  0.0605
 9900W        W26374   7.781  14.300  13.827  0.0154  0.0445  0.1821
 9901W        W26375   2.050  16.325  11.166 -0.2580  0.1748 -0.0242
 9902W        W26376  10.253   7.984   4.341 -0.0721 -0.4061  0.3803
 9903W        W26377   2.784  19.013   1.056  0.3244  0.0529  0.2798
 9904W        W26378  12.962   5.167  12.522  0.4246 -0.1201  0.3223
 9905W        W26379  16.174   0.352   0.224 -0.1851  0.0097 -0.1673
 9906W        W26380   2.809  12.674   5.368 -0.1763  0.1538 -0.1121
 9907W        W26381  16.399   3.043   3.150 -0.2842  0.0557  0.2957
 9908W        W26382   3.986   9.509  14.478 -0.0526  0.0356 -0.2218
 9909W        W26383  17.333   6.589   1.437  0.1228  0.3455  0.0556
 9910W        W26384   5.083  17.957  11.744  0.0698  0.3318  0.0624
 9911W        W26385   8.435  10.591   3.238  0.1383 -0.1136 -0.1024
 9912W        W26386  15.072   6.326  11.371 -0.0766 -0.2842 -0.1253
 9913W        W26387  14.498   9.622  12.059  0.0610 -0.0161 -0.1057
 9914W        W26388   1.045  16.501  13.958 -0.0751  0.0626 -0.0444
 9915W        W26389   5.183   3.912  13.599 -0.1545 -0.0833  0.4017
 9916W        W26390   4.901   4.487   1.008 -0.0186 -0.0427  0.4952
 9917W        W26391  18.637   9.285   1.051 -0.1337  0.0196  0.2020
 9918W        W26392  13.200  11.606   3.755 -0.0070 -0.0096  0.0204
 9919W        W26393   8.159  17.610   2.698  0.1383 -0.0995  0.4486
 9920W        W26394   9.885  12.024   2.590  0.0989 -0.0713  0.0835
 9921W        W26395   7.534   1.018  11.275 -0.0993  0.0540  0.0174
 9922W        W26396   0.033   6.154   0.347 -0.2493  0.1850  0.0548
 9923W        W26397  10.082  10.765   0.600 -0.2712 -0.0527 -0.1204
 9924W        W26398  14.618   5.668   2.490 -0.2051  0.1137  0.1489
 9925W        W26399  16.058  16.763   2.582 -0.1185  0.1810  0.0339
 9926W        W26400  16.865  11.527  12.169  0.2442 -0.1695 -0.1874
 9927W        W26401  13.264  15.122   2.838 -0.1362 -0.1232  0.0599
 9928W        W26402   0.556  11.942   3.424 -0.0795  0.2731 -0.3957
 9929W        W26403   1.441   3.672   3.911 -0.0324  0.0278  0.2149
 9930W        W26404   1.790   1.681  13.183 -0.0049  0.1421 -0.0879
 9931W        W26405  14.823   5.225  10.704 -0.2215  0.0412 -0.0865
 9932W        W26406   3.545   7.681   0.360  0.1085 -0.0345  0.2853
 9933W        W26407   4.129   2.651  12.605 -0.5536  0.0732 -0.2487
 9934W        W26408  10.473  17.458   0.791  0.3555 -0.1919  0.0287
 9935W        W26409   1.496  10.997  14.406 -0.0117 -0.0528 -0.1077
 9936W        W26410   2.025  13.483   1.475 -0.1350  0.2667 -0.0313
 9937W        W26411   1.455  18.023  12.493  0.0460 -0.2737  0.1029
 9938W        W26412  10.663   8.894  11.617 -0.3266 -0.1004  0.1035
 9939W        W26413   3.594   2.062  10.917  0.0141 -0.0503 -0.0711
 9940W        W26414   2.364  11.860   6.070 -0.2800 -0.1241 -0.1164
 9941W        W26415  13.460   6.925  12.536  0.2154  0.1640 -0.1305
 9942W        W26416   7.858  11.465   1.925 -0.0484 -0.0250  0.2001
 9943W        W26417   6.410   5.959   2.562 -0.0177 -0.1079  0.0201
 9944W        W26418   1.199   8.031  12.432 -0.0728  0.2779 -0.1738
 9945W        W26419   2.268  19.074   4.824  0.0915  0.2122 -0.0171
 9946W        W26420   3.877   1.444  14.538  0.3868 -0.2795 -0.2257
 9947W        W26421  19.144  10.090  12.988  0.1514  0.0471 -0.1119
 9948W        W26422   2.563   5.077  13.817  0.1472  0.0631  0.0672
 9949W        W26423   3.347   0.892   1.143 -0.2543  0.1639 -0.0437
 9950W        W26424   8.918  18.547   2.255 -0.2697  0.0252 -0.0297
 9951W        W26425  12.710  10.472  12.973 -0.4763 -0.1213  0.0875
 9952W        W26426   7.547  12.048  12.015 -0.1658  0.0197  0.0591
 9953W        W26427  17.189   2.157  12.271 -0.3267 -0.0597  0.0675
 9954W        W26428   5.024   5.339   2.631  0.1362  0.0558 -0.0033
 9955W        W26429   1.235  18.966   4.871 -0.2154 -0.3345  0.1785
 9956W        W26430  19.256  16.924  13.820  0.1965  0.2987  0.2798
 9957W        W26431  17.908   8.754   1.728 -0.0355  0.3048 -0.4044
 9958W        W26432   3.161  14.202  11.122 -0.0253 -0.1503  0.0690
 9959W        W26433  16.501  16.251   1.742  0.0057 -0.1320 -0.0925
 9960W        W26434  17.252   8.302  13.054 -0.0670  0.1539  0.3055
 9961W        W26435  14.461  14.732   1.315  0.3321  0.0508  0.0856
 9962W        W26436  11.060   4.733   5.023 -0.0447  0.0144  0.1515
 9963W        W26437   9.861   0.356   1.099  0.1432 -0.1589 -0.1469
 9964W        W26438   5.457  16.570   2.289  0.2535  0.0281  0.0437
 9965W        W26439  16.142   0.711   0.830  0.0907 -0.2554 -0.0813
 9966W        W26440  13.628  14.764  14.291  0.0351 -0.2666 -0.1586
 9967W        W26441  18.676  17.928   0.787 -0.0017  0.1527  0.3208
 9968W        W26442  12.191   3.844  12.973 -0.2118  0.1863  0.0247
 9969W        W26443   5.358  11.750   3.667  0.1792 -0.0113  0.3078
 9970W        W26444   1.041  15.954   1.636  0.1372 -0.0502 -0.0210
 9971W        W26445  19.334  12.046  12.804 -0.0755 -0.0854 -0.3093
 9972W        W26446   7.278  16.343   1.654 -0.2881 -0.1903 -0.3608
 9973W        W26447  12.991   3.566  12.570 -0.0143  0.0633  0.1294
 9974W        W26448  19.222  18.709  12.709 -0.3209 -0.3273 -0.1521
 9975W        W26449  14.310  17.375  13.760  0.0874  0.1345  0.0497
 9976W        W26450   6.785   1.171   2.117  0.2360 -0.3610 -0.0163
 9977W        W26451  15.169  15.311   9.649  0.1476  0.1509 -0.1189
 9978W        W26452  15.473   5.730  11.876  0.0325 -0.1182  0.0402
 9979W        W26453  10.853  15.522   1.973 -0.0842 -0.1873  0.0545
 9980W        W26454   5.343  10.838   1.018  0.1201  0.1163 -0.3247
 9981W        W26455   8.142  17.120  13.169  0.1841  0.1597 -0.1656
 9982W        W26456  11.152   3.853  13.948 -0.2436 -0.2062 -0.2937
 9983W        W26457   6.060   7.415   5.000  0.0605 -0.1849  0.2752
 9984W        W26458  14.645   5.493   4.495  0.1278 -0.2412  0.2018
 9985W        W26459  12.173   2.058   2.198  0.1354  0.1934 -0.2321
 9986W        W26460   1.020  10.463   5.294  0.0337  0.2689 -0.0097
 9987W        W26461  15.540   6.166  12.833 -0.1962  0.1097 -0.1563
 9988W        W26462  17.347  10.543  10.832  0.0452 -0.0144 -0.4481
 9989W        W26463   3.181   7.734  10.029 -0.4416  0.1471  0.4848
 9990W        W26464  11.994   1.235  14.298 -0.0255 -0.0170  0.2266
 9991W        W26465  12.277  18.661   1.499 -0.2445 -0.2617 -0.2285
 9992W        W26466   1.901   1.475   2.385 -0.3735  0.0047 -0.0190
 9993W        W26467   5.412   6.834   1.024  0.2088 -0.0747  0.1771
 9994W        W26468   1.121   4.107  11.112  0.0602  0.1933  0.0904
 9995W        W26469   7.302   6.928   4.329  0.0841  0.1403 -0.2428
 9996W        W26470   2.429  12.442   0.376 -0.0977 -0.3583  0.1429
 9997W        W26471   8.622  15.407  13.280  0.0542 -0.0287 -0.3255
 9998W        W26472  14.019   5.427   3.996  0.3543 -0.0720 -0.1635
 9999W        W26473   9.846  13.847  10.925 -0.0541  0.0689 -0.0992
10000W        W26474   7.477   2.629   0.721 -0.2240 -0.0685  0.3351
10001W        W26475   3.069   2.315  12.038  0.0585  0.1402  0.0288
10002W        W26476  18.998  16.770  14.726 -0.2193 -0.1194 -0.1825
10003W        W26477  11.555   8.782   4.027  0.3498 -0.0606  0.1628
10004W        W26478   6.786   6.241   2.675 -0.2924 -0.0932  0.1150
10005W        W26479  17.067  15.907  14.261 -0.1633  0.2799  0.0939
10006W        W26480  16.946   9.374  11.605 -0.0422  0.0449 -0.1716
10007W        W26481   0.953  16.367   2.630 -0.2429  0.0718 -0.3097
10008W        W26482   8.275  13.169   1.036 -0.1369 -0.0096 -0.1517
10009W        W26483   2.475  13.208  13.613  0.0757  0.2171  0.3354
10010W        W26484  18.173  10.236  11.481 -0.2347  0.2630 -0.0300
10011W        W26485   0.160   2.333  12.094 -0.2397 -0.1991  0.0265
10012W        W26486  10.730   2.331   2.506  0.0507 -0.1787  0.0107
10013W        W26487   9.369   2.610  13.733 -0.5148  0.0425  0.0705
10014W        W26488   9.457   1.603  11.631  0.1237  0.1172 -0.0237
10015W        W26489  10.377  11.920  10.883 -0.1623 -0.4305 -0.0349
10016W        W26490  17.753  11.748   4.581 -0.1493  0.0896 -0.1525
10017W        W26491   8.028  16.701   3.698  0.0996  0.1438  0.2166
10018W        W26492  15.294   9.513  11.872 -0.1298 -0.0952 -0.0933
10019W        W26493   1.907  18.791  10.529 -0.4059 -0.0333 -0.1783
10020W        W26494  12.551  14.883   3.751  0.2333  0.0905 -0.0700
10021W        W26495  16.752  10.405   1.947 -0.0725 -0.3959  0.2455
10022W        W26496  18.916   9.821   2.018 -0.1603  0.3717 -0.1232
10023W        W26497  19.143   3.127   2.579  0.0818 -0.0747 -0.1227
10024W        W26498  13.806   0.459  13.448 -0.0116  0.2864 -0.2273
10025W        W26499  13.888  15.698   1.271  0.0204  0.1151  0.2074
10026W        W26500   6.873   6.557  12.929  0.0607 -0.0457  0.1005
10027W        W26501   7.339   0.832  12.273 -0.1351 -0.1238  0.1588
10028W        W26502   8.228  10.283  12.146  0.2445 -0.0178 -0.1177
10029W        W26503  17.395  18.193   2.766 -0.1952  0.0113  0.0267
10030W        W26504   6.559  17.093  10.836 -0.1159 -0.1057  0.2085
10031W        W26505   4.135  12.064  13.765  0.0498  0.3747  0.2155
10032W        W26506   2.300   6.337  12.943  0.1280 -0.2778  0.2122
10033W        W26507   8.186   2.816  13.665  0.1423 -0.1994 -0.1179
10034W        W26508  16.736  10.027  14.058 -0.1109  0.1887 -0.1033
10035W        W26509   1.189   6.976   3.611  0.0408  0.1896  0.1499
10036W        W26510   8.363   6.270   9.627 -0.0367 -0.0534  0.2152
10037W        W26511   3.700   9.802   3.575 -0.0232 -0.1436 -0.2265
10038W        W26512   7.235  17.563  10.383  0.0868 -0.1212  0.0301
10039W        W26513   7.252   4.684  10.009  0.1349 -0.0498 -0.0339
10040W        W26514  16.547   7.818  12.882  0.0847 -0.4295  0.1357
10041W        W26515  12.576   8.437  13.470 -0.0113 -0.1092 -0.0118
10042W        W26516   2.071  12.204  12.841 -0.4086  0.1689  0.1061
10043W        W26517  15.245   7.848  10.298  0.1024  0.0798  0.0798
10044W        W26518  15.943   8.006  11.752 -0.2090  0.3876  0.3232
10045W        W26519  19.078   8.385   2.383  0.0039 -0.2889  0.1057
10046W        W26520  15.218   9.360  12.708 -0.2670  0.1834 -0.1299
10047W        W26521   7.377   3.361  13.958 -0.0122  0.3874 -0.0515
10048W        W26522   0.916   7.692  11.720 -0.0125 -0.0495 -0.2253
10049W        W26523  11.371  15.245   2.790  0.1918 -0.0216  0.0153
10050W        W26524  15.298  18.856   3.983  0.1839  0.1140 -0.0965
10051W        W26525   5.141   8.861  13.193  0.3844 -0.0559  0.1491
10052W        W26526  13.950  16.359  13.751  0.0765 -0.2195 -0.0135
10053W        W26527   8.719  18.230   1.822  0.2526  0.0743 -0.0571
10054W        W26528  18.856  17.733  11.597 -0.2842  0.3915 -0.0036
10055W        W26529   0.032   4.090  11.403  0.3961  0.1463 -0.1454
10056W        W26530  16.008  10.454   4.727  0.2652  0.1305  0.1667
10057W        W26531   7.745  11.210  14.339 -0.2245  0.2991  0.1444
10058W        W26532   7.054  15.306  11.863  0.0425  0.0486 -0.1859
10059W        W26533   7.592  14.345   1.473 -0.3124 -0.0430  0.4190
10060W        W26534  10.081  16.233   4.505  0.0218 -0.2270 -0.0129
10061W        W26535  18.281   7.384  10.619  0.4479 -0.0554  0.2052
10062W        W26536  10.128   4.072  13.021 -0.2008  0.7178 -0.1309
10063W        W26537  18.505  17.160  12.698  0.1240  0.2580  0.3956
10064W        W26538  14.515  10.975   0.491  0.1002 -0.0644 -0.0529
10065W        W26539  16.233   3.063   2.525  0.0256  0.0291 -0.2477
10066W        W26540  16.767   1.747  14.669  0.2780  0.1435  0.0845
10067W        W26541   1.107   2.157   4.909  0.1124  0.1942  0.1262
10068W        W26542   7.224   5.143   1.425 -0.1597  0.2446 -0.2647
10069W        W26543  14.773   2.053  13.723  0.0594 -0.3939 -0.1009
10070W        W26544  10.219   3.081   9.951 -0.0317  0.1404 -0.1088
10071W        W26545  12.047   1.552  12.095  0.0756 -0.1986 -0.0243
10072W        W26546   3.802   7.340  13.575  0.1484 -0.0636 -0.0421
10073W        W26547   4.738   0.441   2.248 -0.1172 -0.0082 -0.2030
10074W        W26548  18.479   4.632   3.583  0.3196  0.0297  0.1163
10075W        W26549   4.269  12.202  11.236  0.2243 -0.3635  0.0909
10076W        W26550   6.512  10.331   2.661 -0.0796 -0.3180 -0.2132
10077W        W26551   3.608  10.100   2.538 -0.0258 -0.4898  0.1383
10078W        W26552  13.484   7.427  13.362 -0.2308 -0.0360 -0.1456
10079W        W26553  11.833   2.156   3.434 -0.0268  0.1285  0.2200
10080W        W26554  15.080  13.796   3.326 -0.0196  0.2457 -0.0470
10081W        W26555   8.097  12.361  11.694 -0.1324  0.0854 -0.1451
10082W        W26556  12.752   5.534  11.373 -0.0598 -0.0038  0.0486
10083W        W26557   8.274  16.195  12.653 -0.0374  0.1060 -0.3021
10084W        W26558   2.951  10.485   2.144 -0.1935 -0.0464 -0.2747
10085W        W26559  13.463   5.436   0.518 -0.3102  0.2365 -0.3251
10086W        W26560   9.932  18.422  11.695 -0.1945  0.1134  0.0937
10087W        W26561  17.915  15.924   3.042  0.3039 -0.5276 -0.1642
10088W        W26562   6.623   6.362  11.169  0.3289 -0.2762  0.2584
10089W        W26563  12.745   2.219   5.187  0.1930 -0.0315  0.0367
10090W        W26564   2.944  14.967   4.711  0.3735  0.0437 -0.0472
10091W        W26565  12.115  15.721  12.064  0.0371 -0.1222  0.1006
10092W        W26566  16.292   9.027  12.367 -0.0198  0.1158  0.0183
10093W        W26567  17.796   8.296   1.499  0.0854 -0.2355  0.1817
10094W        W26568  15.199  13.110   0.456  0.1598  0.2990  0.1367
10095W        W26569   1.615   8.928   0.684  0.2310 -0.3254 -0.4132
10096W        W26570  18.110   7.037   5.635 -0.1017  0.2602 -0.0021
10097W        W26571  15.490  11.219   0.289 -0.0268  0.2963 -0.2796
10098W        W26572   4.377  13.089   0.253 -0.0721 -0.2742  0.1999
10099W        W26573   2.563   5.183  14.338  0.0615 -0.0350 -0.0119
10100W        W26574  10.417   2.013   1.902 -0.1711 -0.0082 -0.2035
10101W        W26575  10.836   4.942  13.074  0.1683 -0.0781 -0.3726
10102W        W26576   2.937   0.731   3.278  0.0413 -0.1101  0.1181
10103W        W26577   2.647  12.452  11.133 -0.1758 -0.1892  0.0460
10104W        W26578   9.155   5.931  12.238  0.0190 -0.1259  0.3970
10105W        W26579   6.041  14.460  12.776 -0.0371 -0.2375 -0.0465
10106W        W26580   2.712  18.805  11.280 -0.0778  0.0560  0.0706
10107W        W26581  16.616  12.869   2.838 -0.0985  0.2012  0.0358
10108W        W26582  18.148  14.290   0.777 -0.0391 -0.1301 -0.0425
10109W        W26583  14.876   2.984   1.853  0.0009  0.1020  0.1862
10110W        W26584  10.965  12.284   3.445 -0.1017 -0.0880 -0.0513
10111W        W26585  15.935  12.937   2.339  0.1645 -0.1290 -0.0730
10112W        W26586  11.223  17.308   0.409  0.1808 -0.1219  0.0698
10113W        W26587   2.773  16.027   4.477  0.4769  0.3927  0.1262
10114W        W26588  16.727   8.114  10.385 -0.1513  0.2737 -0.1488
10115W        W26589  17.768   8.532   2.492  0.0807 -0.1331 -0.0769
10116W        W26590   7.490   6.339   9.807 -0.1780  0.1464  0.1375
10117W        W26591  17.090   2.000  14.083  0.0440 -0.3378  0.2863
10118W        W26592   2.588  18.645  14.096  0.2147  0.0027  0.5749
10119W        W26593  13.259   9.219   3.827  0.2429  0.1205  0.0783
10120W        W26594   0.530  13.280  14.780  0.0497  0.0219 -0.1091
10121W        W26595   3.633   5.413  12.239  0.1192 -0.1544  0.1333
10122W        W26596   2.387  17.852   5.639 -0.2226 -0.0106  0.1600
10123W        W26597   1.127   1.757   0.803  0.2405  0.1571 -0.0520
10124W        W26598  19.004  10.841  14.701  0.2001 -0.0926  0.2318
10125W        W26599   4.281   3.525   2.595  0.0324  0.2540  0.3567
10126W        W26600  15.810  13.855  13.467  0.1278 -0.1329  0.2224
10127W        W26601   2.806   9.248  12.280 -0.1502 -0.1744 -0.0037
10128W        W26602  16.491   1.243   0.056 -0.0200  0.0091 -0.0302
10129W        W26603   7.732   5.654  10.832  0.4061 -0.2390 -0.1961
10130W        W26604   1.707   9.690   3.811 -0.2352 -0.2557 -0.3382
10131W        W26605   1.546   7.181   4.619 -0.0775 -0.2496 -0.0507
10132W        W26606  18.457  19.030   4.604  0.0594  0.2149 -0.2714
10133W        W26607   5.325  18.028   2.552  0.1397 -0.0759  0.0534
10134W        W26608   2.599   4.720  11.550 -0.0960 -0.0340  0.0349
10135W        W26609  15.655   4.812  12.476  0.0680 -0.1125  0.1779
10136W        W26610   8.831  15.235   3.111  0.3884  0.1018 -0.1373
10137W        W26611   5.722  10.427  11.156 -0.1222  0.1210  0.3187
10138W        W26612   6.726  12.673   4.129  0.2103 -0.0611  0.0327
10139W        W26613   8.528   0.879  10.138 -0.0066  0.0518 -0.1381
10140W        W26614   1.497  18.519  10.284 -0.0809 -0.1512  0.0522
10141W        W26615   7.142  13.653   1.510  0.2436 -0.0043 -0.1107
10142W        W26616  18.369  12.639  14.566  0.0760 -0.2173 -0.3513
10143W        W26617   6.902   5.827  14.284  0.0546 -0.1810  0.0986
10144W        W26618   5.938   0.493   3.776 -0.1375 -0.2055  0.0745
10145W        W26619  16.817  15.255  13.954 -0.2483 -0.0545 -0.2013
10146W        W26620   9.064   0.558   2.367 -0.1918 -0.1437 -0.0604
10147W        W26621  18.287   2.170   1.956  0.0235  0.1080 -0.0846
10148W        W26622   8.636   2.058   0.309  0.2201  0.1396  0.0120
10149W        W26623   3.733  14.501   2.229  0.2018 -0.0976  0.0190
10150W        W26624   2.130  13.439  14.582  0.1797  0.1188  0.1381
10151W        W26625   6.357  12.222   3.252 -0.1968  0.1099  0.0562
10152W        W26626  16.826   4.288  13.673 -0.2560 -0.2170 -0.0583
10153W        W26627   5.475  12.009  13.755 -0.2302  0.0738 -0.0572
10154W        W26628   0.660  15.675  11.911 -0.3749  0.1554  0.2729
10155W        W26629  19.322   0.044   2.390  0.4748 -0.0768  0.1070
10156W        W26630   8.863   0.374   1.959 -0.0519 -0.0867  0.1784
10157W        W26631  16.375   1.261   4.046 -0.1128 -0.1242 -0.2952
10158W        W26632   1.907   5.721  10.609 -0.1974  0.0727  0.1189
10159W        W26633   4.432   1.817  13.814 -0.0132 -0.0909 -0.3604
10160W        W26634  10.478   4.889   2.920  0.2190 -0.2565 -0.2890
10161W        W26635  16.069   8.731   0.425  0.3024  0.0280 -0.3389
10162W        W26636   1.159  10.402  10.848 -0.1476 -0.0212  0.2941
10163W        W26637   2.615   9.557  10.567 -0.0920  0.0863 -0.0007
10164W        W26638  11.943   0.909  13.802  0.0724  0.0542 -0.2257
10165W        W26639  10.359   6.937   1.823 -0.1447 -0.1482  0.0676
10166W        W26640  10.993  17.054   3.569  0.0490  0.3073  0.0723
10167W        W26641  16.358  13.567   0.874  0.1196  0.1675  0.0860
10168W        W26642   9.981   3.621   2.539  0.4474  0.1447 -0.3597
10169W        W26643  13.628  14.677   1.209  0.0167  0.2910 -0.4370
10170W        W26644  16.438  14.363  14.776 -0.0312  0.2147  0.0516
10171W        W26645   9.483   4.532  10.451 -0.1382 -0.1624 -0.0054
10172W        W26646  16.729   0.554   1.912 -0.1160 -0.0478 -0.2688
10173W        W26647  12.314  15.013  13.452  0.0060  0.0597  0.0104
10174W        W26648   8.438   3.563  12.950  0.3594 -0.2733 -0.1153
10175W        W26649   0.701  10.483  14.064  0.0216  0.2385  0.0205
10176W        W26650  17.345   9.864  14.117 -0.0831  0.2753 -0.1477
10177W        W26651  13.663  10.502   3.582  0.0968  0.2423 -0.2900
10178W        W26652  12.545  12.235  11.634 -0.2256 -0.4480  0.0278
10179W        W26653   1.469   1.284   4.104 -0.0153  0.0229  0.2805
10180W        W26654  12.760  16.011  13.320 -0.1068 -0.1075  0.0477
10181W        W26655  14.946   5.796  10.654 -0.0669 -0.2838 -0.1415
10182W        W26656  14.842  14.722  11.790 -0.2446 -0.0736 -0.0482
10183W        W26657  14.232  17.692  13.253  0.0808 -0.0140  0.3458
10184W        W26658  15.732   3.532   3.729 -0.0280  0.0163  0.1394
10185W        W26659  17.989   6.459  13.644 -0.0649 -0.0709 -0.1569
10186W        W26660  11.364  13.951   4.360 -0.1521  0.2581  0.0618
10187W        W26661  15.244  10.218  10.510  0.0697 -0.0023  0.0135
10188W        W26662   7.378  17.428   0.777 -0.2115  0.1800  0.4123
10189W        W26663   1.375   1.469   5.371  0.1579  0.1270  0.1311
10190W        W26664  17.526  14.778  12.555 -0.0782 -0.1298  0.1204
10191W        W26665   4.423   2.653   4.414  0.2208  0.0765  0.2920
10192W        W26666  15.419  12.150   0.211  0.2265  0.2168 -0.2928
10193W        W26667   6.859  12.198   3.067  0.3293 -0.0597 -0.1384
10194W        W26668  15.213   6.293   1.418  0.0653 -0.0372 -0.0918
10195W        W26669  13.055   1.236  11.014 -0.2336 -0.1040  0.0232
10196W        W26670  14.057   5.485  10.869 -0.3042 -0.0942  0.2179
10197W        W26671  15.441  17.398   4.258 -0.0896 -0.0444  0.0699
10198W        W26672  12.222  10.595  14.716  0.0727  0.0146 -0.0815
10199W        W26673   3.568   9.805   5.033 -0.1046  0.3740  0.2201
10200W        W26674   1.460  16.918   0.460  0.2754 -0.0638  0.4726
10201W        W26675  17.194   4.252   3.371  0.1752 -0.1597  0.2484
10202W        W26676  17.122  10.652   0.476 -0.2715 -0.0247  0.2291
10203W        W26677   9.814  11.481   1.600  0.0386  0.2809 -0.1436
10204W        W26678  10.839  10.414  12.906  0.3706  0.1500  0.0603
10205W        W26679   8.179  13.478  13.351  0.0690  0.0582  0.1585
10206W        W26680   8.578   4.153  14.765  0.1398 -0.0980  0.1004
10207W        W26681   1.004   4.001   2.749 -0.0351  0.1088 -0.2041
10208W        W26682   5.892  11.153   9.546  0.0338 -0.0820 -0.2566
10209W        W26683  14.161  15.742  13.384 -0.0341  0.0263  0.4086
10210W        W26684  15.347   6.677   4.478  0.0119 -0.0340 -0.0373
10211W        W26685   7.392   8.518  13.835  0.1441  0.0799  0.4272
10212W        W26686   5.460  15.142   1.956  0.1167 -0.1208 -0.0507
10213W        W26687  13.731   9.135  14.319 -0.0367  0.3285 -0.0937
10214W        W26688  12.832  12.292   4.137  0.1020 -0.1427  0.1629
10215W        W26689  12.733   6.350   2.845  0.1205  0.2007 -0.1883
10216W        W26690   2.174   3.727   1.988 -0.1960 -0.2762 -0.1211
10217W        W26691   3.440   8.317  12.446  0.0315  0.2079  0.2050
10218W        W26692  17.474   6.882  13.718 -0.0290  0.3092 -0.1417
10219W        W26693  15.252  19.301  14.271 -0.0110  0.0614  0.1853
10220W        W26694  18.663   9.170  11.290  0.2513  0.0792 -0.0913
10221W        W26695  17.356   2.211  13.590  0.0242 -0.0479  0.1210
10222W        W26696   6.458   1.760  13.976  0.1151  0.0522  0.0524
10223W        W26697   1.837   9.773  14.760 -0.1652 -0.1397 -0.0290
10224W        W26698   0.124   7.064  10.805  0.1862  0.2415  0.0018
10225W        W26699  16.034   4.420   0.435 -0.0805  0.0105  0.1030
10226W        W26700   5.173   5.261   4.464 -0.1288  0.0020 -0.2342
10227W        W26701  10.198  14.009  13.324 -0.3643  0.0738  0.2327
10228W        W26702  16.255   1.143   5.220 -0.0384  0.0810  0.1994
10229W        W26703  17.133  12.631  10.768  0.0877  0.2275  0.2060
10230W        W26704   3.764   2.228  13.464  0.1355  0.0313 -0.0602
10231W        W26705  10.302   4.611   1.684  0.2608  0.2720 -0.1625
10232W        W26706   4.224  18.705   0.350 -0.0939 -0.2019 -0.1845
10233W        W26707  19.004  14.548   3.337 -0.0879  0.0405  0.0574
10234W        W26708  14.839   4.843  14.438 -0.0913 -0.0761 -0.2147
10235W        W26709  15.775   7.240   1.245 -0.0088 -0.0052  0.1312
10236W        W26710   3.825  15.225   4.940  0.1676  0.0785 -0.2453
10237W        W26711  16.497  16.797   3.608  0.1137 -0.2003  0.0486
10238W        W26712   9.397  18.587  12.267  0.2905 -0.2403 -0.3776
10239W        W26713  18.086   7.698   0.139 -0.2404 -0.3473  0.3010
10240W        W26714  15.685   3.257  13.532 -0.2586  0.0314 -0.0373
10241W        W26715   1.666  16.100   1.423 -0.0370 -0.1011 -0.2175
10242W        W26716  11.276  13.704   2.307 -0.2457  0.1228 -0.2302
10243W        W26717   1.233   6.191  13.085  0.2801 -0.2385  0.2214
10244W        W26718  16.958  17.550   5.379 -0.1605 -0.0698  0.0854
10245W        W26719  15.313  17.375  12.967 -0.0200  0.2240 -0.1730
10246W        W26720   3.180  12.694   0.884 -0.1803 -0.2067 -0.0206
10247W        W26721  10.797  14.291  11.032  0.2304 -0.1366 -0.2715
10248W        W26722   5.318  19.028  14.888  0.0928  0.0944 -0.0071
10249W        W26723  18.940   8.032   2.093  0.2961 -0.2817 -0.0792
10250W        W26724  11.873  14.093   4.323  0.1764  0.5718 -0.1922
10251W        W26725   3.912   5.734  10.377 -0.0951 -0.0778 -0.1629
10252W        W26726   5.860  16.222  12.981 -0.0771 -0.1619 -0.0866
10253W        W26727   7.315   3.211  10.767  0.0449 -0.4290 -0.0876
10254W        W26728   7.284   8.327  11.271 -0.2831  0.0490 -0.3030
10255W        W26729   0.354   0.714  11.722  0.1220 -0.0504  0.2133
10256W        W26730   1.367   7.481   2.481 -0.3322 -0.0033  0.0258
10257W        W26731  18.628  11.930   0.238 -0.0904  0.3199  0.1026
10258W        W26732   5.231  10.921   3.121 -0.0754 -0.0019 -0.0035
10259W        W26733   6.844  14.504   1.999 -0.2139 -0.0237  0.1622
10260W        W26734   2.210   2.225   3.268 -0.0727 -0.1312  0.1256
10261W        W26735   7.534   1.267   0.868 -0.0676  0.3922 -0.0145
10262W        W26736  15.726   3.396  12.861 -0.0170 -0.0608  0.1521
10263W        W26737  16.778  12.286   1.206  0.0815  0.0954 -0.0468
10264W        W26738  18.391   3.943  10.649 -0.2083  0.2199 -0.2107
10265W        W26739  12.894   2.727  13.340  0.0568  0.1933 -0.1463
10266W        W26740   5.201  10.789   3.837  0.0515 -0.0184 -0.4385
10267W        W26741  11.001  10.856   4.627  0.0578 -0.0570 -0.1771
10268W        W26742   8.138  17.507  13.591  0.2114 -0.1675 -0.3006
10269W        W26743  12.238   7.669  14.651  0.2053  0.1783 -0.0914
10270W        W26744   6.938  12.763   3.189 -0.0959  0.2641  0.3332
10271W        W26745  10.844   1.934   2.775 -0.1468 -0.0255  0.2230
10272W        W26746   1.306  10.836   3.068  0.1351  0.0928  0.1548
10273W        W26747   1.287   0.342   1.368 -0.1160 -0.1688  0.3390
10274W        W26748  13.389  14.554  13.067  0.1062  0.3650  0.0762
10275W        W26749   8.986  10.660   2.360 -0.0061 -0.2589  0.3418
10276W        W26750   5.733  10.463  14.585 -0.0668  0.3914  0.1081
10277W        W26751   9.194   4.812   3.689  0.1507 -0.1772  0.0105
10278W        W26752  12.219   4.050   3.665 -0.0350 -0.1414  0.2479
10279W        W26753  14.829   6.871  13.852  0.2311 -0.3005  0.2363
10280W        W26754  13.740   4.871   1.050 -0.0282  0.1773  0.1074
10281W        W26755   3.808   6.363  13.767 -0.2350  0.1414 -0.3455
10282W        W26756  18.051  16.377   3.496  0.2514 -0.1105 -0.3271
10283W        W26757  11.022  14.249   1.739 -0.0875 -0.1358 -0.3550
10284W        W26758   8.137  13.657   3.753 -0.0341  0.1277 -0.2816
10285W        W26759   6.836   3.823   3.919  0.3697  0.3198 -0.0213
10286W        W26760  10.088   7.407  10.048  0.1662  0.2251 -0.0302
10287W        W26761  13.626  17.202  13.434  0.0139  0.3484  0.0148
10288W        W26762   2.599  12.245  11.592 -0.1995 -0.2048  0.1526
10289W        W26763  13.337  10.629   1.144 -0.0021  0.3046  0.2343
10290W        W26764   2.071   2.142  13.592  0.0032  0.1905  0.0181
10291W        W26765  12.188   5.307   2.349 -0.0134  0.1841 -0.1312
10292W        W26766  14.251  18.445  12.083  0.0741  0.0505 -0.0192
10293W        W26767   0.064  17.429   3.668 -0.1958 -0.0051  0.0556
10294W        W26768  11.500  14.121   2.115 -0.4793 -0.2659  0.0365
10295W        W26769  14.376   0.927  12.200 -0.3828  0.0029 -0.1892
10296W        W26770  11.246  18.866  14.729  0.3188 -0.2488 -0.1102
10297W        W26771  12.227   0.313  10.764  0.2451 -0.1039 -0.1699
10298W        W26772   5.660   1.758   8.826 -0.0859  0.0432  0.0758
10299W        W26773  15.897   4.725  11.203 -0.0484  0.0484  0.0125
10300W        W26774  10.034  19.222   2.586 -0.1579  0.1636 -0.1961
10301W        W26775  15.218   7.092   2.652 -0.0358  0.2522  0.0132
10302W        W26776   5.495   2.776  12.951 -0.1670 -0.0067  0.0950
10303W        W26777  17.916  14.407  13.867 -0.0526  0.0449 -0.1770
10304W        W26778  18.359  16.634   1.912  0.1654 -0.3533 -0.3263
10305W        W26779   6.835  17.833   4.828  0.1235 -0.1488 -0.3544
10306W        W26780  10.096   6.226  14.600  0.0433 -0.2797  0.1233
10307W        W26781  15.913  12.546  11.187  0.0050  0.1346  0.2251
10308W        W26782   1.811  15.847   4.920  0.0364 -0.0814 -0.1509
10309W        W26783  18.733  14.989   0.814  0.0517  0.1558  0.1502
10310W        W26784  15.295  11.600  11.673 -0.1335 -0.5157 -0.0971
10311W        W26785   2.245   7.604   4.127  0.0996  0.0301  0.2082
10312W        W26786   8.557  13.896   3.607  0.0019  0.0593 -0.1698
10313W        W26787   7.292   2.355   9.987  0.3277  0.0420 -0.0275
10314W        W26788  18.142   0.478   0.305  0.1094 -0.0821 -0.2789
10315W        W26789   8.725   5.233   9.498  0.1945 -0.1122  0.0321
10316W        W26790   5.786  14.737   2.713  0.2461 -0.0986  0.0983
10317W        W26791  18.947  15.886   4.026  0.0772 -0.0744  0.0647
10318W        W26792  16.148   8.699  13.409  0.1484 -0.1681 -0.4515
10319W        W26793   2.213  12.787   0.606 -0.3002  0.0670 -0.3051
10320W        W26794  15.341   3.522   4.070 -0.1833  0.2707 -0.1485
10321W        W26795   3.247  11.610  10.437  0.1607 -0.0137  0.0383
10322W        W26796  15.750  17.808  11.274  0.2764  0.0117  0.3946
10323W        W26797  16.672   2.946  10.658  0.3029 -0.0225  0.0359
10324W        W26798   0.005  15.233  10.983  0.1126 -0.2709 -0.2311
10325W        W26799  11.540   6.494   0.368 -0.2376  0.2065  0.1194
10326W        W26800  14.607   7.987  12.068  0.1049  0.0643  0.0895
10327W        W26801  17.898  18.267  12.652 -0.0811 -0.1336  0.0755
10328W        W26802   9.265  17.289  13.595 -0.4153  0.3405 -0.0722
10329W        W26803   5.767   0.023  13.254 -0.0889 -0.1245  0.3380
10330W        W26804   6.277   5.417  10.558 -0.2377 -0.0313  0.2069
10331W        W26805   1.796  15.074   2.694 -0.1196  0.2195 -0.1978
10332W        W26806  13.300  15.946  11.512  0.1455 -0.0992  0.0768
10333W        W26807  14.582  18.710  10.888  0.0455  0.1002  0.0240
10334W        W26808  14.348   2.228  11.873  0.0288 -0.5253  0.1425
10335W        W26809   2.242  11.178   4.510  0.3316  0.0619 -0.2349
10336W        W26810  18.493   3.434  10.720 -0.0766 -0.4124  0.3246
10337W        W26811  17.459   3.965   0.150  0.1719 -0.0777  0.2024
10338W        W26812   9.386   8.908  12.972  0.0177  0.4498 -0.2134
10339W        W26813   8.728   0.911  11.715 -0.0133  0.0352  0.3503
10340W        W26814   3.832   0.665  10.789 -0.2895 -0.1525  0.0349
10341W        W26815   1.246  18.056  10.407  0.3687 -0.0516  0.0679
10342W        W26816   6.399   8.602   4.680 -0.1322  0.2880 -0.1614
10343W        W26817  10.407   7.351   2.811  0.0910  0.0070 -0.0415
10344W        W26818  11.219  11.351   0.118  0.2043 -0.1085  0.0495
10345W        W26819  18.129   7.540   2.558 -0.0505  0.0668 -0.2537
10346W        W26820   3.013  18.144  11.828 -0.0248  0.1780 -0.2056
10347W        W26821   4.820   2.352   3.957 -0.1383 -0.0664  0.0833
10348W        W26822  11.120  17.145  10.856 -0.3597  0.2602  0.0316
10349W        W26823  18.057  16.654   4.412 -0.2628  0.2637 -0.0099
10350W        W26824  19.061  14.804   2.363 -0.1234 -0.1719 -0.1262
10351W        W26825   0.398  10.841   1.936 -0.0925  0.3330 -0.0313
10352W        W26826   1.008  13.398   2.662 -0.5170  0.1647 -0.1587
10353W        W26827  17.943  18.210  14.424 -0.2069  0.2911 -0.1403
10354W        W26828  17.139   4.374   5.115 -0.2016  0.0890 -0.0689
10355W        W26829   8.956  15.572   4.039  0.2108 -0.0393  0.3836
10356W        W26830  14.455   4.154   2.176 -0.2331  0.3725 -0.1324
10357W        W26831  12.409  18.958   0.312 -0.0793 -0.2570  0.1426
10358W        W26832   4.148   8.220  13.842  0.1402 -0.1047  0.5529
10359W        W26833  10.720   6.381  11.824 -0.1286 -0.1521  0.1851
10360W        W26834  10.325  16.955   2.667 -0.0991 -0.0979  0.3927
10361W        W26835  16.018  15.390   0.741  0.0216 -0.1204  0.0624
10362W        W26836   4.591   8.224  12.991 -0.1301 -0.0889  0.1196
10363W        W26837   8.121   6.931  12.506 -0.0481  0.4111  0.2276
10364W        W26838   7.889   5.438  12.063  0.2477 -0.0896  0.1515
10365W        W26839   5.597  11.627   9.764 -0.1402 -0.0270  0.3402
10366W        W26840   9.373  12.501   1.342 -0.2420  0.0258  0.2771
10367W        W26841  10.079  11.657  12.688 -0.1236 -0.4248  0.2558
10368W        W26842  19.357  10.854  12.993 -0.0419 -0.2456 -0.1816
10369W        W26843  14.434   0.734   2.937  0.2764  0.1742  0.1789
10370W        W26844  18.957   6.625   0.408 -0.0536  0.1855  0.0901
10371W        W26845   9.784   6.853   0.329 -0.4442 -0.0303 -0.2136
10372W        W26846   0.567  10.401   2.358  0.0177 -0.1181 -0.0526
10373W        W26847   4.817  11.733   4.916  0.2190 -0.1136 -0.1596
10374W        W26848  15.572  14.592   0.289 -0.3046 -0.1265 -0.2268
10375W        W26849  12.639  12.998   3.041 -0.0101 -0.0211 -0.1138
10376W        W26850   0.846   0.812   3.002 -0.3708 -0.4809 -0.0144
10377W        W26851  15.935   4.215  14.621  0.1658 -0.2721 -0.1008
10378W        W26852  11.146   4.943  12.744 -0.1725 -0.0355  0.0346
10379W        W26853   9.883  15.061   0.041  0.3997  0.0783  0.0779
10380W        W26854   0.413  13.518  11.212 -0.0977 -0.0670 -0.2802
10381W        W26855  15.724   8.308  12.086 -0.2073 -0.0726 -0.1666
10382W        W26856   6.791  11.167   4.339 -0.1054 -0.0405 -0.1223
10383W        W26857   2.409   1.337  10.382 -0.0415  0.2132 -0.1929
10384W        W26858  15.225  15.043   1.696 -0.0958  0.0058  0.0965
10385W        W26859  17.908   7.912  14.418 -0.0927 -0.0170  0.2992
10386W        W26860  10.773   3.634   2.666  0.1205 -0.0859  0.0342
10387W        W26861   5.158  15.912   1.747  0.2490 -0.0890 -0.2972
10388W        W26862  15.499  18.270  11.106 -0.0799 -0.1353  0.1831
10389W        W26863   9.742  17.724   3.424  0.0603 -0.0961 -0.4621
10390W        W26864  15.424   2.436   4.354 -0.1086 -0.0168 -0.0066
10391W        W26865  18.779  17.568   0.395  0.0224  0.0337  0.1213
10392W        W26866  14.990   2.294  12.554  0.1326 -0.0197  0.4515
10393W        W26867   4.422  12.090   1.964  0.1478 -0.0690 -0.0116
10394W        W26868   7.659  17.783   2.693  0.1199 -0.1521 -0.0734
10395W        W26869   1.025   7.196  11.810  0.2631  0.2229  0.0379
10396W        W26870  18.489  11.271  11.088  0.1066  0.1310 -0.1330
10397W        W26871   9.007  16.397   5.084  0.2397 -0.3128 -0.0225
10398W        W26872  10.053   8.640  14.490 -0.2663 -0.0486  0.4939
10399W        W26873   5.041  11.901  12.432  0.0819 -0.3420 -0.0256
10400W        W26874  13.293  12.949  11.227  0.3106 -0.0750  0.2122
10401W        W26875   0.739   8.230  11.679  0.0450  0.1540 -0.0211
10402W        W26876  17.713   6.325   1.150  0.0234  0.2264  0.1236
10403W        W26877   9.203   6.038   3.521  0.1897 -0.1128 -0.1127
10404W        W26878   7.133   3.731  13.738  0.2291 -0.0206  0.2083
10405W        W26879   2.480  16.620  11.082 -0.0366  0.1445  0.1305
10406W        W26880   1.579   0.702  14.501 -0.1846  0.0313  0.1648
10407W        W26881  16.652   9.300  14.704  0.3205 -0.2123  0.1571
10408W        W26882   5.088   6.237  11.850  0.0187  0.1709 -0.3400
10409W        W26883  11.367   9.888  11.666 -0.0655 -0.1236 -0.3322
10410W        W26884   9.516  13.745  14.379  0.2633 -0.0441 -0.0491
10411W        W26885  10.946   1.176   4.025  0.0210  0.2211  0.1025
10412W        W26886  13.714  17.789   2.461 -0.0734  0.3530 -0.1955
10413W        W26887   9.712   6.226   3.653 -0.1344 -0.0263 -0.1949
10414W        W26888   4.725  12.553  12.046  0.1427  0.0563 -0.0167
10415W        W26889  15.762   4.285   1.241  0.1813  0.1881 -0.2918
10416W        W26890  12.395   5.014  13.120 -0.0431  0.1927 -0.0355
10417W        W26891   1.807  10.503   1.609  0.2457  0.1056  0.0012
10418W        W26892   0.983  14.449   1.698  0.2531  0.1071 -0.1562
10419W        W26893  15.009   1.809  10.736 -0.2112 -0.3256  0.2352
10420W        W26894  15.452  15.415  13.737 -0.1282 -0.1047 -0.0740
10421W        W26895   4.981  12.631   0.551  0.1882 -0.2502  0.1856
10422W        W26896   4.496  18.697   2.775 -0.1388  0.0589 -0.2029
10423W        W26897   9.607  12.607   2.477 -0.0189 -0.0920 -0.2162
10424W        W26898   5.700  10.778  13.880 -0.0528  0.1592  0.2056
10425W        W26899   1.096  19.238   1.440 -0.5764  0.0424  0.0082
10426W        W26900   2.399  18.429  12.291  0.0973 -0.1587 -0.1031
10427W        W26901   7.089  14.744  12.544 -0.0609 -0.3950  0.0348
10428W        W26902  13.381  15.343  11.978 -0.0230 -0.2264 -0.0799
10429W        W26903  16.898  10.772   2.272 -0.2669 -0.1193  0.2292
10430W        W26904  17.648   1.128  11.862  0.2951  0.3793 -0.1812
10431W        W26905  13.187   6.011   4.217 -0.0086  0.0681  0.1998
10432W        W26906  12.668  15.536  12.706  0.1797  0.0021 -0.4042
10433W        W26907  12.082  18.649  11.431 -0.1533 -0.2843 -0.1903
10434W        W26908  17.612   6.732  10.738 -0.1288 -0.0540  0.2517
10435W        W26909   8.985  18.865   4.609 -0.1189 -0.0865 -0.2182
10436W        W26910  11.593   6.808  11.828  0.2295 -0.0179 -0.0954
10437W        W26911  14.905   4.835   2.377 -0.2120  0.4333 -0.1079
10438W        W26912   7.017  14.800   0.608 -0.0465  0.1835 -0.4095
10439W        W26913   2.054  16.819  13.802  0.0455  0.1549 -0.0613
10440W        W26914   6.209   8.420   2.644 -0.1063 -0.0052  0.0963
10441W        W26915  14.118   5.951   0.063  0.1579 -0.0633 -0.2287
10442W        W26916   5.752  10.828   2.250 -0.4070 -0.0819 -0.0452
10443W        W26917  14.018  18.319   4.078 -0.1504 -0.2776  0.1325
10444W        W26918   0.951   8.057   1.317  0.1627  0.2002  0.1547
10445W        W26919   8.653   3.262  11.451 -0.0955 -0.2374 -0.0039
10446W        W26920  10.517   3.095  14.162  0.2221  0.0982  0.0809
10447W        W26921  17.651  12.857   0.257  0.0156 -0.4294  0.0539
10448W        W26922  17.059   3.026   1.117  0.2073 -0.2971 -0.0465
10449W        W26923  16.175   2.521   1.224  0.1895 -0.0013 -0.3454
10450W        W26924  18.654   0.616  11.377  0.1367 -0.0015  0.0592
10451W        W26925   5.496  18.784  13.504 -0.1289  0.4310  0.0872
10452W        W26926  12.358  11.244   4.205  0.0050  0.0683 -0.0676
10453W        W26927  12.898   1.210   2.498  0.1384  0.1967 -0.1647
10454W        W26928  16.409  14.515   3.181 -0.2126 -0.2455 -0.0333
10455W        W26929   3.433  12.803   3.392 -0.1791 -0.0733  0.0832
10456W        W26930   9.898  16.377  11.644  0.0770  0.1266  0.1144
10457W        W26931   0.940  11.456  11.191 -0.2276  0.6702  0.1986
10458W        W26932   0.491  10.970   5.310  0.0726 -0.3279 -0.0411
10459W        W26933   7.535  15.513  12.882 -0.0848  0.2901  0.0156
10460W        W26934   4.815  19.377  13.735 -0.0467 -0.5379 -0.1916
10461W        W26935   4.850  10.966   1.090 -0.0308  0.0387  0.0922
10462W        W26936   2.089   5.075   1.682  0.1969  0.1900  0.3069
10463W        W26937   8.271  15.403  11.283 -0.5127 -0.0423 -0.2206
10464W        W26938  18.176   6.384  11.646  0.1548 -0.0772 -0.1600
10465W        W26939  13.014   0.795   0.003 -0.0938 -0.5695 -0.3057
10466W        W26940  16.463  16.312  13.782 -0.4192 -0.0427  0.0359
10467W        W26941  12.295  14.862  10.679  0.0600  0.2602 -0.0707
10468W        W26942   6.215  16.245  11.282 -0.0228  0.0970  0.0113
10469W        W26943   8.429   5.413  11.490 -0.1187 -0.1800  0.0813
10470W        W26944   8.252   1.550   2.896 -0.1551 -0.2484  0.2116
10471W        W26945  13.773  17.767   0.601 -0.0725 -0.0282 -0.1939
10472W        W26946  16.455  12.926  13.114 -0.0852 -0.0918 -0.0393
10473W        W26947  17.289  11.264  13.132  0.1305 -0.4662  0.0586
10474W        W26948  15.133   5.001  11.054  0.0804 -0.1741 -0.0720
10475W        W26949   0.103  12.593   5.814 -0.1268 -0.1473 -0.0093
10476W        W26950  16.967  18.932   3.350 -0.3960 -0.0598  0.0478
10477W        W26951   7.085  10.908  10.154 -0.1113  0.1224  0.1509
10478W        W26952   4.383  19.127  12.869  0.1213  0.2739  0.3037
10479W        W26953  16.063   7.733  13.098  0.1671 -0.0089  0.2381
10480W        W26954  13.435  13.675   5.137  0.0089  0.0564 -0.0430
10481W        W26955   5.218  11.818  14.804  0.0373  0.0422 -0.3158
10482W        W26956   6.515   2.111   3.262  0.3416  0.0250 -0.3425
10483W        W26957  12.907  18.445  14.397 -0.1709  0.3515 -0.2192
10484W        W26958   0.880  10.668   3.601  0.0124  0.3544  0.1455
10485W        W26959  17.370   1.533   4.237 -0.2821  0.1009 -0.1347
10486W        W26960   3.783  15.395  13.375  0.1244 -0.2073  0.1333
10487W        W26961   0.956   3.976   0.301 -0.0131  0.2560  0.2590
10488W        W26962  12.864   7.320   2.239 -0.2696  0.1217 -0.0905
10489W        W26963  14.947   9.818  10.491 -0.0299 -0.1728 -0.0320
10490W        W26964  12.414   9.163   2.100 -0.2709 -0.0014 -0.0880
10491W        W26965  16.244   7.290   1.058 -0.0249  0.3744 -0.1629
10492W        W26966   2.453  10.532   9.976 -0.2276  0.0319  0.1953
10493W        W26967  10.219  12.452   1.209 -0.1041  0.0381  0.0951
10494W        W26968  13.301   1.555   0.936 -0.2083  0.0948 -0.2215
10495W        W26969  10.053  19.349  13.307 -0.0022  0.1039 -0.1984
10496W        W26970   2.447   5.207  11.532 -0.0816  0.3698 -0.2317
10497W        W26971  12.954  17.161   0.507  0.7482  0.4136  0.1644
10498W        W26972   1.491  17.484   1.499 -0.5109  0.1334  0.1328
10499W        W26973  12.095  13.215   4.501 -0.1589  0.1120  0.1587
10500W        W26974  11.429  13.178  11.627  0.1505  0.5039  0.1094
10501W        W26975  15.801  16.879   3.004  0.2229 -0.0198 -0.0718
10502W        W26976  15.157  15.739  10.977  0.0614 -0.1168  0.4141
10503W        W26977   9.326   4.622   8.450  0.0427  0.0559 -0.1799
10504W        W26978  18.259   6.547  14.114 -0.4007 -0.1642  0.1806
10505W        W26979   0.377  11.468  10.198  0.0342 -0.0398 -0.2795
10506W        W26980  15.585   5.592  11.206  0.0815  0.5746  0.0576
10507W        W26981  12.431   3.932   2.102 -0.3646 -0.5592 -0.2792
10508W        W26982  11.018   3.966  13.059  0.2313  0.3226 -0.2305
10509W        W26983   1.983   6.360   3.516 -0.1231  0.1567 -0.1229
10510W        W26984   0.115   9.583   4.593  0.0841 -0.2303 -0.1056
10511W        W26985   9.781   4.519  12.476 -0.2422  0.2930  0.1609
10512W        W26986   0.585  13.371   2.247 -0.2090  0.1246  0.3203
10513W        W26987   4.731  13.825   1.757 -0.3153 -0.1052 -0.0412
10514W        W26988  18.535  14.999   2.241 -0.1421  0.2287  0.0207
10515W        W26989   3.863  14.503  14.005 -0.2078 -0.2996  0.3322
10516W        W26990  13.516  12.861   4.762 -0.1848  0.0422  0.1758
10517W        W26991  11.530  15.118  10.250  0.1419  0.0277 -0.1737
10518W        W26992  16.992  10.806  14.495 -0.0423  0.0898 -0.2954
10519W        W26993  18.124   5.569   4.810  0.0430 -0.0456 -0.0477
10520W        W26994  12.848   0.754  11.033  0.1316  0.1533  0.0492
10521W        W26995   9.826   4.907  11.639 -0.1179 -0.2215  0.3188
10522W        W26996   6.260   4.643   2.222 -0.0278 -0.1306 -0.1665
10523W        W26997   9.625  13.599  13.102 -0.2213  0.1579 -0.0768
10524W        W26998   6.236  13.568  14.547  0.2320 -0.2622 -0.0299
10525W        W26999   0.651   1.935   0.627  0.0308  0.0782 -0.0500
10526W        W27000  16.052   6.109   5.714 -0.0016  0.2611 -0.2167
10527W        W27001   4.895  13.167  10.963  0.0319  0.2704  0.2280
10528W        W27002  16.843   3.937   0.098  0.1546 -0.0380 -0.1970
10529W        W27003   4.631   5.095  12.119  0.1062 -0.2061  0.4949
10530W        W27004  12.035   4.107  14.432  0.0858 -0.0555  0.0642
10531W        W27005   4.592   6.610  12.678 -0.0112 -0.0036 -0.1945
10532W        W27006   7.925   6.047  10.550  0.2269  0.1370  0.0778
10533W        W27007   9.337  11.567  14.490 -0.2740  0.2919 -0.2297
10534W        W27008   5.012  11.066  14.171  0.3429  0.2413 -0.1544
10535W        W27009   2.093  14.903  12.313 -0.3016  0.1332  0.0033
10536W        W27010   8.167   9.822   4.245  0.2063  0.1070 -0.1453
10537W        W27011   3.376   2.503  13.406 -0.0628  0.1946  0.0727
10538W        W27012   7.658  16.382  13.236 -0.0787  0.2126  0.0260
10539W        W27013  12.742   5.593  12.302 -0.0275 -0.2254 -0.0219
10540W        W27014   8.827   5.959  14.016  0.0834 -0.1308 -0.1485
10541W        W27015   0.167  15.665  10.822 -0.1013  0.0947 -0.0853
10542W        W27016  16.603   3.210   0.944  0.1937  0.1661 -0.5191
10543W        W27017  18.579   3.371   4.800  0.0600  0.2393  0.1792
10544W        W27018  11.181   6.608   2.736 -0.1803 -0.0318 -0.1066
10545W        W27019  19.117   4.447   2.684 -0.2492 -0.0927  0.0780
10546W        W27020  18.799  14.096  10.246 -0.0949  0.2170  0.1082
10547W        W27021  17.658   3.753  10.448 -0.0483  0.0741  0.0746
10548W        W27022  14.181  11.839   1.388  0.3806 -0.1775  0.1009
10549W        W27023   4.720   1.541   3.415 -0.1927 -0.1476  0.0193
10550W        W27024  15.169  14.823   5.412 -0.1599 -0.1036  0.2107
10551W        W27025  15.257   5.581   1.644  0.3068  0.1611  0.0028
10552W        W27026   9.257   9.735   2.649 -0.1270 -0.2904  0.1230
10553W        W27027  12.678   3.799   4.353  0.0820  0.3529 -0.3671
10554W        W27028  16.920   7.754   3.219  0.1374  0.1716  0.2788
10555W        W27029   8.416   7.499   0.576 -0.1699  0.1591  0.2527
10556W        W27030   1.649  18.475   1.025 -0.4751  0.2656 -0.1271
10557W        W27031   0.440  12.767   5.052  0.1227 -0.2104 -0.1494
10558W        W27032  17.675   9.703   5.464  0.3067  0.0929  0.1321
10559W        W27033   0.845  16.710   0.499  0.2206 -0.3275  0.2777
10560W        W27034  18.707   4.410   4.412  0.1609 -0.0943 -0.1788
10561W        W27035  14.178  10.543   0.495  0.0404 -0.1410  0.1633
10562W        W27036  17.424   6.671   9.640 -0.1380 -0.1314  0.0690
10563W        W27037   9.692  13.101  11.548  0.0466  0.0482  0.0125
10564W        W27038  14.641  13.903   2.302  0.2477 -0.3578 -0.0527
10565W        W27039  10.761  14.592  11.463  0.1286  0.1033 -0.1867
10566W        W27040   1.109   0.133   3.002 -0.1428 -0.3377  0.0412
10567W        W27041  11.617  11.415  10.395  0.1486  0.4486 -0.0839
10568W        W27042  17.635  15.977   4.076 -0.1799 -0.0658  0.1546
10569W        W27043   3.613  18.052  13.151 -0.0955 -0.0073  0.1491
10570W        W27044  11.847   7.379  12.654  0.5419 -0.0802 -0.0874
10571W        W27045  15.452  16.946  13.841 -0.1501 -0.0481  0.1691
10572W        W27046  14.739   2.506   1.720 -0.1819  0.0416 -0.1914
10573W        W27047  17.980   6.362   4.351 -0.1829 -0.2691 -0.2412
10574W        W27048  13.952  12.072   9.659 -0.3570  0.0032  0.0986
10575W        W27049  15.080   7.697   2.068 -0.0758  0.0982  0.2178
10576W        W27050   6.810  13.917   0.780  0.3460  0.2066  0.0861
10577W        W27051  17.601  15.158  11.868  0.0312 -0.1279 -0.2379
10578W        W27052   2.303   8.896   1.296  0.3759  0.0471  0.0981
10579W        W27053   6.265   4.756   9.114 -0.0536 -0.2151 -0.2675
10580W        W27054  10.195   7.946   0.285 -0.1582 -0.1999 -0.0087
10581W        W27055   1.463   3.798  10.051 -0.1779  0.0387 -0.0955
10582W        W27056  10.033  12.657  12.899 -0.0927 -0.1129 -0.0072
10583W        W27057   6.311   9.971   5.360  0.0129 -0.0942  0.2645
10584W        W27058   5.082   8.347   4.527  0.2850 -0.2554  0.5967
10585W        W27059   4.659  16.815  13.831  0.3430  0.1064 -0.1672
10586W        W27060  12.734   0.682  14.353 -0.0110  0.1700  0.1319
10587W        W27061   1.589  10.520   2.799  0.0616 -0.2596 -0.1602
10588W        W27062   8.817  17.867   1.411 -0.1442  0.2859  0.0277
10589W        W27063  12.379   4.294  14.019  0.2487  0.4654 -0.0530
10590W        W27064  16.890  15.024  13.178  0.1429  0.2793  0.0881
10591W        W27065  15.689   8.235   3.116  0.0866  0.0625 -0.1625
10592W        W27066  12.275   3.587  11.039 -0.1448 -0.2368  0.1663
10593W        W27067   8.292  12.406   0.333 -0.2429  0.0554 -0.0432
10594W        W27068   1.160  11.013   2.577  0.1347 -0.3297 -0.1521
10595W        W27069  12.029   8.881  11.364 -0.0691  0.0766  0.0804
10596W        W27070  13.647  12.431  11.183  0.0210  0.1298 -0.0876
10597W        W27071   4.013   1.499   1.289 -0.0184  0.0245 -0.2287
10598W        W27072  11.454   9.620  11.177  0.2604 -0.2445  0.1678
10599W        W27073  13.399  16.168  12.333  0.2926 -0.2299  0.0239
10600W        W27074  14.453   7.739   4.742  0.0863 -0.2660 -0.1314
10601W        W27075  10.277  12.101   5.020 -0.0503 -0.0934  0.1422
10602W        W27076  10.462  10.065   9.454 -0.1247 -0.1938  0.1214
10603W        W27077  10.616   4.344   0.327 -0.3305 -0.2694 -0.2455
10604W        W27078   2.717   7.756  10.152  0.0615 -0.3197 -0.0379
10605W        W27079  11.127  14.064  12.860 -0.0090 -0.4276 -0.3655
10606W        W27080  10.882   4.597  11.539  0.2623 -0.1152 -0.1405
10607W        W27081  15.928  14.483  14.849  0.2225 -0.0545  0.1632
10608W        W27082   5.359   2.278  13.061 -0.0148 -0.1763  0.0810
10609W        W27083   4.120  13.916  13.473 -0.2491  0.0801  0.2405
10610W        W27084   5.450   2.523   2.704  0.3157  0.1263 -0.1517
10611W        W27085   6.143   7.959  12.343 -0.0891 -0.0150  0.1794
10612W        W27086   5.065   0.675   1.867  0.2121  0.0038 -0.4812
10613W        W27087  10.594   1.745   0.107  0.2188 -0.0634 -0.1496
10614W        W27088   6.280   2.972  10.536 -0.0749  0.0060  0.1700
10615W        W27089   8.328  15.808  13.550  0.0583 -0.2140 -0.0030
10616W        W27090   2.239  10.767  11.252  0.1547 -0.2133 -0.0571
10617W        W27091   2.774   0.543   0.563  0.3182 -0.1535  0.2919
10618W        W27092  14.327  10.987   4.149 -0.2414 -0.0866 -0.0805
10619W        W27093   4.628  11.630   2.016  0.0037 -0.0458 -0.1207
10620W        W27094   2.510  15.588   4.066  0.1066 -0.1554  0.1819
10621W        W27095  11.075   8.855   3.306 -0.3275  0.1671 -0.3996
10622W        W27096  11.448  17.761   4.205  0.3244  0.2484  0.0422
10623W        W27097  13.734   3.298  13.216  0.1695  0.2083 -0.2459
10624W        W27098   2.582  16.285  11.527 -0.1260 -0.4101  0.1406
10625W        W27099  16.602  12.303   2.821 -0.3430  0.0267 -0.0457
10626W        W27100   7.178   5.143   3.844  0.1516  0.0518  0.3637
10627W        W27101  16.927  16.301  14.580  0.0095 -0.1529 -0.1429
10628W        W27102  14.106  13.606   1.630  0.3529 -0.1264 -0.1697
10629W        W27103  17.376   2.851   3.366  0.0892  0.1194 -0.0887
10630W        W27104   7.252   7.211   2.037  0.3174 -0.1208  0.0603
10631W        W27105   5.262   1.561   1.522 -0.0644 -0.1416  0.0944
10632W        W27106   8.767  16.760   5.928 -0.2139 -0.1062  0.1638
10633W        W27107  12.321  10.066   3.610 -0.3079 -0.1996  0.1815
10634W        W27108   4.729   5.077   2.955 -0.0525 -0.2188 -0.0218
10635W        W27109  17.113   3.218   4.597  0.1228 -0.0409  0.1945
10636W        W27110  14.430  11.769   2.535 -0.2145  0.2999 -0.0599
10637W        W27111  11.360   4.215   2.498 -0.0577  0.1121  0.1182
10638W        W27112   0.078  14.781   1.430 -0.0171  0.1439 -0.1126
10639W        W27113   2.686   3.642  13.103  0.0804  0.1940 -0.0300
10640W        W27114   0.609  11.221  12.871 -0.0502  0.4147  0.1144
10641W        W27115   7.533   0.069   1.612  0.0777  0.0905  0.2868
10642W        W27116  12.112  11.778  11.794 -0.0099  0.0331 -0.2717
10643W        W27117   1.808   8.303   0.387 -0.0903 -0.1280  0.0335
10644W        W27118  13.052  15.056   1.875  0.4128 -0.0205  0.0417
10645W        W27119  13.658   0.653   0.772  0.0449  0.1209  0.0923
10646W        W27120  18.741  17.153   4.588  0.0846 -0.1581  0.3676
10647W        W27121   6.853  12.978   4.842  0.2123 -0.1164  0.1994
10648W        W27122   2.100  18.132   1.978  0.1254 -0.1779 -0.1803
10649W        W27123   3.516  11.780  14.358  0.3024 -0.1279 -0.0021
10650W        W27124   0.657   0.331  10.315  0.1193  0.3156  0.1310
10651W        W27125  16.881  10.833   5.230 -0.0885  0.0538  0.2008
10652W        W27126   0.238   2.623  10.399 -0.1815 -0.2219 -0.1894
10653W        W27127   9.582  11.969  13.173  0.0842  0.0661 -0.0009
10654W        W27128   7.716   3.145   1.413  0.2579 -0.0655  0.0648
10655W        W27129  13.632  15.590   3.739  0.2343  0.0223  0.1273
10656W        W27130  13.003  13.144   4.364 -0.0201 -0.1107  0.0894
10657W        W27131  18.645  14.521   4.519 -0.0020  0.1328  0.0450
10658W        W27132   6.854   7.606   2.144  0.0431  0.3218 -0.0914
10659W        W27133  10.161   0.257  10.867 -0.0307  0.4328  0.2033
10660W        W27134   5.530  15.488   1.532  0.0602 -0.4677 -0.0768
10661W        W27135   6.599   8.012   2.439 -0.2375  0.0915  0.0933
10662W        W27136   9.970   7.595  11.982  0.0015  0.0670  0.2742
10663W        W27137   1.162   9.472  12.641 -0.0808  0.5399 -0.0568
10664W        W27138  19.248   7.094   4.956  0.0943 -0.0865  0.2213
10665W        W27139   0.267   2.264   3.016  0.1532 -0.1074 -0.2810
10666W        W27140   0.724  18.560   1.876  0.2440  0.0783  0.0379
10667W        W27141   1.721  15.727   3.331 -0.1413  0.0225 -0.0427
10668W        W27142   9.794  12.551   9.938  0.0296 -0.0601  0.3469
10669W        W27143   5.935   7.513   3.584  0.0158 -0.4301 -0.0857
10670W        W27144   7.945   8.552  12.908 -0.3213 -0.1226 -0.2140
10671W        W27145   5.833   1.141   2.370  0.0227  0.0911  0.1967
10672W        W27146   7.137  14.978   5.853  0.1820 -0.0755 -0.0707
10673W        W27147   2.350  16.183  14.004  0.0477 -0.2192  0.1614
10674W        W27148   3.757  18.722   4.043  0.1750 -0.2529  0.0196
10675W        W27149  19.264   9.934  13.546 -0.2182  0.0955  0.1182
10676W        W27150   8.586  11.975   1.772 -0.1443  0.2783  0.1057
10677W        W27151  12.919   4.194   2.036  0.0229 -0.1504 -0.0189
10678W        W27152  17.785  14.042   0.334  0.2244  0.0047  0.1891
10679W        W27153  16.707   6.997   2.757  0.1501  0.1208  0.2035
10680W        W27154   0.322   4.715   0.554  0.0008  0.1217 -0.2520
10681W        W27155  16.842   7.220   1.811  0.3454  0.3854 -0.0935
10682W        W27156   5.098  15.253   4.417  0.1774 -0.0690  0.2960
10683W        W27157   0.321  19.279   3.320  0.1969 -0.2860  0.0651
10684W        W27158   0.991  18.204  11.226  0.2512 -0.0651 -0.4059
10685W        W27159   0.325   4.876  14.184  0.1542 -0.0486 -0.0676
10686W        W27160  11.865  17.530  14.678 -0.0435 -0.5118  0.0326
10687W        W27161   8.634   1.090   3.724 -0.1539  0.0244 -0.1109
10688W        W27162  18.361   6.302  11.212  0.3215  0.0266  0.0364
10689W        W27163   9.747   0.732  12.534  0.0318  0.0224 -0.0589
10690W        W27164   2.031   0.411   4.212  0.2078  0.0172  0.3030
10691W        W27165  18.933   9.964   1.462  0.2593  0.2267 -0.1512
10692W        W27166   6.711  11.034   0.636 -0.4195  0.0280 -0.4006
10693W        W27167   9.690   7.351   0.304  0.0868 -0.5917  0.0625
10694W        W27168  17.173   0.299   2.114  0.1542  0.1671 -0.1516
10695W        W27169   1.401   6.999  12.742 -0.0796  0.0579  0.0535
10696W        W27170   1.009   8.597  11.845 -0.1417 -0.3107 -0.0077
10697W        W27171  17.578   3.355   2.620  0.3376 -0.1338  0.0974
10698W        W27172  14.810   5.524  13.095  0.2779 -0.0251 -0.0211
10699W        W27173   1.140   6.528  14.039 -0.0151 -0.0807  0.0794
10700W        W27174  11.121   0.206  11.261 -0.0470 -0.2762  0.2851
10701W        W27175   3.684  17.996   4.544  0.2379  0.0087  0.0255
10702W        W27176   2.437   0.847   4.072  0.0171  0.2951 -0.1238
10703W        W27177  12.499  18.093  13.225 -0.0120 -0.1074  0.3601
10704W        W27178   0.447  15.616  13.574  0.0083  0.3472  0.1555
10705W        W27179   2.187  10.344   4.523 -0.2650  0.2275 -0.2850
10706W        W27180   8.957  17.056   1.225  0.0280  0.2402 -0.0550
10707W        W27181   6.775  10.324  13.294 -0.1144 -0.0517 -0.0749
10708W        W27182  10.987  15.261  10.527  0.2467 -0.0702 -0.2897
10709W        W27183  14.398   6.818   1.551  0.0585  0.2013  0.2143
10710W        W27184  15.178   4.499   0.334  0.3613 -0.0193  0.2023
10711W        W27185  17.838   4.400  14.756 -0.1339  0.1009 -0.1162
10712W        W27186  15.693   0.314   1.223  0.1374  0.0150 -0.2457
10713W        W27187   8.471  14.229  10.703  0.0003 -0.0123 -0.0646
10714W        W27188   8.168   7.751  11.720 -0.1152 -0.1375 -0.0057
10715W        W27189   9.204  12.943   1.541  0.0395  0.1148  0.1934
10716W        W27190  10.195   0.094  11.393 -0.1833  0.1563 -0.1763
10717W        W27191  18.876  19.230   9.677  0.0597 -0.3500  0.0669
10718W        W27192   6.709  15.614  13.678  0.3512 -0.0352  0.1776
10719W        W27193   7.255  10.090  13.156 -0.1571 -0.2189 -0.0295
10720W        W27194   0.721   0.656  12.970 -0.0470  0.2159  0.0902
10721W        W27195  15.456   7.968  11.825  0.1475 -0.2375 -0.0658
10722W        W27196  10.731   9.060   9.258  0.0831 -0.0595 -0.1991
10723W        W27197   5.763  18.254  12.469  0.1581 -0.2999  0.0684
10724W        W27198  11.474  16.277   1.490 -0.4845 -0.5075 -0.0614
10725W        W27199  12.338  12.558  13.276  0.0565  0.2622  0.1333
10726W        W27200   1.583   5.760  11.497 -0.3699 -0.1035 -0.2221
10727W        W27201   8.503   3.452   0.445 -0.2481 -0.1950 -0.1803
10728W        W27202  12.474   7.222   3.522 -0.0070  0.0815 -0.1089
10729W        W27203  17.700  17.289  11.599  0.1138 -0.1969 -0.1366
10730W        W27204  12.601   0.889   4.364 -0.0656  0.2956 -0.1612
10731W        W27205  16.565  10.017   1.641  0.2193 -0.0203  0.0048
10732W        W27206   8.223   5.351   9.736  0.1054  0.0392 -0.2630
10733W        W27207   5.321  11.680   0.481  0.1167 -0.0200  0.0867
10734W        W27208  15.045   8.614  10.969 -0.2145  0.0506 -0.0334
10735W        W27209   2.125   5.716   5.221  0.0040 -0.0334 -0.2405
10736W        W27210  14.402  11.825   3.686 -0.1463 -0.1448 -0.0252
10737W        W27211   6.208   9.317   4.759  0.0645  0.2516 -0.1847
10738W        W27212  14.484  14.144   5.690 -0.1110  0.2812  0.0295
10739W        W27213   7.809   2.204   1.369  0.2789 -0.7175  0.2837
10740W        W27214   3.624   3.730   0.766 -0.2507 -0.1366 -0.2060
10741W        W27215  12.009   8.989   3.773  0.0183  0.0887  0.1742
10742W        W27216  14.460  13.029   3.380  0.2360 -0.4050 -0.1654
10743W        W27217  18.208   7.842   5.934  0.0390 -0.0040  0.5669
10744W        W27218  17.793   9.717  13.693 -0.0901  0.1043  0.3336
10745W        W27219   3.692  18.990   2.063 -0.0497  0.2634  0.1633
10746W        W27220   6.261  16.679  11.003  0.3052 -0.2291 -0.0981
10747W        W27221  17.626  14.911   0.997  0.1666  0.1798  0.1478
10748W        W27222  13.020   5.077  11.111 -0.1839 -0.2068 -0.2382
10749W        W27223   8.558  12.446   3.952 -0.0152  0.1071  0.2669
10750W        W27224  10.343  10.512   0.995 -0.1981  0.1175  0.1527
10751W        W27225   0.667   5.825  11.162  0.0927 -0.1636  0.1816
10752W        W27226   1.296  10.306   2.321  0.1714  0.0305  0.4774
10753W        W27227  15.243   3.164  12.285 -0.0423 -0.2906 -0.1955
10754W        W27228  16.815   0.318   4.075  0.1217  0.2922 -0.0948
10755W        W27229   4.229   2.261  12.143 -0.0775 -0.0313  0.2102
10756W        W27230  11.130  19.002   3.287 -0.1308 -0.1764  0.0674
10757W        W27231  13.529   4.205   3.770 -0.0113 -0.0243  0.4198
10758W        W27232   6.732   4.983  13.808 -0.0412  0.0254  0.0815
10759W        W27233  16.079   8.054  14.239 -0.2949 -0.1117 -0.2287
10760W        W27234  17.800  17.572   1.267 -0.2557 -0.0669  0.2525
10761W        W27235   2.545  19.180   1.818  0.1394  0.0364 -0.0784
10762W        W27236   1.165  15.738  11.862 -0.1902  0.0396  0.3562
10763W        W27237  16.490  15.784   3.902 -0.3426 -0.4759 -0.0980
10764W        W27238  16.091   2.470   5.186 -0.1011  0.0822 -0.1612
10765W        W27239  17.230  18.284   0.274 -0.1153  0.2142 -0.4277
10766W        W27240  12.675  15.379   5.077  0.0881 -0.3483  0.0431
10767W        W27241  14.181  10.143   2.194  0.0726  0.0246  0.1301
10768W        W27242  15.055  11.983  10.553  0.2561  0.4280  0.1713
10769W        W27243   0.062  13.780   3.073  0.1215  0.0466  0.0420
10770W        W27244  11.269   2.422  13.052  0.0223 -0.2083 -0.0309
10771W        W27245  11.159   1.382   9.999  0.0954  0.2540  0.1096
10772W        W27246  13.155   7.948  12.051 -0.0455  0.0522 -0.3045
10773W        W27247   2.059  13.834   3.655 -0.0010  0.0296 -0.3826
10774W        W27248  17.671   5.620   5.687  0.0034  0.0026 -0.5360
10775W        W27249  19.064   8.488  13.051 -0.0758 -0.0240  0.0185
10776W        W27250  15.994   8.969  11.497 -0.0655 -0.0744 -0.0347
10777W        W27251  19.369  11.476   0.807  0.0424  0.3101 -0.1957
10778W        W27252   5.962  18.210   1.385 -0.0877 -0.2496 -0.1679
10779W        W27253  16.535  14.186   1.773 -0.1205 -0.1242 -0.0387
10780W        W27254   2.534  10.944  10.151  0.0164  0.0939  0.1200
10781W        W27255   3.577  16.195  14.289  0.0658  0.0083 -0.1101
10782W        W27256  15.166  17.269  10.711  0.0315  0.3043  0.0232
10783W        W27257  18.891  16.835   2.995  0.2865  0.2564  0.1308
10784W        W27258  14.879   7.535  11.896 -0.0131  0.3109  0.2245
10785W        W27259  18.664  15.477   2.557 -0.0668 -0.1376  0.0601
10786W        W27260  15.398  11.118   3.421  0.1247  0.2222  0.1951
10787W        W27261  15.626   9.858   5.838 -0.3796 -0.2920 -0.3102
10788W        W27262  14.564   9.547   2.761  0.2968  0.1581 -0.0558
10789W        W27263   8.186  12.861  10.694 -0.0451 -0.0290  0.1890
10790W        W27264  18.517  14.581  12.165  0.0409 -0.2636  0.2156
10791W        W27265  15.464  10.614   2.037 -0.0323  0.1865  0.0402
10792W        W27266  10.454  12.410   2.456  0.0796 -0.1332  0.0879
10793W        W27267  10.352   4.633   4.996  0.1061  0.1152  0.2699
10794W        W27268   9.596  10.167   2.771  0.3840 -0.0756  0.2049
10795W        W27269  12.143  16.593   2.108  0.1724  0.0680 -0.0339
10796W        W27270   5.659  18.286  10.861 -0.1949  0.1766  0.1696
10797W        W27271   8.886   2.643  13.670 -0.1316  0.1934 -0.2307
10798W        W27272   5.408   5.485  12.451 -0.0009 -0.2773  0.3464
10799W        W27273  19.272   7.620   1.241 -0.1416  0.0005 -0.0648
10800W        W27274  13.736  12.394   3.914  0.2943  0.2259 -0.0295
10801W        W27275  17.233  19.281   2.967 -0.4991  0.1184 -0.1297
10802W        W27276   8.950   8.909  11.294 -0.0004 -0.1053 -0.2150
10803W        W27277   4.131   4.665   3.956  0.0231  0.1206 -0.1599
10804W        W27278  11.978   5.908   3.645  0.3585  0.0793 -0.0484
10805W        W27279  15.590  15.846   4.437  0.1154  0.3108 -0.0617
10806W        W27280   4.386   9.253   4.640 -0.2078  0.1858  0.0278
10807W        W27281   0.720   1.792   3.663  0.2173  0.1229 -0.0330
10808W        W27282  14.901  10.978  12.629  0.1343  0.0847  0.3067
10809W        W27283  10.509   3.690  12.358  0.1311  0.2868 -0.1825
10810W        W27284  16.215   5.848   1.492  0.0621  0.0203 -0.0274
10811W        W27285  18.977  14.820  13.677  0.0880  0.0186  0.0262
10812W        W27286  15.202   6.205  14.288  0.3105  0.0538 -0.0487
10813W        W27287   6.498   1.733   4.523 -0.1001 -0.0050  0.0542
10814W        W27288  18.220   4.667   1.335  0.3438  0.1004  0.0506
10815W        W27289   6.951   0.241   1.385  0.1892 -0.1892  0.0307
10816W        W27290   7.705   7.362   2.056  0.0603  0.0357 -0.1211
10817W        W27291   1.611   1.528   3.595 -0.2776  0.1727 -0.0940
10818W        W27292   1.424   9.328  14.815 -0.0421 -0.1228  0.0269
10819W        W27293  17.932   2.761   4.304 -0.1220 -0.0832 -0.0205
10820W        W27294  19.151   1.629   3.701 -0.1597  0.1887  0.2740
10821W        W27295  18.030   7.850   3.038  0.0411  0.1543  0.1779
10822W        W27296   4.941  11.642  11.136  0.2772  0.3010 -0.0057
10823W        W27297   6.208  15.014   3.652  0.1118  0.4544  0.0582
10824W        W27298   5.119   8.263  14.880 -0.3574  0.3751  0.1419
10825W        W27299   8.140   4.774   1.223 -0.1811 -0.1358 -0.1212
10826W        W27300   4.320  11.201  11.509 -0.0649 -0.1288  0.0730
10827W        W27301  18.368  14.170   3.941 -0.0557 -0.0825  0.0829
10828W        W27302   5.822   3.464  14.142 -0.1842 -0.0004 -0.0444
10829W        W27303   1.728   4.077   0.717 -0.2170  0.2053  0.2088
10830W        W27304   6.814   3.554  11.730 -0.0089 -0.0162  0.1509
10831W        W27305  16.647   7.116   0.726  0.2621 -0.1723  0.0207
10832W        W27306  15.623  12.056   3.130 -0.0145  0.3780  0.1148
10833W        W27307   3.328   9.519  12.883  0.2744 -0.3225  0.1709
10834W        W27308   1.489   7.067  14.596 -0.1201  0.3953 -0.1815
10835W        W27309   0.689  13.271   3.913  0.1635  0.0398 -0.0631
10836W        W27310   0.180  19.069   3.780 -0.2658 -0.1096 -0.0884
10837W        W27311   1.557   6.978  10.348 -0.0422  0.0942 -0.2189
10838W        W27312  14.403  12.026   5.095 -0.0401 -0.0004  0.1795
10839W        W27313   3.741   0.079  13.509  0.0938 -0.1995  0.0985
10840W        W27314  17.832  18.782  13.531 -0.0257  0.3638 -0.1021
10841W        W27315  10.242   4.863  11.905  0.2641  0.1823  0.0646
10842W        W27316   1.062   4.672   5.139  0.1059  0.1319  0.2435
10843W        W27317  10.431  16.613  11.487  0.2239 -0.1850  0.0222
10844W        W27318  14.046   2.553   1.464  0.0172  0.0519  0.3006
10845W        W27319   3.630   2.431   3.333 -0.2095 -0.0953  0.1870
10846W        W27320   9.502   2.711  13.130 -0.1035 -0.3622  0.2037
10847W        W27321  17.292  14.343   4.299  0.3690 -0.4221 -0.4178
10848W        W27322  10.345  16.290  11.891  0.2032  0.0778 -0.0944
10849W        W27323   9.470  10.432  10.762  0.2435 -0.3239  0.2330
10850W        W27324   0.035  13.013  12.950  0.0027 -0.2381 -0.0383
10851W        W27325   3.187   8.214   3.004  0.2815 -0.2588 -0.0657
10852W        W27326  18.911  17.470   0.893  0.1565 -0.0937 -0.1201
10853W        W27327  13.202   3.276   5.182 -0.0258  0.0304  0.2087
10854W        W27328   1.281   7.542   3.032 -0.2633 -0.1389  0.2266
10855W        W27329   0.822   6.265   3.156 -0.0447  0.1955 -0.1778
10856W        W27330   2.772  14.406  11.504  0.1785 -0.1393  0.1195
10857W        W27331   9.601  12.054  10.254 -0.3090 -0.0556  0.0934
10858W        W27332   0.570  14.502  11.019 -0.2518 -0.0660 -0.4641
10859W        W27333   7.264   5.403   0.475  0.2191 -0.1361  0.1432
10860W        W27334  12.975   3.036  13.737 -0.3415 -0.3896  0.0959
10861W        W27335  12.138   4.699  11.124  0.1564  0.0846 -0.0834
10862W        W27336  11.676  12.793  12.676  0.3203 -0.1739 -0.3410
10863W        W27337   9.187  15.791  10.882 -0.0543  0.2074 -0.2058
10864W        W27338  13.786   1.323  11.822  0.0890  0.2294 -0.1561
10865W        W27339   0.385  19.278   4.242  0.2052 -0.1827  0.2547
10866W        W27340  11.370   6.882  11.394  0.0982 -0.0234  0.1911
10867W        W27341   1.153  13.190  13.607  0.0531  0.0169 -0.0089
10868W        W27342  18.203  13.710   3.442 -0.0997  0.0223 -0.0226
10869W        W27343  15.533  16.035   5.118  0.0662 -0.2784 -0.1790
10870W        W27344  12.142  14.595  13.184  0.1434 -0.0536  0.2112
10871W        W27345  15.604  18.192   1.659 -0.1075  0.2228  0.0579
10872W        W27346   1.785  14.892  11.099 -0.1604  0.2626  0.1151
10873W        W27347   4.949  16.586  11.898  0.0155  0.1942 -0.1175
10874W        W27348  14.115   1.090   5.701 -0.2521  0.2027 -0.2318
10875W        W27349   7.461   4.417   3.546 -0.0810 -0.0276  0.2584
10876W        W27350   0.977   1.128  10.960  0.3868  0.0223 -0.0942
10877W        W27351   8.153   9.828  11.133 -0.1788 -0.0726  0.3286
10878W        W27352   1.465   8.304   9.566 -0.0816  0.2318 -0.0842
10879W        W27353  13.514   3.266  10.564  0.1593 -0.2479  0.1396
10880W        W27354   4.730  11.162   3.112 -0.4660 -0.3298 -0.0191
10881W        W27355   7.929  13.999  11.647  0.2643  0.3276 -0.1098
10882W        W27356   6.746   1.564   0.479  0.1400  0.0468  0.2966
10883W        W27357  14.512   1.125   0.091 -0.1915 -0.1457 -0.1555
10884W        W27358  18.580   7.335   0.952  0.1573  0.0391  0.0539
10885W        W27359   2.343   9.857  11.567  0.2815  0.1977 -0.0303
10886W        W27360  15.579   0.987  13.246  0.1845  0.5574 -0.0698
10887W        W27361  10.388   7.484  12.554 -0.1249  0.0495  0.3050
10888W        W27362  13.368   0.838   0.391 -0.1527 -0.2170 -0.0560
10889W        W27363   7.001  11.888   1.748  0.0983  0.1262  0.0140
10890W        W27364   2.822  14.943  10.191  0.6077  0.1564 -0.2194
10891W        W27365  15.538  10.148   3.299 -0.2161  0.1346 -0.1910
10892W        W27366  15.459   8.394   2.647  0.2327  0.1489  0.2934
10893W        W27367  17.271  10.172   0.497  0.1697 -0.0166  0.0690
10894W        W27368  13.558   0.554   4.279 -0.2886 -0.0950 -0.0470
10895W        W27369   9.270   7.507   9.535  0.1268 -0.1303 -0.0218
10896W        W27370  16.972   4.358  11.678  0.0647  0.0042  0.3210
10897W        W27371  16.333  10.169  13.261  0.1512  0.2522  0.3392
10898W        W27372   6.128   9.461  11.232  0.0874  0.0788  0.1077
10899W        W27373   8.843  16.369   0.628  0.1162 -0.1421  0.1193
10900W        W27374   0.136  16.386   3.669  0.0586  0.1881 -0.0842
10901W        W27375   5.200  13.351  13.880  0.3565 -0.0846 -0.0984
10902W        W27376  16.012   5.738   3.436  0.1188 -0.3626  0.0146
10903W        W27377   9.022  11.558  11.669  0.1662 -0.1585 -0.1243
10904W        W27378  18.093  17.263  12.398  0.0110 -0.0583  0.4261
10905W        W27379  15.126  11.200  14.199 -0.0004 -0.3638  0.4902
10906W        W27380   8.496  12.471   0.952  0.0455  0.0131  0.1175
10907W        W27381  11.897   6.857  12.556  0.3083 -0.1882  0.1562
10908W        W27382   0.382   7.864  11.816  0.0133  0.2976 -0.0176
10909W        W27383   9.801   3.849  10.277 -0.2182  0.3786 -0.1509
10910W        W27384  15.492   8.905   2.598 -0.2162 -0.1596  0.3063
10911W        W27385   8.640   7.766  12.122 -0.1174  0.1832  0.1620
10912W        W27386   8.616   4.903  10.356  0.2813  0.0163  0.2615
10913W        W27387  16.362  14.683  14.362 -0.1216  0.0278  0.0122
10914W        W27388  18.644  12.297   2.608 -0.1327  0.2319  0.1994
10915W        W27389  19.200   1.122  13.462 -0.1161 -0.1576 -0.2546
10916W        W27390   8.148  16.242   3.354  0.2109  0.0807  0.4193
10917W        W27391  10.531  13.537  12.687  0.2201 -0.1813  0.0133
10918W        W27392  14.910  13.075   5.905 -0.0088 -0.0870 -0.1291
10919W        W27393   5.343   8.220  11.287  0.4485 -0.1096  0.3737
10920W        W27394  11.047   0.188   5.081 -0.0715  0.0339 -0.2403
10921W        W27395  11.737  18.740   1.534 -0.0245  0.1778 -0.1233
10922W        W27396   6.923   1.139   4.246  0.0157  0.1494 -0.0403
10923W        W27397  12.722  11.387  14.639 -0.0239  0.0618 -0.1299
10924W        W27398  12.675  17.233   4.753 -0.0917  0.1080  0.0329
10925W        W27399   2.196   1.088  14.717  0.1787  0.2553 -0.0250
10926W        W27400   2.004   6.860  10.636 -0.3841  0.0216 -0.0565
10927W        W27401   9.932   4.202   3.453  0.0529 -0.0895 -0.3118
10928W        W27402   7.922   3.673   9.871 -0.1922 -0.4247  0.1180
10929W        W27403   3.065  15.615   2.339  0.2018 -0.1755 -0.0474
10930W        W27404  11.632   6.912   0.590  0.2134 -0.0881  0.0314
10931W        W27405  17.224  17.649  14.105  0.0330 -0.2493 -0.0504
10932W        W27406  10.315   8.250   2.347 -0.0399  0.2624  0.2106
10933W        W27407  13.493   5.964   5.540 -0.1892 -0.4152  0.0230
10934W        W27408  15.056   4.949   0.475  0.0003  0.0036 -0.0464
10935W        W27409  18.586   3.666   9.857  0.3654  0.1491 -0.0233
10936W        W27410  13.210   9.269  11.088 -0.2006  0.1707  0.4049
10937W        W27411  11.402   5.055   3.944  0.0047 -0.1308  0.1396
10938W        W27412   1.179   6.915  13.711 -0.0387  0.0854  0.1434
10939W        W27413  12.345   9.333  12.750 -0.1323 -0.3003 -0.0029
10940W        W27414  14.981   1.170  14.808 -0.1635  0.2157 -0.1069
10941W        W27415   9.733   4.977   1.669 -0.0287  0.2446  0.0398
10942W        W27416  16.835  18.271  10.957  0.1592 -0.0301  0.3471
10943W        W27417   1.783  11.375   4.415  0.2347 -0.3010 -0.0859
10944W        W27418   8.551  10.799  10.409 -0.0149 -0.1172  0.2475
10945W        W27419  16.303  11.248   2.822  0.1729 -0.1091 -0.0847
10946W        W27420  18.943  12.256  13.919 -0.0142  0.0741 -0.2561
10947W        W27421   1.102  12.855   4.642 -0.3951  0.0686 -0.2477
10948W        W27422  13.800  11.748  14.090 -0.2314 -0.0723  0.2307
10949W        W27423  13.677   2.958   2.246  0.3629 -0.3498  0.1977
10950W        W27424  16.857   6.464  12.893 -0.1051 -0.0777 -0.0949
10951W        W27425  12.523  10.529  10.861 -0.3265  0.1776 -0.0313
10952W        W27426  10.320  18.748   1.849 -0.3732  0.0707  0.2610
10953W        W27427   3.854   8.879   0.428  0.0369 -0.0088 -0.1260
10954W        W27428  16.180   1.917  14.590 -0.0846 -0.0054  0.1094
10955W        W27429  15.553  18.876  13.482 -0.2217 -0.1082 -0.0674
10956W        W27430   0.076   1.457   9.673 -0.0777  0.1018  0.1952
10957W        W27431   2.411   4.480   4.144 -0.1002  0.1421  0.1291
10958W        W27432   2.243  13.791  11.382  0.0138  0.1967  0.0909
10959W        W27433   5.247   2.594  10.982  0.1150 -0.2508  0.0155
10960W        W27434   6.612  17.000   2.783  0.4870  0.0571 -0.0156
10961W        W27435  14.222   8.008  14.346 -0.1515 -0.0557  0.1973
10962W        W27436   2.752   3.377   4.302 -0.3045 -0.0731  0.2360
10963W        W27437  17.069  13.332  13.450 -0.0954  0.2100  0.0348
10964W        W27438   4.349  11.283   0.786 -0.0526 -0.0206 -0.4484
10965W        W27439  13.003  16.271  13.762  0.1655  0.0419  0.0372
10966W        W27440   7.733  18.146   4.509  0.0968  0.1498 -0.2082
10967W        W27441  16.435  13.149  13.645 -0.0721  0.1303 -0.2458
10968W        W27442  10.800   3.388  13.139  0.0255  0.0672  0.2163
10969W        W27443  11.708   0.591  12.464 -0.0573 -0.3074 -0.3455
10970W        W27444  19.158  12.403  12.547  0.3316 -0.2010  0.1630
10971W        W27445   2.473   8.843  13.705  0.1945 -0.0053  0.2454
10972W        W27446   3.927  13.125  10.895 -0.0254 -0.4154 -0.1309
10973W        W27447   9.171   8.089   2.614  0.1002  0.3803  0.2728
10974W        W27448   6.537   3.363  10.051  0.0853  0.2415 -0.0930
10975W        W27449  10.192   9.967  13.555  0.1861 -0.0022  0.2548
10976W        W27450   8.085   2.428   0.964 -0.2098  0.1883 -0.2570
10977W        W27451  19.065  12.349   0.496 -0.1313  0.0527 -0.1657
10978W        W27452  16.417  11.967   4.684 -0.1786  0.1070 -0.0603
10979W        W27453  13.959   3.305   0.322 -0.1607 -0.2146 -0.0066
10980W        W27454  14.089  17.373  12.905  0.2823  0.1438  0.0478
10981W        W27455  10.725  12.901   2.454  0.0516 -0.2037 -0.1683
10982W        W27456  11.483   7.405  11.170  0.0630 -0.0573  0.1486
10983W        W27457   8.155  11.086   1.294  0.2336 -0.2181 -0.0073
10984W        W27458   3.378  15.676   0.716 -0.1972  0.4578  0.0451
10985W        W27459   7.661  11.648  14.753  0.0735 -0.1218  0.1864
10986W        W27460  16.084  14.476   5.403 -0.2008 -0.3971 -0.2672
10987W        W27461   4.941   6.686   5.128  0.2470  0.2054  0.3310
10988W        W27462  17.988   2.813  13.565 -0.4640  0.1121 -0.2880
10989W        W27463   0.968  11.039  12.613  0.0294  0.0557 -0.0672
10990W        W27464   3.630  17.740  10.866 -0.0669 -0.3152  0.1109
10991W        W27465  14.260   4.649  10.211 -0.1971  0.1550 -0.1636
10992W        W27466   2.180  13.959  10.925  0.0770 -0.0059  0.2551
10993W        W27467  19.062   2.139  12.142  0.0564 -0.3466  0.4110
10994W        W27468   5.828  10.731   2.973  0.1403  0.0398 -0.0509
10995W        W27469   4.961  10.511   1.297  0.2669 -0.0214 -0.0714
10996W        W27470  15.051   2.628   3.995 -0.0856 -0.2243  0.1105
10997W        W27471   2.090  17.158  11.717  0.0245 -0.1167 -0.0668
10998W        W27472  15.690  14.902  11.687  0.0541 -0.2349  0.1322
10999W        W27473  17.858   6.779   1.160 -0.1853  0.0494  0.4560
11000W        W27474  18.644   5.446   1.112 -0.1744  0.3332  0.0568
11001W        W27475  15.154   6.270  13.154  0.0503 -0.1115 -0.1497
11002W        W27476   9.139   5.049  10.449  0.4321  0.0938  0.1394
11003W        W27477  17.354  15.783   3.061  0.2332  0.0969 -0.3180
11004W        W27478   8.055   3.721   1.505  0.2125  0.0052 -0.0939
11005W        W27479  11.222   0.896  10.069  0.2274  0.2032 -0.0646
11006W        W27480   3.159  19.324   4.499 -0.0827 -0.1785 -0.2034
11007W        W27481   5.868   7.018  11.292  0.2686  0.0553 -0.0953
11008W        W27482  16.085   2.180  10.713  0.1292  0.2021  0.0819
11009W        W27483   4.044  14.950   2.999 -0.2950 -0.0776 -0.2173
11010W        W27484  14.941  11.931  11.527 -0.1228 -0.4025 -0.2986
11011W        W27485   8.067   3.834  12.794 -0.0415 -0.2712 -0.0050
11012W        W27486  18.503   8.331  10.772 -0.2563  0.1175 -0.1190
11013W        W27487  17.512  14.605  13.057 -0.0843 -0.5864 -0.0406
11014W        W27488   0.939   7.132   4.541 -0.0230 -0.0146  0.3198
11015W        W27489  14.653   1.320   3.619  0.1687  0.1166 -0.1885
11016W        W27490  12.264   5.410   0.781  0.3060  0.0733  0.0285
11017W        W27491  17.326  10.878   0.924  0.0202  0.2928 -0.0174
11018W        W27492   8.703  10.151  11.062 -0.1427 -0.0971 -0.0640
11019W        W27493  17.221  18.965   4.445  0.1117 -0.1578  0.0350
11020W        W27494  17.012   9.162  13.442  0.2565 -0.3015  0.1042
11021W        W27495   6.797   6.231   4.698  0.0338  0.2174 -0.1432
11022W        W27496   2.273   3.291   0.724  0.2810  0.0244 -0.0637
11023W        W27497   1.823   5.334   1.117  0.0553 -0.0820  0.1613
11024W        W27498   0.518   2.412  13.317  0.1975 -0.3301 -0.0148
11025W        W27499  14.819   8.043  12.869 -0.0226 -0.0667 -0.0206
11026W        W27500   3.265   3.118  10.182  0.0363  0.2320  0.2052
11027W        W27501   8.301   0.278  11.992  0.4311  0.0812  0.1804
11028W        W27502   9.192   0.604   4.729  0.2295 -0.0242 -0.0212
11029W        W27503  17.691   0.551   9.352 -0.1696 -0.0587  0.5327
11030W        W27504  18.149   3.723  13.259 -0.1855  0.2662  0.1582
11031W        W27505   7.362  17.638  13.209 -0.3476 -0.3463  0.1142
11032W        W27506  16.965  10.258  11.480  0.1958 -0.1009 -0.0622
11033W        W27507   4.937   7.525  11.490 -0.1639  0.0847 -0.1797
11034W        W27508  16.926  12.977   4.520 -0.1032 -0.2067 -0.0766
11035W        W27509  18.100   3.193   3.191 -0.1396  0.1345  0.0863
11036W        W27510  17.110  12.599  11.295  0.0051 -0.1177 -0.0466
11037W        W27511  18.376  12.213  12.085  0.2352 -0.1386 -0.0453
11038W        W27512  18.163  16.055  14.827  0.0567  0.0543 -0.2298
11039W        W27513  12.848  16.068  11.613  0.1621 -0.0064  0.0604
11040W        W27514  10.386   1.078  11.682  0.2475  0.1231  0.3830
11041W        W27515  10.359  14.389  11.313 -0.1801  0.4144 -0.0506
11042W        W27516   3.939   3.155  12.885  0.0926  0.1599  0.0354
11043W        W27517   9.179  15.975  11.370  0.2125 -0.2316  0.0043
11044W        W27518   2.018   2.811   0.995 -0.1975  0.3140  0.0487
11045W        W27519  11.285   3.103   0.642  0.0279 -0.4399  0.1113
11046W        W27520   6.986   2.125   3.513 -0.1828  0.2699  0.1780
11047W        W27521   7.349   8.413  13.312 -0.0565  0.2262  0.0847
11048W        W27522   6.072  12.723   2.409 -0.0248 -0.2025 -0.1408
11049W        W27523   0.627   1.030   0.968  0.0379 -0.2277  0.0211
11050W        W27524   4.091  18.617  10.778 -0.0455  0.0483  0.0397
11051W        W27525  17.201  12.850   4.009  0.0783  0.0762  0.0286
11052W        W27526  16.450  15.344   5.687 -0.2138  0.1509 -0.1696
11053W        W27527   4.958   0.255  11.348  0.4376  0.0352 -0.1397
11054W        W27528  17.173   9.278  14.813 -0.2391 -0.2553  0.3338
11055W        W27529  15.003   7.278   1.662 -0.1016 -0.1392 -0.1220
11056W        W27530  14.309  17.024   5.004 -0.0316  0.0000 -0.2757
11057W        W27531   4.389  17.765  14.327 -0.0478 -0.2462 -0.2521
11058W        W27532  10.226   9.675   0.157  0.0475  0.0217 -0.1329
11059W        W27533   3.036   8.837  10.817  0.4461  0.0419  0.1085
11060W        W27534   7.529   6.792   0.788 -0.3282 -0.0797 -0.0271
11061W        W27535  16.037  10.293  13.689 -0.0511  0.2652 -0.2310
11062W        W27536  16.599   4.320   5.033  0.2888  0.2199 -0.2641
11063W        W27537  17.068   0.756   3.179 -0.2684  0.1134  0.0939
11064W        W27538  17.146  15.770  12.471  0.1088  0.0570 -0.3417
11065W        W27539   6.754  16.288   9.802  0.0935 -0.0087 -0.1577
11066W        W27540  14.662   6.180  10.606 -0.2472  0.1949  0.0090
11067W        W27541   4.748  16.865   0.501 -0.1645  0.0197 -0.1086
11068W        W27542   8.962   7.150  11.379 -0.0217  0.1185  0.0724
11069W        W27543   7.174   2.786  11.878  0.0623  0.5984  0.1579
11070W        W27544  19.070   3.961  12.863  0.0453  0.0001  0.0615
11071W        W27545  10.214  13.443   0.000  0.0026 -0.1335  0.0357
11072W        W27546  13.799   7.470  11.855 -0.0932 -0.0414 -0.0240
11073W        W27547  13.871  16.492   4.237 -0.0961  0.3595 -0.0214
11074W        W27548  11.527   9.888  10.272 -0.0089 -0.1803 -0.1418
11075W        W27549  11.400   6.684  12.303  0.2013 -0.2090  0.1752
11076W        W27550   8.332   7.438   2.865  0.3007 -0.0834 -0.0282
11077W        W27551  12.802  16.017   5.656  0.0493  0.3753  0.1307
11078W        W27552  18.057   8.739  10.844  0.0549  0.2119 -0.2215
11079W        W27553   5.715  17.904  10.496  0.0362 -0.3517  0.3651
11080W        W27554   4.078   9.935   2.995 -0.4285  0.2774 -0.1917
11081W        W27555  16.550   5.606  11.390 -0.1701  0.0792  0.0469
11082W        W27556  16.772  11.759   1.171 -0.0147 -0.2396  0.0826
11083W        W27557  12.308   0.880   0.802 -0.2390 -0.0213  0.3910
11084W        W27558  16.353  18.523  10.735 -0.3927  0.0532 -0.1983
11085W        W27559   4.972  12.304  13.798  0.1339  0.0631  0.0315
11086W        W27560   3.727  11.817   1.295 -0.2516  0.1067 -0.2252
11087W        W27561  19.273   4.516  12.341 -0.1718  0.0825 -0.0566
11088W        W27562   2.920  12.098  13.257 -0.2728 -0.0355  0.1422
11089W        W27563   7.002  16.713  11.617 -0.1056 -0.0757  0.0461
11090W        W27564   3.589  11.575   2.236  0.1805 -0.0066 -0.2378
11091W        W27565   8.011  18.678   1.258  0.1594 -0.2444 -0.0562
11092W        W27566  16.930  14.402  11.423  0.2795  0.3293  0.1601
11093W        W27567  15.828   0.461  10.922  0.0356 -0.2126  0.1012
11094W        W27568  18.242   9.172  10.988  0.0312 -0.4597 -0.2083
11095W        W27569   4.637   6.516   3.426 -0.0926 -0.0992  0.4110
11096W        W27570   2.221   3.421  13.428  0.4090 -0.0483 -0.0643
11097W        W27571  11.612  16.996   0.498 -0.0050  0.0759 -0.1636
11098W        W27572  15.770  14.089   0.528 -0.0884 -0.3301  0.1344
11099W        W27573  13.222   8.722   2.001  0.4130 -0.3277 -0.4777
11100W        W27574  11.389  11.990   0.924 -0.0657 -0.2084 -0.1040
11101W        W27575  11.514   2.470  10.298 -0.0666 -0.1844  0.3322
11102W        W27576  15.936  10.919   2.704 -0.3881  0.2841 -0.1167
11103W        W27577  12.998   0.326  14.657  0.1464 -0.2686 -0.0129
11104W        W27578  10.199  15.077  13.538 -0.3517  0.2295 -0.3776
11105W        W27579   2.096   5.433   5.669  0.2703 -0.0763 -0.1423
11106W        W27580   9.421   4.347   2.594 -0.2237 -0.0529  0.0143
11107W        W27581  14.712   3.420   0.748  0.1058  0.2934  0.0778
11108W        W27582  13.131  10.506   3.507  0.2943  0.1362  0.0768
11109W        W27583   4.539  15.505  10.926 -0.1305  0.1793  0.0853
11110W        W27584   1.990   6.625  12.043  0.0595 -0.3056 -0.0475
11111W        W27585   8.287  18.239   3.480  0.3451  0.0078  0.0929
11112W        W27586   3.373   9.637  13.769  0.1163  0.1806 -0.2310
11113W        W27587   9.907   6.698   3.427 -0.0609 -0.0174  0.3194
11114W        W27588  16.510   3.931  10.848 -0.1085 -0.0758 -0.2903
11115W        W27589   0.643  13.743   4.955 -0.0185 -0.0322 -0.0208
11116W        W27590   7.723   6.690   3.986  0.0433  0.2601  0.0344
11117W        W27591   4.846  12.129  10.214  0.1370  0.1158 -0.0349
11118W        W27592   2.895  13.495   0.085  0.0125  0.0126  0.0840
11119W        W27593   8.196   6.008  14.018  0.2055 -0.2555 -0.1423
11120W        W27594  12.991   0.531  13.030 -0.1422 -0.2954 -0.0590
11121W        W27595  14.684   5.087   3.325  0.0282  0.0111  0.0856
11122W        W27596   2.203  17.643   4.714  0.3076  0.2427  0.0525
11123W        W27597   2.381  17.838   3.444  0.2369 -0.2183  0.0896
11124W        W27598   6.377  14.049  12.642 -0.0791 -0.1274 -0.1319
11125W        W27599   7.654  13.574   1.058  0.0051  0.0707 -0.2362
11126W        W27600   8.534   9.844  14.125  0.1049 -0.0664 -0.4142
11127W        W27601   5.053   1.128   1.672 -0.4347  0.2517  0.2174
11128W        W27602   7.187   9.259  13.004 -0.2515  0.5273 -0.0553
11129W        W27603  16.568   7.303  14.021 -0.0722  0.1994  0.0071
11130W        W27604   9.737  18.444   5.116  0.2917  0.1795  0.3016
11131W        W27605  15.333  10.186  12.529 -0.0516 -0.1377  0.0318
11132W        W27606  13.407   0.281   2.281 -0.2034  0.2731 -0.0709
11133W        W27607  11.301  16.737  14.564  0.0281 -0.1661  0.0667
11134W        W27608   6.684  19.098  13.763  0.0907 -0.0816  0.0665
11135W        W27609  11.069  14.885   0.875  0.1662  0.1398  0.1165
11136W        W27610   1.594  13.749   4.769 -0.4114 -0.0539  0.3294
11137W        W27611   4.536   4.555   2.773  0.1505  0.0517 -0.1439
11138W        W27612  10.129  12.989  14.789 -0.0620 -0.1454  0.0199
11139W        W27613  18.281  12.051  12.967 -0.2566 -0.1261  0.0192
11140W        W27614   3.406  13.487  12.835  0.1722 -0.0078  0.1235
11141W        W27615   2.660   1.800  10.552 -0.0875 -0.4600 -0.3473
11142W        W27616  10.027  10.312   1.881 -0.2509 -0.4202 -0.1814
11143W        W27617  13.575  10.392   0.327  0.0913  0.2042  0.2405
11144W        W27618  10.412   4.497  13.007  0.3429 -0.1631 -0.0525
11145W        W27619  16.181   9.966  11.004 -0.1596 -0.1886 -0.1184
11146W        W27620   6.006  18.772  13.445  0.2593  0.2252 -0.1128
11147W        W27621   3.372   7.369   3.498 -0.2610  0.1680 -0.1682
11148W        W27622   5.637  13.653  13.988 -0.1532 -0.2776 -0.2893
11149W        W27623  15.818  18.580  12.553  0.2337  0.0535 -0.0258
11150W        W27624  15.106   4.782   4.887 -0.3401 -0.1645  0.0133
11151W        W27625  10.780   7.198   1.679 -0.2513 -0.0880 -0.1695
11152W        W27626   2.787   0.216  13.779 -0.3208 -0.2326  0.1088
11153W        W27627  14.040  11.227   3.176  0.1136 -0.1929 -0.0394
11154W        W27628  19.370   8.165  10.563  0.1792  0.1013 -0.1168
11155W        W27629   3.072   0.083  14.326  0.2355  0.1802 -0.1371
11156W        W27630  19.285  16.587   3.304  0.0424 -0.0519 -0.0194
11157W        W27631   3.566  15.682  12.890  0.1096  0.2210  0.1982
11158W        W27632  12.063   8.172  10.244 -0.0747  0.4914 -0.1439
11159W        W27633   1.125  18.205   4.263  0.0455 -0.0986 -0.1483
11160W        W27634   3.334   5.490  12.709  0.1773  0.0398  0.3352
11161W        W27635  17.488   0.130  11.510  0.1885  0.1631 -0.0495
11162W        W27636  13.421   0.035   0.100  0.3691 -0.1243  0.1949
11163W        W27637  15.273   5.322  12.974  0.1077  0.1698  0.5642
11164W        W27638   1.394   0.610  11.783  0.2659 -0.1162 -0.2212
11165W        W27639  17.841  16.993   2.631  0.3617  0.0585  0.2177
11166W        W27640  11.908   9.884  14.237 -0.0413  0.1386 -0.0847
11167W        W27641  17.811   7.997   5.244  0.1497 -0.0545  0.4175
11168W        W27642   5.046  15.873   5.446 -0.1578 -0.2186  0.3139
11169W        W27643  18.782   1.774   3.967  0.0363  0.2478  0.0353
11170W        W27644  14.653   5.218   0.299 -0.1624 -0.1086  0.0049
11171W        W27645   5.001  12.827  11.267 -0.0580  0.1588  0.0796
11172W        W27646   3.151   6.428   4.678 -0.0024  0.2621 -0.0176
11173W        W27647  19.289   4.778  11.731 -0.4896  0.1359 -0.0186
11174W        W27648  17.986  15.120   0.329 -0.1043  0.1661 -0.0209
11175W        W27649   5.749  16.512  12.586  0.1776  0.2212  0.2150
11176W        W27650  11.130   7.119  11.997  0.2758  0.0318  0.1034
11177W        W27651  19.133   9.919   4.472 -0.0460 -0.1820  0.0328
11178W        W27652  12.401   4.846  14.136 -0.0317  0.2582  0.0520
11179W        W27653  19.070  14.312  11.044  0.1876 -0.1259  0.0201
11180W        W27654   3.234   7.936   1.395 -0.0814  0.0558 -0.0273
11181W        W27655   7.979   7.821  13.485  0.0397  0.1579 -0.1348
11182W        W27656  18.227  18.187   3.040 -0.0194 -0.1097 -0.0459
11183W        W27657   0.509  13.009   0.349 -0.0104 -0.1739  0.0005
11184W        W27658  14.447   8.758  12.249  0.0802 -0.0118  0.0281
11185W        W27659   6.180  15.038  10.995  0.1479  0.0669 -0.2662
11186W        W27660   8.239   4.765   9.858  0.3781  0.2205 -0.2162
11187W        W27661   4.778  11.952  13.204 -0.0230 -0.1229  0.1223
11188W        W27662   2.717   5.058   3.707  0.0205  0.1013  0.2094
11189W        W27663   4.931   0.252   2.681  0.0883  0.2593  0.1058
11190W        W27664  18.149   0.712  11.660  0.3087  0.2343 -0.1596
11191W        W27665   5.940  19.297   1.933  0.1148 -0.0825  0.0370
11192W        W27666   9.509   2.480   9.511  0.0177  0.0678 -0.1827
11193W        W27667   8.403   6.943   0.246  0.2012  0.0121  0.3715
11194W        W27668   7.396  11.013  13.610  0.0089 -0.2220  0.3231
11195W        W27669   4.339  13.143  12.789  0.2792  0.2020  0.1001
11196W        W27670  19.073  13.887   5.122  0.0041 -0.0993  0.2216
11197W        W27671   0.124   9.386   0.837 -0.0167  0.1715  0.1032
11198W        W27672   7.336  10.130   3.941  0.0873 -0.0334  0.1148
11199W        W27673  15.458   0.609   2.525 -0.2279 -0.1178  0.3881
11200W        W27674  13.050  16.861  11.288  0.1020 -0.2100  0.0724
11201W        W27675   1.037   2.509  13.401 -0.1834  0.0264  0.1819
11202W        W27676  11.646   0.285  11.390  0.0779 -0.3320  0.4118
11203W        W27677   3.888   5.055  12.760  0.1612 -0.0345  0.0125
11204W        W27678   8.915  17.110   2.029 -0.1316  0.0893  0.0886
11205W        W27679   9.970  18.162  14.688  0.2338 -0.1830  0.2273
11206W        W27680  17.163  14.655   0.720  0.0239  0.2684 -0.0722
11207W        W27681   5.389  13.871  13.534 -0.2464  0.0397  0.1736
11208W        W27682  17.723  14.353   4.578  0.2681  0.2541 -0.1914
11209W        W27683   3.834  19.261  10.432  0.1258  0.1865  0.1906
11210W        W27684  18.263   4.092   3.547  0.3752 -0.0198  0.1956
11211W        W27685  13.791  13.653   4.734  0.0474 -0.1405 -0.0834
11212W        W27686  15.228   5.384  11.556  0.0143  0.2707 -0.1011
11213W        W27687  11.826   1.115   2.162 -0.0369 -0.0115  0.1913
11214W        W27688   7.207   1.346   5.086  0.2237 -0.0620  0.0184
11215W        W27689  14.957   7.645  10.669 -0.1359 -0.2433 -0.0794
11216W        W27690  12.925   6.287   0.779  0.2448  0.3345 -0.1167
11217W        W27691   4.355   4.684   1.863 -0.2312  0.1276 -0.0137
11218W        W27692  18.255   0.310   4.940 -0.0466 -0.0489  0.1818
11219W        W27693   9.714   4.128  14.312 -0.0669 -0.0251 -0.0518
11220W        W27694  10.295  13.085  12.817 -0.2913 -0.0949  0.4219
11221W        W27695  13.944   2.588  10.713 -0.0942 -0.0925 -0.2075
11222W        W27696  11.916   4.934   3.941  0.0423 -0.1408 -0.0582
11223W        W27697  15.516   1.651   3.270 -0.0149  0.0824  0.2686
11224W        W27698  13.954   0.979   0.494 -0.2267  0.1006 -0.1043
11225W        W27699  19.023  13.345  13.773 -0.2136  0.0344  0.2761
11226W        W27700  17.552  15.329  10.954 -0.2135 -0.3850 -0.2454
11227W        W27701  16.784   8.319   3.793 -0.5088 -0.0092 -0.2470
11228W        W27702   1.429  18.534  12.602 -0.0403  0.2747  0.0796
11229W        W27703   9.501   4.048  13.693  0.3613  0.2213 -0.0596
11230W        W27704   5.623  10.401   2.476  0.0821 -0.0901  0.0600
11231W        W27705  17.417  12.540   3.495  0.0307  0.0685 -0.0311
11232W        W27706  15.510  17.278   3.786 -0.2777 -0.0053 -0.2373
11233W        W27707  17.835  15.492   3.819  0.5594 -0.2038  0.1768
11234W        W27708  11.087  10.164  12.573 -0.0643  0.2610  0.0272
11235W        W27709   0.410  18.003   1.413 -0.1040 -0.4000  0.1887
11236W        W27710  15.804   2.704   0.924  0.0141 -0.0373 -0.0116
11237W        W27711   7.246   5.635  13.947 -0.0734 -0.2840 -0.0050
11238W        W27712   4.815   3.004  10.107  0.2883 -0.0621  0.1693
11239W        W27713  13.511  17.907  11.634  0.0760  0.2752 -0.1811
11240W        W27714  19.001   2.752   0.220  0.1872  0.0720  0.2394
11241W        W27715   3.791  16.157   4.087  0.0516 -0.0427  0.1844
11242W        W27716   9.107   3.548  14.014  0.3927  0.1635 -0.2350
11243W        W27717   9.452   6.502  11.347 -0.1088  0.0742 -0.3145
11244W        W27718  10.546  10.497  10.642 -0.2056 -0.0425  0.3323
11245W        W27719  18.663  15.370   0.425  0.1091 -0.2810  0.0043
11246W        W27720   6.583   7.500   2.719 -0.2333  0.1470  0.1589
11247W        W27721  19.123   6.043  14.084 -0.0598 -0.0477  0.1206
11248W        W27722   0.642  17.223   0.239 -0.2062 -0.1402 -0.1215
11249W        W27723  10.682   8.425  10.625  0.1236 -0.0190  0.2507
11250W        W27724   0.420   1.886  10.578  0.0988  0.1230  0.2673
11251W        W27725  16.612  10.965  10.574 -0.3822  0.0067 -0.2099
11252W        W27726  18.647   8.381   1.301  0.0301 -0.0321  0.1403
11253W        W27727   7.241  10.770   3.787 -0.1054  0.3062 -0.0085
11254W        W27728  18.900  15.381   4.592  0.1083  0.0293  0.0222
11255W        W27729  12.208   9.023  10.830  0.1280 -0.3388  0.0227
11256W        W27730   5.747   5.491   0.358 -0.0813  0.2425 -0.1326
11257W        W27731   0.712   9.352   2.832  0.3554  0.0729 -0.3782
11258W        W27732  14.394   7.000   0.951 -0.0033 -0.0342  0.2031
11259W        W27733  16.045   0.040   1.405  0.1316 -0.0529 -0.3530
11260W        W27734   5.154  13.568  11.888 -0.1350 -0.2225  0.1339
11261W        W27735  15.410  14.203   4.682  0.1435 -0.1604  0.2675
11262W        W27736  15.828  19.054   0.515 -0.0204 -0.0853  0.0657
11263W        W27737  13.309  12.262  10.739 -0.1629  0.1695 -0.1910
11264W        W27738   2.161  15.677   0.765 -0.1507  0.0769 -0.3610
11265W        W27739   0.194  11.530  11.551  0.1071  0.1109 -0.0886
11266W        W27740   4.579  17.537   3.463 -0.1852  0.1922 -0.0738
11267W        W27741   2.594   1.499   3.926  0.2092  0.1657 -0.2356
11268W        W27742  15.378   3.156   2.886  0.0900  0.0504  0.1749
11269W        W27743   9.731  17.221   3.285  0.0439  0.1607  0.0722
11270W        W27744  14.438   9.859  11.275 -0.0017  0.0191  0.0053
11271W        W27745   2.570   1.450  12.412  0.0662 -0.1561 -0.1690
11272W        W27746  18.501  18.594   1.562  0.1203 -0.0197  0.0226
11273W        W27747  13.558   5.271  13.556  0.3753  0.2058 -0.4116
11274W        W27748   9.373   9.541  13.644 -0.0691  0.0867  0.0580
11275W        W27749   7.524   5.348   1.076  0.0615  0.0309  0.2488
11276W        W27750  14.204  12.747   0.818 -0.1756  0.0676 -0.4382
11277W        W27751   8.972  18.018   2.335 -0.0494 -0.3477 -0.0187
11278W        W27752  18.071   3.101   4.768 -0.0454 -0.0021  0.0288
11279W        W27753   9.019   2.803  13.166  0.1732 -0.0007  0.1695
11280W        W27754  17.972  14.670   1.722  0.0293 -0.4563 -0.1973
11281W        W27755   6.693   9.076   9.694 -0.3152  0.2229 -0.0756
11282W        W27756   4.469   8.403   3.514 -0.2127 -0.1303 -0.0946
11283W        W27757  15.731   2.736   1.708 -0.0905  0.2822  0.1936
11284W        W27758  16.266  10.082   5.036  0.1298 -0.1143  0.1803
11285W        W27759   4.337   1.868  12.428  0.0192 -0.0322 -0.3699
11286W        W27760  14.709  18.715   2.645 -0.3731 -0.2664  0.1976
11287W        W27761   0.521   1.676  11.826  0.1349  0.1462 -0.1270
11288W        W27762   9.908  17.857  11.510  0.1265  0.2159  0.0276
11289W        W27763   6.231   2.517   3.281  0.0721  0.0744  0.1547
11290W        W27764   9.518   3.736  11.074 -0.0599 -0.0003  0.4170
11291W        W27765   2.795  14.053   4.965  0.0473  0.1349 -0.0357
11292W        W27766  14.279   5.901  10.748 -0.2309  0.3521  0.1433
11293W        W27767   3.427  10.217  14.069 -0.0445 -0.3416 -0.0335
11294W        W27768  19.038  15.630  10.690 -0.2384 -0.0445 -0.0143
11295W        W27769  10.030  12.517   2.687 -0.0590 -0.0036 -0.1876
11296W        W27770  16.998  10.832  13.133 -0.1871  0.1414  0.0129
11297W        W27771   6.900   0.060  12.510 -0.2515  0.1108  0.1044
11298W        W27772  15.991  14.276  13.217  0.1686  0.0706  0.2527
11299W        W27773  12.730   7.053  12.157 -0.3673  0.3148  0.1413
11300W        W27774  10.842  17.248   1.704 -0.3288  0.1726  0.0055
11301W        W27775  10.720   9.190   0.036 -0.2761  0.3026  0.2378
11302W        W27776  14.087   7.166   4.381 -0.1931 -0.1658 -0.2030
11303W        W27777   6.112   2.971  11.945  0.0683 -0.0438  0.0825
11304W        W27778  18.193  11.983   3.968  0.2524  0.1147 -0.1740
11305W        W27779  17.002  10.033   1.343 -0.0734 -0.0555  0.1259
11306W        W27780   1.597   6.251  12.283  0.2237  0.1491 -0.0394
11307W        W27781   1.106   9.478  10.849  0.4266  0.3461 -0.0992
11308W        W27782   6.266  18.902   3.804  0.3521  0.0391 -0.2311
11309W        W27783  15.651   3.737   2.547  0.2548 -0.0234 -0.0881
11310W        W27784  15.742   7.848   1.557  0.4045 -0.0647 -0.0705
11311W        W27785   5.292  13.926  13.024  0.2320 -0.0492  0.2324
11312W        W27786  11.751   8.533   3.645  0.2778 -0.0093  0.0066
11313W        W27787  17.042   9.544  12.084  0.0274  0.0650 -0.1576
11314W        W27788   9.797   4.138  13.343 -0.3935  0.0074  0.1706
11315W        W27789  17.966   8.558  12.568  0.0836 -0.1569 -0.1916
11316W        W27790   8.293   6.677   4.190  0.3587  0.0409  0.0549
11317W        W27791   5.896   0.154   4.255  0.2357  0.2771  0.2086
11318W        W27792  11.116  13.491   4.016  0.0259 -0.0419 -0.1777
11319W        W27793   4.219   4.744  13.436  0.3453 -0.1175  0.2587
11320W        W27794   3.963  14.039  12.966  0.1996 -0.2658  0.0135
11321W        W27795  11.069   1.966  12.580 -0.1092  0.0875 -0.0671
11322W        W27796  18.316   5.880   0.489  0.1590 -0.2076 -0.0557
11323W        W27797  19.339   8.635   4.326 -0.0589 -0.0969  0.1080
11324W        W27798  16.536  14.986   2.059  0.2105 -0.3444 -0.3629
11325W        W27799  14.440  16.749  13.614  0.0726  0.0979 -0.2206
11326W        W27800   7.950  14.356   4.880  0.5336  0.0900 -0.1645
11327W        W27801   6.241  18.132  12.333 -0.0053 -0.0327  0.3602
11328W        W27802   8.410  15.957  10.533 -0.3811  0.3802  0.2641
11329W        W27803  18.273  14.050  11.499 -0.0534  0.2865  0.2474
11330W        W27804  13.589  14.249   0.231  0.0600  0.1961  0.0398
11331W        W27805  12.724   2.487  11.709 -0.1916  0.2689  0.0728
11332W        W27806  14.910   0.979  12.297 -0.0387  0.3502 -0.1537
11333W        W27807   8.049   9.404   1.901  0.2496  0.2298 -0.1052
11334W        W27808   0.700   6.655  12.492 -0.0738  0.5342  0.2371
11335W        W27809   5.342  13.277   2.768  0.1552  0.0780  0.1920
11336W        W27810   5.418   4.346   3.860  0.1448  0.2429 -0.2208
11337W        W27811   2.793  11.721   2.661 -0.2936 -0.0327  0.1229
11338W        W27812  19.355   6.487  11.702 -0.1855  0.1749  0.1177
11339W        W27813   8.789   5.637  12.351 -0.1984  0.1546  0.1266
11340W        W27814  18.327   0.838   0.800  0.0897  0.5262 -0.0732
11341W        W27815   2.082   9.742   1.721  0.0358 -0.0213  0.0609
11342W        W27816   3.263   6.372  12.288  0.0550  0.1356 -0.0952
11343W        W27817  13.287   3.346   4.430 -0.1922  0.1302  0.3279
11344W        W27818  12.660   4.078   1.254 -0.1878  0.0417  0.1441
11345W        W27819   7.863  17.587   0.109 -0.0412  0.4647  0.0029
11346W        W27820  18.339  18.294   0.591  0.0187 -0.0091  0.0621
11347W        W27821  17.106   4.239  12.643  0.0539 -0.0456  0.0369
11348W        W27822   7.690  17.731   1.029  0.0220 -0.0236  0.0252
11349W        W27823   8.517   9.175   3.782 -0.5105  0.2211 -0.1144
11350W        W27824   4.522  10.308  14.795 -0.3392  0.1073 -0.1791
11351W        W27825   2.216   0.014  14.490 -0.0525 -0.2262 -0.2332
11352W        W27826  11.760   5.143   0.713 -0.0326  0.0726  0.0360
11353W        W27827  12.484   5.006   3.153 -0.1085  0.0755 -0.0329
11354W        W27828  10.458   8.294  12.266 -0.1264 -0.0375  0.0648
11355W        W27829  13.597  13.582   1.823  0.2285 -0.1257 -0.2719
11356W        W27830   2.546  18.530   4.774  0.0526  0.0041  0.1072
11357W        W27831  13.791  11.267   9.548  0.2677  0.0072 -0.1569
11358W        W27832   7.388  18.263  12.163 -0.1652  0.2595  0.0895
11359W        W27833  18.310  17.688  13.740  0.1139  0.2406 -0.0436
11360W        W27834  12.074   9.603   0.001  0.1438 -0.1705 -0.1618
11361W        W27835   9.153   3.121  13.541 -0.0182  0.1364 -0.0783
11362W        W27836  17.108   0.421   9.446  0.0969  0.0658 -0.1809
11363W        W27837  10.074  14.594   1.120  0.0826  0.0652 -0.0068
11364W        W27838   8.259   0.006  10.643 -0.1637  0.0562 -0.1724
11365W        W27839   6.991  10.309   2.580 -0.0341 -0.0543 -0.0943
11366W        W27840  16.151  17.774   0.971  0.2941 -0.2008  0.0531
11367W        W27841  11.305  13.173  14.559  0.0444 -0.0373  0.1049
11368W        W27842  16.139  18.505   2.959 -0.0075 -0.1189  0.2117
11369W        W27843   7.214  17.619  14.145  0.0139  0.1607 -0.0503
11370W        W27844  13.798  10.510   1.286  0.0676  0.2201 -0.1457
11371W        W27845   4.685  11.475   5.423  0.1673 -0.1821  0.0284
11372W        W27846   6.548  17.179  12.839  0.1424  0.3042 -0.0341
11373W        W27847  15.862   8.752   4.616  0.1728 -0.2127 -0.1708
11374W        W27848  17.934  13.003  11.048 -0.2052  0.2133 -0.0723
11375W        W27849   1.812  10.870   5.303  0.2862  0.0716 -0.0514
11376W        W27850  14.583  17.989   2.272 -0.0928 -0.0132  0.0567
11377W        W27851  13.321   7.364  14.011 -0.4778 -0.5387 -0.2385
11378W        W27852  14.849  14.203   4.121  0.2769  0.3102  0.0351
11379W        W27853   0.541   3.216   1.962 -0.1327 -0.0740  0.1666
11380W        W27854  16.850  12.701  12.136  0.1727  0.2812 -0.2348
11381W        W27855   0.922   0.709   1.172 -0.3768 -0.1126 -0.0879
11382W        W27856   6.596  12.370   1.234  0.0896  0.0055 -0.0770
11383W        W27857   5.419   3.853  11.026 -0.2278  0.1947 -0.0757
11384W        W27858   9.353   5.203  14.723  0.3012 -0.0482 -0.0606
11385W        W27859  10.907   3.008   0.311 -0.1654 -0.2898 -0.0595
11386W        W27860   2.437  11.650  10.962 -0.2581 -0.0580  0.1173
11387W        W27861  12.118   8.729  10.442  0.0904 -0.1703  0.0143
11388W        W27862  18.600  10.453   1.563  0.0138  0.1694 -0.1852
11389W        W27863   8.037  17.176   4.325 -0.1618  0.3072 -0.1023
11390W        W27864   9.405  17.422   2.926  0.1871  0.0520 -0.1078
11391W        W27865  10.676   5.184  14.849  0.0084 -0.0201  0.2968
11392W        W27866   2.667  16.799   1.077 -0.1796 -0.0319  0.0910
11393W        W27867   6.154  11.589   4.452 -0.1096  0.1851 -0.1141
11394W        W27868  15.673   4.732   3.867  0.1802  0.1621  0.0593
11395W        W27869   5.863  11.663  12.026 -0.0547 -0.1833 -0.0649
11396W        W27870   1.327  15.168   4.932  0.0403  0.0626 -0.3318
11397W        W27871   5.127   4.774  14.020  0.0001  0.0761  0.0192
11398W        W27872  15.253  18.744   2.491  0.0689  0.1146  0.0605
11399W        W27873   8.701   4.225  12.323 -0.2627 -0.0178 -0.0917
11400W        W27874  12.124   4.214   1.275 -0.1701 -0.1062 -0.0515
11401W        W27875   2.837   7.656  14.086 -0.3063 -0.2169 -0.1493
11402W        W27876   0.379   9.594  10.999 -0.1439  0.1288  0.0571
11403W        W27877  11.360   7.151   1.016 -0.0401  0.0877 -0.3255
11404W        W27878  16.335  13.382  14.571  0.1292 -0.0292 -0.4435
11405W        W27879   8.236   1.828  13.026  0.0929 -0.0618 -0.0089
11406W        W27880   3.640   9.727   2.915  0.2637  0.0732 -0.0834
11407W        W27881   6.891  12.351   0.811  0.2996 -0.1784  0.0564
11408W        W27882   4.541   7.379  11.208 -0.3002  0.1330 -0.0521
11409W        W27883  15.619  19.288   3.669 -0.1002  0.0953 -0.2826
11410W        W27884   7.377  12.259   0.869  0.1376 -0.2746 -0.0098
11411W        W27885  13.913   7.930   4.818  0.2767 -0.0291 -0.2759
11412W        W27886   2.136   9.129  13.223 -0.3353 -0.4299 -0.0271
11413W        W27887   3.695  18.582   0.548 -0.1429  0.1875 -0.0390
11414W        W27888  16.643   5.255  14.407 -0.0356 -0.1052  0.0945
11415W        W27889   1.109   4.111   3.298 -0.1823  0.2402  0.1628
11416W        W27890   1.501   9.971  14.333 -0.1393 -0.2973  0.2195
11417W        W27891   7.275   6.362  11.088  0.3998 -0.4809 -0.0225
11418W        W27892  11.949  15.792   3.348 -0.3339  0.1636  0.1369
11419W        W27893  15.451  11.910   4.668  0.0604 -0.2004 -0.3473
11420W        W27894  13.888  10.373  14.120  0.0115  0.1289 -0.0033
11421W        W27895  14.278  15.560   3.313 -0.0406  0.1917  0.0140
11422W        W27896   5.753  14.777   3.818  0.1176 -0.0768  0.0016
11423W        W27897  11.349  11.790  11.867  0.4338  0.2361 -0.1501
11424W        W27898   9.076   2.098   4.499  0.1202  0.1421 -0.0547
11425W        W27899   0.632   2.136  12.129  0.0279 -0.0900  0.1527
11426W        W27900  11.410   3.453  12.876  0.1658 -0.0340 -0.0775
11427W        W27901  12.982   3.027  11.048  0.1203  0.0152  0.0788
11428W        W27902  11.858  14.348   3.814  0.1023 -0.0268 -0.1691
11429W        W27903   1.847   9.136   2.823 -0.3910 -0.1417 -0.0404
11430W        W27904   4.121   3.990   2.595 -0.1488 -0.3169 -0.1338
11431W        W27905  19.210   2.968   3.049  0.1546 -0.0396  0.0178
11432W        W27906  14.120   2.800  13.590  0.4388  0.0150  0.1879
11433W        W27907  15.253  10.026  10.963  0.0638  0.0346  0.0932
11434W        W27908  17.158   5.469  12.224  0.0310  0.2009 -0.1370
11435W        W27909  14.412   8.667  14.804 -0.2172  0.0051 -0.0848
11436W        W27910   4.634  13.607  13.447  0.1517 -0.0085  0.0343
11437W        W27911   7.367   0.098   5.087 -0.0309 -0.1469 -0.1607
11438W        W27912  12.148  13.446   5.064  0.2047  0.1881 -0.3368
11439W        W27913  15.823  19.217  12.305  0.0853  0.2480  0.0763
11440W        W27914   6.508  12.890   0.429 -0.1310 -0.1982  0.2102
11441W        W27915  12.021  10.117   0.699 -0.3755  0.1450 -0.0624
11442W        W27916  12.944   7.812  14.099  0.4140 -0.1487 -0.0717
11443W        W27917  17.031   7.411   4.863  0.1300  0.0798 -0.0238
11444W        W27918   2.469   6.862  12.749 -0.2847 -0.2367 -0.2540
11445W        W27919   2.314  16.140  13.332  0.2860 -0.0313 -0.2168
11446W        W27920  17.174   5.567  13.364  0.2793  0.1016 -0.1825
11447W        W27921  16.538   7.668  10.213  0.0143  0.4911  0.2355
11448W        W27922   3.083  12.178   3.912 -0.2534  0.1059  0.1733
11449W        W27923  15.825  17.145   2.240 -0.0228  0.2053 -0.3451
11450W        W27924  16.799   9.068   4.470  0.2047  0.1635 -0.3218
11451W        W27925  14.177   3.195   0.885  0.0617 -0.0956  0.0648
11452W        W27926   3.518   4.335  10.353 -0.0515 -0.3644 -0.1151
11453W        W27927   0.018  13.566  12.914  0.2031  0.1251 -0.0247
11454W        W27928  16.296  15.263  11.735 -0.0026 -0.0027 -0.0456
11455W        W27929   2.334   7.367   0.497 -0.2559  0.3688 -0.0006
11456W        W27930   6.785   5.421   0.374  0.3890  0.0909 -0.0660
11457W        W27931   4.348  16.109   4.036 -0.1569  0.1133 -0.1681
11458W        W27932  18.086   3.153   3.814  0.3925 -0.1805 -0.0149
11459W        W27933  12.547  12.704   5.129  0.1507 -0.2339  0.2562
11460W        W27934  11.692   1.939  12.147 -0.2481 -0.1810 -0.1711
11461W        W27935   4.042   7.820  10.329 -0.3007 -0.1134  0.1465
11462W        W27936  19.206   3.453  13.592 -0.0140 -0.0875  0.1022
11463W        W27937   2.608   8.651   4.955  0.2906  0.0031  0.1050
11464W        W27938   3.817   4.178   3.637 -0.1700  0.0711 -0.2379
11465W        W27939  13.842   9.937  14.523  0.0735  0.1103 -0.1951
11466W        W27940   5.972  10.000   1.839 -0.0727 -0.1716  0.1307
11467W        W27941  11.638   4.602   4.193 -0.0317 -0.0171 -0.2218
11468W        W27942   9.018   6.673   1.790  0.3803  0.1674 -0.2674
11469W        W27943   0.826  18.454  12.579  0.1276  0.1176 -0.1191
11470W        W27944   6.414  11.298  11.677 -0.2307  0.1783 -0.0778
11471W        W27945   3.989  17.183   0.656 -0.0488 -0.2985 -0.2061
11472W        W27946  15.198   5.673   4.044  0.3393  0.0429  0.1494
11473W        W27947  17.597   0.863   1.950 -0.1805 -0.1146 -0.0563
11474W        W27948   2.522   6.378  12.447  0.2884 -0.1279 -0.0763
11475W        W27949   8.464   3.895   3.572 -0.0477  0.0539  0.1004
11476W        W27950  18.794   6.242   2.772  0.1175  0.2033 -0.2139
11477W        W27951   6.936   8.345  13.735 -0.1984 -0.0615  0.3060
11478W        W27952  18.632  19.361   4.938 -0.0401 -0.2031 -0.1224
11479W        W27953   2.812  16.486   1.983  0.1889  0.0107  0.0423
11480W        W27954  18.301  16.571  11.896 -0.1071  0.0437  0.0306
11481W        W27955  13.121   0.424   0.879 -0.0612  0.1221  0.0631
11482W        W27956  10.933  18.949  11.775  0.2513  0.5406 -0.1171
11483W        W27957  14.211  13.587   5.741  0.2689 -0.1060  0.0590
11484W        W27958   7.714  10.263  10.320 -0.1524  0.3035 -0.2011
11485W        W27959   0.970   1.391   4.193  0.2994 -0.2698  0.1409
11486W        W27960  16.915   6.272   0.166 -0.4800  0.1589 -0.0999
11487W        W27961   8.397   7.893   9.729 -0.1111 -0.0658 -0.0065
11488W        W27962  15.864   0.991   4.857  0.1382 -0.0693  0.2156
11489W        W27963  12.232  17.821   4.007  0.0726 -0.4042  0.0287
11490W        W27964  16.590   8.172   1.961 -0.0820 -0.0860  0.0086
11491W        W27965  10.995   3.127  12.267 -0.0274 -0.5743 -0.0992
11492W        W27966  11.147   8.617  11.388  0.3273  0.4118  0.4059
11493W        W27967   4.187   9.489   0.471 -0.1476  0.1000 -0.3143
11494W        W27968   3.777  16.493   2.672  0.0141 -0.1443 -0.1429
11495W        W27969   3.182   9.438   1.595 -0.1331  0.2228  0.0728
11496W        W27970  13.194   6.337   3.791  0.1087  0.1756  0.1647
11497W        W27971  15.434   8.899  12.778 -0.0477  0.0704 -0.2266
11498W        W27972  10.013   2.991  14.156 -0.1450  0.3230  0.2256
11499W        W27973   1.247  12.147   0.115  0.0440  0.0939 -0.0090
11500W        W27974  19.042  14.343  13.528  0.2700  0.1990  0.0551
11501W        W27975  19.313  14.202  13.027 -0.1202  0.2452 -0.1815
11502W        W27976   6.965  16.666  12.341 -0.3562 -0.2544 -0.0605
11503W        W27977   7.400   8.685  10.786  0.2591 -0.1305 -0.0897
11504W        W27978  16.358   7.840   0.827 -0.3582 -0.2003  0.1950
11505W        W27979   5.830   4.639   3.219  0.1342  0.2396  0.1567
11506W        W27980  17.469   7.313  14.168  0.1234  0.1969  0.2334
11507W        W27981   4.221  15.713   5.732 -0.0642 -0.0514 -0.7008
11508W        W27982   3.337   5.900   1.985 -0.1901 -0.1291 -0.1652
11509W        W27983   7.766   6.230  12.090  0.0359 -0.2447 -0.2721
11510W        W27984  11.535  14.956   2.287  0.0722  0.1049  0.0066
11511W        W27985   9.258  18.742  10.592 -0.3355 -0.1556  0.0685
11512W        W27986  19.277  18.639   5.432  0.1197  0.0753 -0.4314
11513W        W27987  13.760   8.857   0.610  0.0663  0.2984 -0.1474
11514W        W27988  18.719  16.330  12.107 -0.0278 -0.1966 -0.1925
11515W        W27989   5.874  15.853  13.675 -0.0364  0.2413  0.3635
11516W        W27990   2.885   2.748  13.428  0.0081 -0.1079 -0.0428
11517W        W27991  12.856   4.463   5.104  0.0178 -0.2892 -0.3428
11518W        W27992   5.682   1.491   3.322 -0.0630  0.0634  0.1327
11519W        W27993   5.304  11.309   1.021  0.0844  0.3676  0.0741
11520W        W27994   8.554  16.875  12.894  0.0090 -0.1651  0.2558
11521W        W27995  13.960   0.907   4.246  0.1694 -0.1989  0.0630
11522W        W27996   4.413  13.447   4.465 -0.2028 -0.0316 -0.3074
11523W        W27997  19.240  17.517  14.498 -0.0069 -0.0169 -0.4733
11524W        W27998   4.216   4.476   2.406 -0.2463  0.0565  0.3433
11525W        W27999   8.966   0.939  10.309 -0.0571  0.1331 -0.1067
11526W        W28000   9.031   4.746  11.968  0.1171 -0.1011 -0.1436
11527W        W28001   8.302  13.053  13.131 -0.2736 -0.0046  0.2616
11528W        W28002  10.141  18.033   0.239 -0.4321 -0.0603  0.1029
11529W        W28003  14.384  16.492   0.936  0.0987 -0.1134 -0.1042
11530W        W28004   4.857   3.393   4.278 -0.3445 -0.0358 -0.0073
11531W        W28005   2.167   2.674   2.881 -0.0513  0.1844 -0.2028
11532W        W28006   5.441   2.843   0.886 -0.0232 -0.1654 -0.1026
11533W        W28007  17.369   9.091   0.958 -0.2502  0.0903  0.1167
11534W        W28008   9.092   8.244   1.312  0.0344 -0.3513  0.1287
11535W        W28009  15.073  11.456  12.407  0.1563 -0.3700  0.1841
11536W        W28010   2.313   3.626   2.509 -0.0319  0.1648  0.1264
11537W        W28011   6.578   7.974   0.943 -0.1028  0.0024  0.2516
11538W        W28012  15.746  13.642  14.042  0.1448  0.1056 -0.4282
11539W        W28013   7.986  18.020   2.420 -0.3206 -0.3423 -0.0232
11540W        W28014   6.975   6.281   9.736 -0.1152  0.0769  0.0564
11541W        W28015   0.003   8.522  14.060 -0.1212 -0.1904 -0.0281
11542W        W28016  13.657   1.585  13.012 -0.0908  0.3142  0.2033
11543W        W28017   6.264   2.184  12.215  0.1629 -0.0050 -0.2344
11544W        W28018   3.745   7.152  13.126  0.0873  0.0136 -0.0087
11545W        W28019  13.466   4.216   4.326  0.1491  0.1193  0.0538
11546W        W28020   2.594   8.471   1.460  0.1344 -0.4249  0.3355
11547W        W28021  17.630   7.619   9.500  0.4374 -0.0803  0.2517
11548W        W28022   7.308  11.052   1.358 -0.0274  0.1314 -0.1413
11549W        W28023   4.942   9.298   3.618  0.0583 -0.3706 -0.0519
11550W        W28024   0.432  16.786   0.263  0.0323  0.0853 -0.0481
11551W        W28025   1.483   8.011   2.225  0.4138  0.0079 -0.3155
11552W        W28026   1.367   8.570  12.179 -0.0849 -0.0465  0.0914
11553W        W28027  16.740  12.793   1.353  0.1748 -0.0172 -0.1783
11554W        W28028  15.615   9.290  14.526 -0.4198  0.3391  0.2960
11555W        W28029   9.919  10.081  11.625 -0.4180  0.2110  0.0848
11556W        W28030   5.304  12.027  11.119 -0.0736  0.0466 -0.0524
11557W        W28031  16.425   9.490   0.970  0.0763 -0.0493  0.2324
11558W        W28032  15.284   4.097  11.308 -0.0107 -0.2361 -0.1776
11559W        W28033  18.112  17.176   1.458  0.0682  0.0793 -0.1081
11560W        W28034  10.535   6.646   1.362 -0.2911  0.1378 -0.2381
11561W        W28035   6.483  18.691   0.188  0.0719  0.1095 -0.2012
11562W        W28036  14.061   5.151  13.608 -0.1470 -0.4432  0.3222
11563W        W28037   5.546  14.713  13.087  0.3039 -0.0152 -0.3079
11564W        W28038  18.011  18.372   0.996 -0.1679 -0.1922  0.1639
11565W        W28039  16.556   0.517   0.508  0.1968  0.1127  0.3216
11566W        W28040   6.428   9.889  12.540  0.3266  0.0168 -0.0553
11567W        W28041   0.141  12.832   4.106 -0.1804  0.0058 -0.1701
11568W        W28042   7.380  14.192  11.596 -0.0668 -0.1674  0.0175
11569W        W28043   7.275   7.004   2.879 -0.1985 -0.0837 -0.3788
11570W        W28044   7.995   5.847   3.569  0.0517 -0.3013  0.0059
11571W        W28045  10.508  13.297   1.352 -0.0391 -0.0823  0.1045
11572W        W28046  10.362  10.006   1.593 -0.0619  0.3185  0.3283
11573W        W28047   2.085   2.858  12.858 -0.5075  0.0321 -0.3226
11574W        W28048   2.070   2.262   0.602 -0.0496 -0.0001  0.2508
11575W        W28049   1.549   0.302   9.502  0.1478 -0.3231 -0.0015
11576W        W28050  14.996  12.079   0.456  0.0255 -0.4348  0.1719
11577W        W28051  16.653   8.343   0.139 -0.0158 -0.4000  0.2576
11578W        W28052   1.376   1.527  13.501  0.1382  0.1400 -0.0409
11579W        W28053   2.175  14.760   1.242 -0.1686 -0.2496 -0.1616
11580W        W28054   3.712   3.583  10.819 -0.1790  0.2311 -0.0768
11581W        W28055  19.146  17.184  11.697  0.0266 -0.1673 -0.0056
11582W        W28056  18.396  11.521   2.022 -0.0367 -0.0750 -0.0161
11583W        W28057  13.298  14.194   2.797  0.1894  0.1520 -0.5398
11584W        W28058  12.924  17.631  13.829  0.0238  0.2055  0.3028
11585W        W28059   6.804  16.597   2.466 -0.0752 -0.1103  0.3415
11586W        W28060   7.977   0.616   3.252  0.0272  0.4097  0.2440
11587W        W28061   4.916  18.102  13.024  0.2644 -0.1075 -0.1447
11588W        W28062  10.318  18.548   4.294 -0.0304 -0.1632  0.1739
11589W        W28063   1.205  12.910  12.298 -0.2773  0.2537 -0.0469
11590W        W28064   2.956  10.505   9.466 -0.2577 -0.3197  0.0938
11591W        W28065  12.992  13.287  14.207  0.0199  0.5229 -0.0710
11592W        W28066   7.491   9.636  14.778 -0.0115  0.0436  0.3592
11593W        W28067  14.274  10.608   1.406 -0.0641 -0.2702 -0.2168
11594W        W28068   2.531  12.787   1.483 -0.0524  0.1056 -0.3477
11595W        W28069   9.331  13.773  11.751  0.3075 -0.1768  0.2378
11596W        W28070  10.369  13.262   0.450 -0.1079 -0.1901  0.3263
11597W        W28071   3.990   7.479   0.620 -0.1945 -0.0626  0.1264
11598W        W28072   2.032  11.213   5.053  0.3088  0.1940  0.0135
11599W        W28073   8.815  10.993   3.876 -0.1679  0.3639 -0.0090
11600W        W28074   2.897   9.702  12.490  0.0637  0.0506 -0.1715
11601W        W28075   0.358  18.753  11.689  0.1660 -0.0788  0.1876
11602W        W28076   4.752  11.901  14.047  0.0929  0.0045  0.1001
11603W        W28077   8.706   1.588   3.760  0.3895  0.1860  0.1729
11604W        W28078   2.356   2.134  13.171  0.0609 -0.1789  0.1478
11605W        W28079   7.309   8.406  14.619  0.0270  0.0738 -0.3364
11606W        W28080  15.212  16.921   3.031 -0.0106  0.2058 -0.0264
11607W        W28081   3.255   4.626  13.967  0.0331  0.3418 -0.1786
11608W        W28082  10.770  16.257   5.639 -0.0223 -0.2194  0.1967
11609W        W28083   9.575   5.355   4.203 -0.0065  0.0896 -0.0961
11610W        W28084  11.358   2.331   1.746 -0.2930 -0.1387 -0.0799
11611W        W28085   6.900  12.831  11.903 -0.0886 -0.2946 -0.1874
11612W        W28086   8.488   9.527  10.942 -0.1142  0.1661 -0.0366
11613W        W28087  11.684  19.192  10.133 -0.1144  0.0783  0.2644
11614W        W28088  13.165   1.505  13.128 -0.3303 -0.2607 -0.1546
11615W        W28089   4.072   9.100  14.240  0.0651  0.0244 -0.1075
11616W        W28090   4.858   3.736   3.804  0.2299 -0.1396 -0.1920
11617W        W28091  14.257  10.041   4.010  0.2483 -0.0188 -0.1007
11618W        W28092  18.827   7.746  14.420 -0.1072  0.3555 -0.1587
11619W        W28093  12.386  13.344  11.607 -0.0357  0.2024  0.0322
11620W        W28094  10.282   4.091   0.000  0.0243  0.2485 -0.2792
11621W        W28095   3.912   4.557  10.524 -0.3455 -0.1372  0.2005
11622W        W28096   1.132   5.011   0.580 -0.3358 -0.2911  0.2805
11623W        W28097   0.358  16.309  10.035  0.0534  0.0688 -0.0286
11624W        W28098  11.524   5.071  14.741  0.3068 -0.1846 -0.2374
11625W        W28099  12.003   8.519  13.469  0.1140  0.2214 -0.2455
11626W        W28100   3.583  17.542   0.477  0.0521  0.0637 -0.2301
11627W        W28101  15.847   1.324   3.541  0.4115 -0.1477  0.2265
11628W        W28102   2.984   8.742   5.313  0.2636  0.0547 -0.0958
11629W        W28103  15.527   0.443   5.085 -0.1347  0.4794 -0.2787
11630W        W28104   0.786   0.519   0.107  0.1795  0.0256 -0.2111
11631W        W28105   6.066   5.749  11.588  0.1582  0.0760  0.0911
11632W        W28106  16.507   6.029   0.144 -0.1277  0.0836  0.2240
11633W        W28107  19.038   5.364   3.221 -0.2451  0.0272  0.2880
11634W        W28108  15.867   9.697   1.834 -0.3664 -0.2068 -0.1402
11635W        W28109   1.531  17.594  14.114 -0.2557 -0.2245  0.4013
11636W        W28110  16.775   4.787   4.950  0.1460 -0.1377  0.0910
11637W        W28111  13.349   8.101  12.527  0.2298  0.0068  0.1410
11638W        W28112   8.820   5.258  10.077 -0.1511  0.1733  0.2960
11639W        W28113   5.866  17.518  11.450 -0.0324 -0.2887  0.0749
11640W        W28114   1.320  15.318  13.694 -0.1003 -0.0424  0.2758
11641W        W28115   5.482   6.697   9.094  0.0937  0.1193  0.1357
11642W        W28116  11.890   9.525  13.527  0.2444 -0.0876 -0.0967
11643W        W28117  17.246  14.866   4.101 -0.1818  0.3002 -0.2232
11644W        W28118   1.434  10.499   3.977 -0.0923  0.0424  0.2381
11645W        W28119   4.806  10.808   0.135 -0.0825 -0.1239 -0.0306
11646W        W28120   6.281  10.482   3.047  0.0701 -0.1788  0.1668
11647W        W28121  17.272   3.880  11.349  0.2702 -0.0284 -0.0995
11648W        W28122   4.721   7.059   5.390 -0.1039  0.1935  0.1194
11649W        W28123  16.418   9.246   0.482  0.3305 -0.6245 -0.0796
11650W        W28124  12.882   1.298   3.017  0.1129  0.0531  0.1709
11651W        W28125  13.284   9.281   1.161  0.4358  0.1641 -0.0467
11652W        W28126   2.606  10.917   1.265  0.2244  0.0763 -0.3042
11653W        W28127  15.661   6.604   2.941  0.1223 -0.0203 -0.2816
11654W        W28128   4.141   3.358   3.097  0.0315  0.0560  0.0168
11655W        W28129   1.922  13.295   3.152 -0.0400  0.1030 -0.1679
11656W        W28130   5.353   7.324   1.447 -0.0417 -0.1213  0.1279
11657W        W28131   3.383   0.127   1.783  0.2649  0.2253 -0.0335
11658W        W28132   7.347  15.166  11.449 -0.0550 -0.1394  0.2830
11659W        W28133   9.612   2.277  12.943  0.3071  0.2266  0.1315
11660W        W28134   8.322   0.390   9.182 -0.1161  0.1256 -0.1694
11661W        W28135   5.935  10.290   5.431  0.1971 -0.3444  0.0765
11662W        W28136   4.395  14.311   4.778  0.1556 -0.1005  0.2705
11663W        W28137  18.823  11.998  12.625 -0.4649 -0.1313 -0.0725
11664W        W28138   8.143  11.964   1.952 -0.1491 -0.1774 -0.1378
11665W        W28139   1.619   5.496   2.078  0.1633  0.0647 -0.2718
11666W        W28140   7.875  10.962  14.793 -0.5137 -0.2506 -0.1722
11667W        W28141  14.483  12.105  11.657 -0.1633 -0.2126  0.4875
11668W        W28142   9.454   5.881  11.404  0.1795 -0.2031 -0.1493
11669W        W28143  13.740   1.380   1.911 -0.2945  0.1799 -0.0065
11670W        W28144   5.799  12.248   1.674 -0.0586 -0.0961  0.2058
11671W        W28145  15.106  14.107   3.728 -0.1340  0.1892  0.3283
11672W        W28146   4.510   9.044   1.516 -0.1080 -0.1526  0.1526
11673W        W28147   0.339   1.166  11.048  0.0376  0.1073  0.0968
11674W        W28148   1.040   6.928   1.851  0.1184 -0.0294 -0.1627
11675W        W28149   7.906  14.318  10.088 -0.0259  0.1105  0.2639
11676W        W28150   2.712  11.219  14.424  0.2496 -0.0326  0.1084
11677W        W28151  15.937   8.676   3.221 -0.2188  0.2273 -0.2701
11678W        W28152   7.713   0.030  12.039  0.1862 -0.1431 -0.0176
11679W        W28153  12.659  15.180  13.771  0.1178 -0.0087  0.1222
11680W        W28154   5.481   8.040   4.726 -0.1559  0.1782  0.3298
11681W        W28155  19.198  11.807  11.401 -0.1171  0.2220 -0.0922
11682W        W28156  10.080   8.700   2.264  0.1061  0.0114 -0.2097
11683W        W28157   3.583  12.817  11.067 -0.1232  0.0728  0.1103
11684W        W28158   0.986  13.890  13.866  0.1871 -0.5518 -0.0953
11685W        W28159   9.683   1.526  12.115  0.3787  0.2160 -0.1886
11686W        W28160  12.617  11.655   1.435 -0.1495 -0.1805  0.1169
11687W        W28161  18.894   2.833   0.741  0.0875  0.0257 -0.1396
11688W        W28162   0.236   6.793   5.231  0.2010  0.2157  0.1202
11689W        W28163  10.206   0.964  14.830 -0.0145  0.0907 -0.1213
11690W        W28164  15.442  11.083  14.675 -0.1219  0.1362  0.0040
11691W        W28165   0.544   6.905  12.917  0.1189  0.0530  0.0036
11692W        W28166   1.596  13.284   1.610  0.1846  0.4360  0.1903
11693W        W28167   8.637  15.223   0.812 -0.1677 -0.0410  0.4764
11694W        W28168   1.604   5.242  13.225  0.3162 -0.1068  0.1569
11695W        W28169   8.864   3.092   3.851  0.3111 -0.0649  0.0333
11696W        W28170   7.509   6.045   1.251 -0.0786  0.0475 -0.0783
11697W        W28171  16.636   5.532  13.532  0.1266  0.2058  0.1167
11698W        W28172   6.528  17.759   0.587 -0.2214  0.0313 -0.2117
11699W        W28173  12.769   3.497  14.547 -0.0378 -0.2172  0.1260
11700W        W28174   1.692  13.773   2.347 -0.2792 -0.1915 -0.1237
11701W        W28175  12.260   7.076   3.964 -0.0617 -0.1045  0.2856
11702W        W28176  18.692   5.919  11.323 -0.2260  0.1510  0.2828
11703W        W28177   4.000   5.370  10.866 -0.0924 -0.1595 -0.0319
11704W        W28178   3.509   9.395   3.819  0.0550 -0.0745  0.1492
11705W        W28179   9.207  18.751  12.700  0.2026 -0.0320  0.0306
11706W        W28180   6.596  12.964   1.787 -0.3318  0.2554  0.0104
11707W        W28181   8.354   5.561  13.124 -0.0548 -0.0088 -0.0232
11708W        W28182  11.936   0.600   2.279  0.1781  0.1501  0.3864
11709W        W28183   1.335   6.627   2.202 -0.3393  0.0242 -0.0320
11710W        W28184  15.008  17.640  13.325  0.0576  0.0253 -0.1278
11711W        W28185   1.015  10.777   0.069  0.2318 -0.0396  0.2575
11712W        W28186  18.130  11.305   4.738  0.1091  0.0056 -0.4383
11713W        W28187  13.988  15.243   2.106 -0.1428  0.1076 -0.0561
11714W        W28188  13.226   9.804  11.966  0.4689 -0.3238 -0.1330
11715W        W28189  14.087   9.133  11.196  0.0062  0.0244 -0.1875
11716W        W28190   3.944  19.373   2.383  0.0145  0.0486 -0.3200
11717W        W28191  10.264  16.275   4.064 -0.2302  0.0234  0.2022
11718W        W28192  13.887   8.456   5.043 -0.1811  0.2459 -0.0140
11719W        W28193   2.010  13.657   9.984  0.0624  0.4168  0.3726
11720W        W28194  14.083  11.187  14.773  0.2233 -0.1033 -0.0497
11721W        W28195  14.670  14.129  11.665 -0.0942 -0.1798 -0.0661
11722W        W28196  10.315   4.195  13.960 -0.1968  0.2313 -0.1552
11723W        W28197   8.153  11.816  13.020 -0.0612  0.0342 -0.3443
11724W        W28198   1.307   1.109   3.479  0.0310  0.0695  0.0140
11725W        W28199  19.305  11.105   2.915  0.1151 -0.2966 -0.0162
11726W        W28200   2.722   1.889   2.536  0.1688  0.0686  0.0939
11727W        W28201   5.484   7.123   9.429 -0.1260  0.1861 -0.1413
11728W        W28202  10.220  11.698   1.805  0.0521  0.3343 -0.3796
11729W        W28203   0.151   7.203   3.898  0.0540  0.0540  0.0915
11730W        W28204  19.025   5.864   2.545  0.1962 -0.0249 -0.0750
11731W        W28205   3.483  17.561  10.022 -0.0469 -0.0015  0.0646
11732W        W28206   0.260   0.254   0.131  0.1709 -0.1003  0.2007
11733W        W28207   9.312   0.171   4.476 -0.3549 -0.1066 -0.0088
11734W        W28208  15.055   4.175  11.758 -0.0133  0.1475 -0.1382
11735W        W28209   9.365  10.487   0.554 -0.1637 -0.4363 -0.3726
11736W        W28210  14.769  11.477   4.387  0.1348  0.3678 -0.1476
11737W        W28211  12.169  17.657   0.239  0.1651 -0.1387 -0.0556
11738W        W28212   6.838  13.649   2.906 -0.2069 -0.2375 -0.0706
11739W        W28213  16.872   1.745  13.645  0.0490  0.1757 -0.0702
11740W        W28214  14.240   2.142  10.377 -0.0306 -0.1097  0.1303
11741W        W28215  11.494  15.270  13.970  0.0306 -0.0512  0.1711
11742W        W28216   3.817   8.180   4.587 -0.0344  0.0987 -0.0702
11743W        W28217  15.612  15.709   5.477 -0.1177  0.2626  0.4840
11744W        W28218  10.288   3.205  14.585 -0.2549  0.0549  0.3123
11745W        W28219  18.013  15.371  12.183  0.1834 -0.2087  0.3516
11746W        W28220  11.718   7.109   3.956 -0.3287  0.0560 -0.2265
11747W        W28221   5.387  11.011   4.714  0.1880 -0.0460  0.0115
11748W        W28222  11.993  15.545   4.230  0.0544  0.0861  0.1001
11749W        W28223  18.032  15.621   0.126  0.5300 -0.1417  0.2654
11750W        W28224   6.337  10.333   4.995  0.0552 -0.3978 -0.2808
11751W        W28225   2.022  17.845   1.503  0.1293 -0.0733 -0.1542
11752W        W28226  13.083   6.031   1.805  0.0450 -0.0732  0.0979
11753W        W28227   9.698  14.587   0.190  0.1612 -0.0123  0.2553
11754W        W28228  18.117  11.516   5.189  0.2077 -0.0936 -0.0578
11755W        W28229  13.658   2.513  13.867  0.1587  0.0375 -0.0187
11756W        W28230  14.706   5.877   0.793 -0.0915 -0.0704 -0.0144
11757W        W28231   4.086   3.096  13.674 -0.3369 -0.0388 -0.1403
11758W        W28232  17.422  15.673   3.602 -0.3699 -0.1683  0.2742
11759W        W28233  14.294  17.338  10.621  0.1708 -0.0282  0.2779
11760W        W28234  14.273  15.423   5.300 -0.0813 -0.0342  0.1067
11761W        W28235  15.828  17.674   1.797 -0.2452  0.0615 -0.0313
11762W        W28236   5.683   8.647   2.967 -0.2869 -0.1347  0.4338
11763W        W28237  16.879   8.824  11.659  0.0027 -0.1648  0.0222
11764W        W28238  10.996  12.675  12.032 -0.4363  0.1806 -0.0782
11765W        W28239   4.765  10.121  14.254 -0.2652 -0.2956 -0.0037
11766W        W28240   0.225  10.856  10.740  0.0274  0.0393 -0.2468
11767W        W28241  16.979   7.648   2.013  0.1242  0.3249 -0.5173
11768W        W28242  12.239   8.746   5.043  0.0656 -0.0672  0.0413
11769W        W28243   7.637  16.291  12.250  0.2106  0.0337  0.0586
11770W        W28244  19.140   1.952   5.112 -0.0600  0.0965 -0.0540
11771W        W28245  18.248  11.302  13.011  0.0796  0.1136  0.2188
11772W        W28246   9.847  18.676   4.435 -0.0708  0.0160 -0.2896
11773W        W28247  10.912   8.867   0.912  0.1104 -0.2046 -0.1604
11774W        W28248   4.908   0.746   1.412 -0.0132 -0.0602 -0.0560
11775W        W28249  16.341   6.932  14.458  0.0091 -0.0444 -0.2178
11776W        W28250   0.116  16.981   0.647 -0.0421 -0.2915 -0.3052
11777W        W28251   2.250  14.559  11.938 -0.4577  0.1748  0.3196
11778W        W28252  13.009   1.531   1.296 -0.0049 -0.0558 -0.0608
11779W        W28253   7.139  10.794  11.867  0.0402 -0.1436  0.1051
11780W        W28254   0.700   5.691   0.593 -0.3791  0.2160 -0.1585
11781W        W28255   4.814  16.463   5.366 -0.1943 -0.1096  0.0787
11782W        W28256   5.309  16.813  12.649  0.0115  0.0790  0.1789
11783W        W28257   0.074   7.185   2.822 -0.0299  0.0261 -0.0038
11784W        W28258   1.582   1.354  12.885  0.1125 -0.1087  0.0591
11785W        W28259   3.465   6.834   4.345  0.1293  0.1201  0.1836
11786W        W28260  13.628  12.512   2.674  0.1292 -0.1427 -0.0365
11787W        W28261   5.360   3.156  13.262  0.2331 -0.2176 -0.1884
11788W        W28262   5.283  18.140  13.710  0.2917  0.1490 -0.1701
11789W        W28263   0.518   4.747   1.735 -0.1677  0.0748 -0.1780
11790W        W28264   7.148   4.161  10.378 -0.0267 -0.1676  0.1303
11791W        W28265   0.210  11.057   0.601 -0.0516 -0.0804 -0.0741
11792W        W28266   3.223   2.617   0.041  0.2224 -0.0983  0.0061
11793W        W28267  15.843   0.296   0.647 -0.0626  0.2226 -0.0487
11794W        W28268  13.906  18.210   9.841  0.1556 -0.0032  0.2254
11795W        W28269   9.262   8.367  11.709  0.3005  0.2023  0.0546
11796W        W28270  15.781  13.721   2.141  0.3604 -0.4464 -0.0108
11797W        W28271  16.153  17.575   3.650  0.0061 -0.0794  0.0805
11798W        W28272  16.859  18.699   2.059 -0.0692  0.1082  0.0477
11799W        W28273   3.614   6.900   1.081  0.0259  0.0242 -0.1070
11800W        W28274  12.681   1.881  13.800 -0.1115  0.0603  0.1046
11801W        W28275   9.432  13.571  10.814 -0.1220 -0.0191 -0.1492
11802W        W28276   6.725   5.171  14.772  0.3816  0.0912 -0.0272
11803W        W28277   9.887  17.269  14.366 -0.3154 -0.0997  0.0975
11804W        W28278   9.025  15.628  11.798  0.4524 -0.0304  0.3035
11805W        W28279  10.259  12.203  14.075  0.1371 -0.1326  0.2231
11806W        W28280  16.799   1.872   1.348 -0.4303  0.3751  0.0028
11807W        W28281  15.919   3.084   1.286  0.0199 -0.0128 -0.0183
11808W        W28282   6.870   0.365   1.937  0.4728  0.0566 -0.0080
11809W        W28283  11.227  16.052  10.195  0.2853  0.5720 -0.0010
11810W        W28284  12.945   9.834   5.386  0.1548 -0.0435 -0.0103
11811W        W28285   4.033  19.033  13.954  0.2472  0.1589  0.1898
11812W        W28286   8.674  16.800   3.007  0.1332 -0.0049  0.0253
11813W        W28287  10.262  13.009   1.008 -0.1643  0.0784 -0.0545
11814W        W28288  17.278   6.603  14.788 -0.1871  0.2003 -0.2010
11815W        W28289   0.675  11.184  14.176  0.1660  0.0361 -0.0039
11816W        W28290  16.576  11.078   1.327  0.0581  0.1065  0.2658
11817W        W28291   3.208  19.002  10.083 -0.0055 -0.1276  0.1410
11818W        W28292   6.276   8.176   2.144  0.1926 -0.2156  0.0315
11819W        W28293  17.843  14.304  11.251 -0.2827  0.1208 -0.1173
11820W        W28294  19.289  11.602   2.832 -0.0838 -0.0288  0.2942
11821W        W28295  14.166   1.644  13.799 -0.1254 -0.2407 -0.0600
11822W        W28296  12.503  15.348   4.124 -0.1025  0.0238  0.0505
11823W        W28297  13.599  11.588   3.065  0.1453  0.0986  0.0958
11824W        W28298   2.917  11.656   1.737  0.0655 -0.2811  0.1827
11825W        W28299   6.287   6.278   2.960  0.1072 -0.0198 -0.4710
11826W        W28300  17.827   4.595  11.892  0.1173 -0.0106  0.3185
11827W        W28301  14.570   3.669   9.531  0.1178  0.1316  0.3888
11828W        W28302   3.260   3.748   5.008 -0.0517  0.0016 -0.0806
11829W        W28303   3.816   4.381  13.972 -0.1582  0.2392  0.1712
11830W        W28304   1.159   1.838   2.298 -0.0169 -0.0826  0.1468
11831W        W28305   7.583  17.155  14.827  0.1255 -0.0172  0.3325
11832W        W28306   5.608  15.198   4.022 -0.1431 -0.4489 -0.3648
11833W        W28307   3.079  11.251   0.437 -0.1670 -0.2913  0.1757
11834W        W28308  16.588  11.175   2.237 -0.0207  0.0235  0.1414
11835W        W28309  16.051  14.687   3.983 -0.0471 -0.3996 -0.2196
11836W        W28310  19.061   5.123   9.442 -0.3415 -0.5478  0.0628
11837W        W28311  16.070  15.193   4.218  0.2434  0.1481  0.1873
11838W        W28312  10.524   6.996  12.771  0.1716  0.5133  0.1237
11839W        W28313  18.653   4.123  14.803 -0.1061  0.0920  0.2095
11840W        W28314   8.929  14.575   5.710  0.0508  0.2324 -0.0241
11841W        W28315  15.203   0.641   1.111 -0.1433 -0.2681  0.1414
11842W        W28316   4.610   2.843  13.600 -0.4202 -0.2525  0.1455
11843W        W28317  14.710   3.444   4.903 -0.0160 -0.0208 -0.3517
11844W        W28318   8.425   2.486   2.471 -0.2007 -0.2293 -0.1377
11845W        W28319   7.799  17.236  10.779  0.3127 -0.3644  0.0261
11846W        W28320   0.802   3.145   3.137 -0.2556 -0.0401  0.2851
11847W        W28321  12.638   2.897  14.106  0.0566  0.1478  0.3058
11848W        W28322   7.220   9.166   9.637 -0.1762 -0.2317 -0.1374
11849W        W28323   8.300  18.726   3.663  0.1403 -0.2423 -0.0299
11850W        W28324  15.008   0.420   0.697 -0.0779  0.0267 -0.0642
11851W        W28325  18.153  18.872   0.627 -0.0736 -0.1476 -0.4605
11852W        W28326  10.695  12.587   3.690  0.5263 -0.2194  0.1274
11853W        W28327   2.621  14.469   4.660  0.2437  0.1767 -0.1398
11854W        W28328  16.328   3.562   5.039  0.0361  0.1914 -0.0271
11855W        W28329   1.252   2.839   4.367  0.4501  0.0638 -0.3085
11856W        W28330   8.847  13.283   4.169  0.2430  0.0679  0.1108
11857W        W28331  17.512   4.197  11.754  0.2437  0.2733 -0.1838
11858W        W28332   0.808  18.114   5.009  0.1901  0.0187 -0.2522
11859W        W28333  13.785   3.858  11.830 -0.0871  0.1862  0.6300
11860W        W28334  12.528  18.681   3.498 -0.1728 -0.0699 -0.2202
11861W        W28335   6.295  13.245   6.146  0.0197  0.1830 -0.2948
11862W        W28336   4.764  11.636  10.041  0.2143  0.0412 -0.0127
11863W        W28337  13.199  16.037  14.483  0.1300  0.2051  0.2463
11864W        W28338   2.383  16.393   1.816  0.0701  0.2139  0.0705
11865W        W28339   6.528  18.712  12.400 -0.0750  0.0493  0.1526
11866W        W28340  14.643  12.748  10.976 -0.0764 -0.0078 -0.2355
11867W        W28341   1.425   0.682  13.088  0.4218  0.3203 -0.1403
11868W        W28342   4.338  17.702  11.608  0.0942 -0.2719  0.1168
11869W        W28343  13.102   2.719   2.877  0.2001 -0.0302 -0.1361
11870W        W28344  17.931  15.201  11.488 -0.2641 -0.2809  0.0014
11871W        W28345   8.311   6.195   3.386  0.2291 -0.0205  0.2807
11872W        W28346   5.471   0.561  14.058 -0.2297 -0.0714  0.4522
11873W        W28347   9.426   4.128  10.761 -0.2033 -0.0847  0.1498
11874W        W28348   8.031   4.291   9.937 -0.1183 -0.2043  0.2939
11875W        W28349   8.308   7.066   2.462 -0.2088  0.3197 -0.3000
11876W        W28350  19.011  16.027  13.095  0.0649 -0.3205  0.7102
11877W        W28351  17.756   7.446  14.565 -0.0159 -0.1450 -0.0983
11878W        W28352   1.513  18.127   0.043  0.1864  0.1729 -0.0899
11879W        W28353  15.336   0.888   5.092 -0.2204 -0.1753 -0.1001
11880W        W28354  10.303  16.865  14.521 -0.1812  0.1640 -0.0775
11881W        W28355  12.492  13.054  10.808  0.0171 -0.0260 -0.1319
11882W        W28356  16.909  17.894   1.530  0.3893  0.0815  0.0537
11883W        W28357   6.126  12.717  14.075 -0.0182  0.2049  0.1671
11884W        W28358   1.997  16.863  11.137 -0.3912  0.3768  0.0656
11885W        W28359   0.499  13.928   5.832 -0.0946 -0.1396  0.3250
11886W        W28360   3.184   2.663   4.963 -0.1409  0.0709 -0.0959
11887W        W28361  17.367  16.979  11.892 -0.3248 -0.0776 -0.0361
11888W        W28362   8.368  17.923  13.804  0.3027 -0.0783  0.4542
11889W        W28363   1.299  10.871  10.747 -0.3700 -0.0710 -0.1287
11890W        W28364   4.925   4.733   1.961 -0.1309  0.0155  0.0793
11891W        W28365   1.148   6.802   4.103  0.1166 -0.1886 -0.4119
11892W        W28366  18.509  18.696   4.196  0.1988 -0.2773 -0.2000
11893W        W28367   9.741  18.039   4.270 -0.1033  0.0054 -0.0965
11894W        W28368   1.383  17.377  13.689  0.0625  0.2740 -0.0995
11895W        W28369   9.044   5.764   1.483 -0.3041 -0.0805  0.0353
11896W        W28370  18.862   9.974   0.878 -0.0821  0.1475 -0.1311
11897W        W28371   7.270   3.264   3.676  0.2568  0.1934  0.0331
11898W        W28372   4.731  14.652   0.273  0.0826  0.1732 -0.0470
11899W        W28373  16.281  19.361  12.171 -0.2513  0.1318  0.1329
11900W        W28374   4.433   9.576  13.380  0.3422  0.0122  0.1361
11901W        W28375  10.468  14.910  11.167  0.0691  0.3014  0.1013
11902W        W28376  12.226  16.073   1.121  0.1627 -0.0723 -0.1209
11903W        W28377   7.889   3.192  13.938  0.0412  0.2096 -0.4147
11904W        W28378   6.846  12.212  10.772  0.1592  0.0857 -0.2204
11905W        W28379   8.554   6.271  13.735 -0.0118  0.3736  0.0030
11906W        W28380   3.879   2.747   2.886  0.0337 -0.2723  0.3735
11907W        W28381  17.701   0.697   1.400 -0.2167 -0.2896 -0.3676
11908W        W28382   8.800  11.131   0.181 -0.3583  0.0674 -0.1927
11909W        W28383  10.892   3.099  13.793 -0.1025  0.0580  0.1357
11910W        W28384  13.179  17.067  11.732  0.0687 -0.0069  0.1133
11911W        W28385   0.274   4.376  10.478  0.0952 -0.1498  0.1807
11912W        W28386   3.127   5.950  11.754  0.0412 -0.2301 -0.0696
11913W        W28387   4.504   7.771  13.099  0.2305  0.2492 -0.0914
11914W        W28388   0.095  16.478   0.488  0.0969  0.1172  0.2268
11915W        W28389   3.916   6.750  10.522 -0.1947  0.1851  0.0806
11916W        W28390  16.932  17.266  10.818  0.1040 -0.0253 -0.1207
11917W        W28391   6.393  14.386  12.288 -0.1415 -0.1519  0.1932
11918W        W28392  10.101  13.701  14.026  0.1256 -0.0283  0.1579
11919W        W28393  16.854   1.515   2.693 -0.0009 -0.0571 -0.1617
11920W        W28394   8.935  17.728  12.242 -0.1065 -0.0097 -0.1231
11921W        W28395   7.864   7.418   3.631 -0.4070 -0.0829 -0.3446
11922W        W28396  13.719   1.619   1.215 -0.0502 -0.0104  0.1632
11923W        W28397   4.850  12.077  14.487 -0.3830  0.6427  0.0387
11924W        W28398  10.841  16.138   5.144 -0.0227 -0.0417  0.0707
11925W        W28399   8.869   2.217   2.659  0.0395  0.2584 -0.1027
11926W        W28400  17.874   3.275  14.325  0.2102 -0.3966 -0.0204
11927W        W28401  15.834   9.556   5.426 -0.2308 -0.0274 -0.0915
11928W        W28402   0.510   4.217  12.315 -0.0444 -0.3952 -0.1056
11929W        W28403   3.555   4.702   4.919  0.1203 -0.1710 -0.1542
11930W        W28404  12.476   0.459  14.735 -0.1818  0.1176  0.0549
11931W        W28405   0.111   3.481   1.957  0.0471 -0.0516  0.3768
11932W        W28406   7.031   9.261   0.853 -0.2661 -0.2789 -0.1634
11933W        W28407  11.404   5.268   2.132 -0.0787 -0.1660  0.2322
11934W        W28408   4.513  18.866   1.478  0.0286 -0.1587 -0.0134
11935W        W28409  17.996   2.974   2.341  0.0941  0.0762  0.1466
11936W        W28410   2.264  14.067   4.930 -0.1426 -0.0517 -0.1526
11937W        W28411   6.045  18.952   0.097 -0.3224 -0.4178 -0.2533
11938W        W28412  15.834   1.172   4.019 -0.1543  0.1096  0.0958
11939W        W28413  11.050   1.249   0.318  0.1593 -0.2645 -0.3215
11940W        W28414  12.350   9.619  13.191 -0.0098 -0.0936  0.1051
11941W        W28415  14.180   1.751   2.713 -0.5185  0.0173  0.0371
11942W        W28416   2.494   6.798   1.379  0.2151  0.6179 -0.0605
11943W        W28417  13.935   9.195   1.743 -0.1278  0.1156 -0.0349
11944W        W28418  17.808  14.156  11.714  0.4650  0.3189 -0.0522
11945W        W28419  12.548  11.969   2.377  0.1621  0.1197 -0.2106
11946W        W28420   6.149   2.035   0.654 -0.1053 -0.0326 -0.1587
11947W        W28421  17.763   6.932  14.107  0.0425  0.3515 -0.1303
11948W        W28422  11.990  10.369   3.337 -0.2156  0.4652  0.4198
11949W        W28423  15.533   4.845  10.694 -0.0055 -0.0141  0.0961
11950W        W28424  14.832  14.972  13.917  0.0994 -0.0677 -0.1247
11951W        W28425   3.206   3.259   0.926 -0.2204  0.1679 -0.4903
11952W        W28426  11.296   4.497  12.482  0.0737 -0.1972  0.0996
11953W        W28427   0.311  17.299  11.537 -0.0608  0.0546 -0.1249
11954W        W28428  10.844   5.834   1.291  0.1657 -0.1884 -0.1778
11955W        W28429   0.209  16.413   1.953 -0.0390  0.2026  0.0597
11956W        W28430  11.868   0.212   4.231  0.0860  0.0046 -0.0720
11957W        W28431  13.219   4.465   0.286  0.1718  0.0628 -0.4735
11958W        W28432  13.723  17.930  12.070 -0.0614  0.2514  0.1561
11959W        W28433  12.713  13.305   1.296 -0.0269 -0.1500  0.0250
11960W        W28434  16.740  15.128   3.415  0.0264  0.3234  0.2993
11961W        W28435  18.215  10.886   2.088 -0.2293 -0.2857 -0.0876
11962W        W28436   6.362   2.015  12.922 -0.2507 -0.3383 -0.1308
11963W        W28437  18.652   0.680   1.676  0.1417  0.0055 -0.1865
11964W        W28438  17.089  18.146   9.703  0.0015  0.0199 -0.0868
11965W        W28439   6.110  12.043   2.587 -0.0616 -0.3244 -0.1495
11966W        W28440  19.150  19.160   4.739 -0.1449  0.0854 -0.2410
11967W        W28441   5.453   5.684  13.709  0.2190 -0.1698  0.1926
11968W        W28442  14.594   2.915   2.320 -0.1442 -0.0323 -0.1000
11969W        W28443   8.312   9.442  11.430  0.0019 -0.0387 -0.1808
11970W        W28444  12.147   2.007  12.522 -0.0300 -0.0129  0.1429
11971W        W28445   2.830  13.327  13.994 -0.0985 -0.1441  0.0169
11972W        W28446   5.518   6.090   2.159 -0.2663  0.0569 -0.1130
11973W        W28447   2.245   2.605   9.970  0.0552  0.0693  0.0648
11974W        W28448  12.274   4.218  12.709 -0.4040  0.2397 -0.0099
11975W        W28449   9.122  10.187   2.453  0.0234 -0.1020 -0.2833
11976W        W28450  16.052   2.598  13.976  0.0064  0.3083  0.3280
11977W        W28451  11.444  18.359  12.648 -0.0597  0.1469 -0.1968
11978W        W28452   1.456  15.589   4.656  0.0417  0.1908 -0.0190
11979W        W28453  11.380  14.426   5.174 -0.1277 -0.1637  0.2921
11980W        W28454  12.117   3.911   4.470  0.2859  0.3069 -0.0709
11981W        W28455   1.820   5.722   3.115  0.1130  0.0687 -0.2702
11982W        W28456  11.103  14.669  11.100 -0.0473 -0.0656 -0.0563
11983W        W28457  16.498   0.835   3.477  0.2864  0.0371 -0.2324
11984W        W28458   8.699  14.411  13.548  0.2057  0.0663  0.1174
11985W        W28459  10.224  11.208   2.982  0.0204  0.3733  0.5359
11986W        W28460   5.396  14.504  11.096  0.0893 -0.2112 -0.0030
11987W        W28461   1.314  19.265   4.469  0.4523 -0.0875 -0.2349
11988W        W28462   4.255  13.987   4.413 -0.0627 -0.0986  0.2105
11989W        W28463  15.225   0.833   2.938 -0.1130 -0.2076  0.0382
11990W        W28464  15.008  16.277   0.236  0.0965  0.1128 -0.3194
11991W        W28465   7.651   7.311  11.007  0.1246  0.0467  0.2437
11992W        W28466  18.631   2.971   5.762  0.1419 -0.0394 -0.0024
11993W        W28467   7.024   3.226   9.935  0.0615  0.2240 -0.2417
11994W        W28468  13.336  14.089  14.203 -0.0967  0.0557  0.2466
11995W        W28469  10.503  10.780   5.934 -0.0979  0.1102 -0.2579
11996W        W28470   3.875   3.082  10.908 -0.0732  0.1766 -0.2571
11997W        W28471  17.317   8.235   2.484 -0.2048  0.2463 -0.0260
11998W        W28472  12.821   1.619   0.593  0.0917 -0.1389  0.2529
11999W        W28473  10.825  15.486   0.474 -0.1138  0.0280 -0.0540
12000W        W28474  15.040   0.450   2.100 -0.0516  0.1203  0.3121
12001W        W28475   5.472   8.704  13.544 -0.2029 -0.3056 -0.2190
12002W        W28476   9.018  16.492  13.300 -0.0863  0.0100  0.1258
12003W        W28477  17.758   0.263   0.482  0.0371  0.2671  0.0826
12004W        W28478  14.559  19.313   3.927 -0.0475  0.1040  0.0746
12005W        W28479  17.320   1.300  13.382 -0.0884 -0.3268  0.0896
12006W        W28480  16.855  14.317  10.015  0.1335 -0.1503  0.2847
12007W        W28481  11.791  11.848  11.198 -0.0282  0.2901 -0.0924
12008W        W28482  16.360   7.874   2.390  0.1976  0.3611 -0.3226
12009W        W28483   3.393  19.171   4.913  0.1026  0.0171  0.0100
12010W        W28484   2.559   6.527   2.693  0.0263  0.1587 -0.0895
12011W        W28485  16.317   2.208   4.606 -0.3105  0.0375  0.0013
12012W        W28486  16.873   7.925  13.198 -0.2113 -0.1599 -0.0673
12013W        W28487  14.335  11.212  12.753 -0.2351 -0.1136 -0.0326
12014W        W28488   8.399   5.395   2.166  0.0927  0.2868 -0.1044
12015W        W28489   0.707   6.477   1.748  0.0004  0.1631  0.2525
12016W        W28490  18.166  19.285   5.245 -0.1746 -0.0876 -0.1438
12017W        W28491  16.130  18.839  12.184 -0.1334  0.0933  0.1776
12018W        W28492  16.794  17.688   2.062 -0.0305 -0.0737 -0.0032
12019W        W28493   0.863  17.816   2.273  0.0813 -0.0020 -0.1962
12020W        W28494  14.758  11.704  10.201  0.0791 -0.1033 -0.4382
12021W        W28495   7.511   5.851   0.349  0.0529 -0.0506  0.3021
12022W        W28496  13.024  14.864   4.050  0.2172 -0.0866  0.0062
12023W        W28497   7.763   3.038   0.847  0.1218  0.1369 -0.2559
12024W        W28498   3.759   8.967   3.000  0.0252 -0.0327 -0.0090
12025W        W28499  14.264  14.209   3.963 -0.2015  0.0145 -0.1956
12026W        W28500   0.202  14.117  14.035  0.0962 -0.3198  0.0091
12027W        W28501   1.723  17.056  12.527 -0.0352  0.1254  0.1381
12028W        W28502  18.618   4.091  11.970 -0.1201  0.0402  0.0396
12029W        W28503   7.414  19.297   4.034  0.1873 -0.1430  0.0619
12030W        W28504  11.779   5.503   4.706 -0.0186  0.2763 -0.0078
12031W        W28505   2.657  13.118   5.067 -0.0117 -0.0061  0.0839
12032W        W28506  12.543  12.053  13.794 -0.0983 -0.6285  0.2171
12033W        W28507   1.268   2.542   3.959 -0.0567  0.4378 -0.2400
12034W        W28508  15.654  15.217   2.403 -0.0753 -0.2411 -0.0966
12035W        W28509  12.080   5.117   5.903  0.1367  0.0754  0.0222
12036W        W28510  13.520   9.268   0.716 -0.3590  0.2034 -0.1512
12037W        W28511   5.898   4.744  13.715  0.1095  0.0980  0.0652
12038W        W28512   3.637   9.249  13.437  0.2643  0.2206 -0.2176
12039W        W28513   5.350  14.798   2.420  0.2237  0.0956 -0.3255
12040W        W28514  16.779  11.669   5.004 -0.0043  0.1589  0.0665
12041W        W28515  14.266  16.857  11.153 -0.4129 -0.0001 -0.1901
12042W        W28516   7.044  17.132   2.998 -0.2122 -0.0697  0.0572
12043W        W28517   6.484  17.620  12.404 -0.0812  0.0928 -0.3038
12044W        W28518  18.856   9.012  12.556  0.2409  0.2952  0.2788
12045W        W28519   1.874   8.698   1.714 -0.0847 -0.0728  0.2413
12046W        W28520  14.259   9.305   3.249  0.0098 -0.1069  0.0363
12047W        W28521  16.333  13.821  11.671 -0.0476  0.1992 -0.1410
12048W        W28522  10.027   5.924   1.955  0.1384  0.1489 -0.0131
12049W        W28523   7.497   4.947   0.639 -0.1330 -0.1863 -0.2584
12050W        W28524   8.749   3.406   3.388  0.2980 -0.6525  0.1500
12051W        W28525   0.766   8.338  11.191 -0.1464 -0.2330  0.0791
12052W        W28526   9.575  15.629  11.338 -0.1858  0.4103 -0.1318
12053W        W28527  14.101   9.849   2.820  0.2876 -0.0136  0.0517
12054W        W28528   5.035  18.119   2.955 -0.2465  0.1415  0.0219
12055W        W28529  12.306   3.765   2.546  0.1570 -0.2032 -0.1071
12056W        W28530  15.639   3.596   4.968  0.1526  0.1519  0.0048
12057W        W28531  15.833  14.379  11.478  0.0432  0.1125  0.1823
12058W        W28532  12.064   0.460   0.712  0.1758  0.4177  0.3423
12059W        W28533   9.248  11.864   4.443 -0.0676  0.1309  0.0303
12060W        W28534  10.441  11.277  11.922  0.2343  0.2405 -0.4082
12061W        W28535   9.281   7.424  14.286  0.0797 -0.0993 -0.1687
12062W        W28536   2.484   7.131   5.416 -0.0652 -0.0268 -0.0278
12063W        W28537   1.189  18.625  14.104 -0.1834 -0.2583 -0.1513
12064W        W28538   9.302   3.662  12.620 -0.0363 -0.0408  0.0031
12065W        W28539   6.905   5.195   2.324  0.4723 -0.0095  0.0197
12066W        W28540   4.499   6.572  10.311  0.4286  0.1074  0.1078
12067W        W28541   8.474   0.232  13.889  0.1237  0.0031 -0.2354
12068W        W28542   7.976  16.921  10.310  0.0771  0.0257  0.2189
12069W        W28543   7.403  14.715   3.804  0.1308 -0.1490  0.1483
12070W        W28544   4.924   0.665   3.789  0.5085  0.0737 -0.1631
12071W        W28545  14.592   7.517   1.910 -0.1904  0.1733  0.0933
12072W        W28546  10.536  11.477   2.137 -0.0219 -0.0332  0.1386
12073W        W28547  17.448  18.096   3.696  0.2063  0.2772  0.2228
12074W        W28548  12.724   6.046  11.633  0.1974  0.2459 -0.2178
12075W        W28549  10.832   7.536   3.055 -0.3906  0.0395  0.0065
12076W        W28550   9.437   7.547  11.844 -0.0898  0.2347  0.1234
12077W        W28551  16.036   3.912  14.105  0.3478 -0.2969  0.0902
12078W        W28552   2.717   8.298  11.372  0.1852 -0.0180 -0.0176
12079W        W28553  10.003   5.077   9.915  0.0833 -0.0320 -0.1337
12080W        W28554   3.234   5.137   4.698 -0.1054  0.1030 -0.1778
12081W        W28555  13.841  18.129  10.711  0.1502  0.2932  0.2076
12082W        W28556  14.803  12.458  12.342 -0.0697 -0.0422 -0.1125
12083W        W28557   8.255  17.590  11.117  0.4376  0.2195 -0.0534
12084W        W28558   3.614  15.781   5.621  0.2331  0.4337  0.2400
12085W        W28559   7.337   2.513  12.913 -0.0179  0.4100  0.1364
12086W        W28560  18.810  17.285   2.469  0.2445 -0.0157 -0.1066
12087W        W28561  17.223  17.105   0.304  0.0618 -0.0349  0.2002
12088W        W28562  15.157   2.531   2.195 -0.2633  0.1594 -0.3756
12089W        W28563   9.395  10.535   5.496 -0.1226 -0.1150  0.1678
12090W        W28564  18.685  11.102  14.492  0.0542  0.0780 -0.2999
12091W        W28565  11.598   0.950  13.497 -0.2330  0.0669  0.2021
12092W        W28566  14.944  12.350   1.438  0.4454 -0.0239  0.1433
12093W        W28567   9.655  11.349   4.296  0.1616 -0.3028  0.0998
12094W        W28568  18.358   8.850   4.118  0.1589  0.0348 -0.1442
12095W        W28569  16.945  16.394  12.034  0.1366  0.3322 -0.0979
12096W        W28570  17.438   4.529  14.297  0.1144  0.0143 -0.0937
12097W        W28571   6.252  11.911  14.649  0.0622  0.2651 -0.0895
12098W        W28572   4.092   7.942  12.792  0.1918 -0.0355 -0.3129
12099W        W28573   0.102  10.496  13.387  0.3776  0.0810 -0.1869
12100W        W28574  15.407   5.301   0.338  0.2469  0.0229 -0.1757
12101W        W28575   5.806  16.909   2.436 -0.3538  0.1908  0.1297
12102W        W28576  16.288   2.340  11.146  0.0720  0.1659  0.1812
12103W        W28577  17.392   9.549   3.925  0.1728  0.3146  0.3066
12104W        W28578  18.233   2.633   3.074  0.3000  0.0983  0.0116
12105W        W28579   5.882  18.007   3.491  0.0068  0.0785  0.1541
12106W        W28580  18.748  12.461  10.816 -0.0093 -0.1339  0.0688
12107W        W28581   2.368   2.208  10.718 -0.1001  0.1867 -0.0683
12108W        W28582   3.550   7.621  11.414 -0.2025  0.1663 -0.0781
12109W        W28583   4.519  14.034  13.076  0.0013 -0.2963  0.0188
12110W        W28584   4.207  10.879   4.093  0.0710 -0.2175  0.0950
12111W        W28585   7.431  10.278  11.021  0.0636 -0.1413  0.2667
12112W        W28586  11.038  14.063   4.771  0.3121  0.0949 -0.0539
12113W        W28587  17.947   6.690  11.283 -0.3629  0.1389  0.1252
12114W        W28588   7.075   2.919   9.573  0.2458 -0.1678  0.1989
12115W        W28589   1.004  15.697  13.582  0.1884 -0.2052  0.0348
12116W        W28590  16.488   0.415   1.031  0.0797  0.5635  0.0221
12117W        W28591   1.750  10.112  10.567  0.0464 -0.0546  0.1096
12118W        W28592  17.599  16.646  12.873  0.0249 -0.0996 -0.1131
12119W        W28593  18.796   4.725  10.980 -0.2418 -0.2546  0.0469
12120W        W28594   3.015   3.139  14.826 -0.1386 -0.1051  0.3129
12121W        W28595  12.097   1.964   3.970 -0.0447 -0.1950 -0.0513
12122W        W28596  10.575   1.993  13.284  0.2468 -0.1363  0.0716
12123W        W28597  17.892  13.421  12.693 -0.1487 -0.1257  0.2236
12124W        W28598  11.753   4.946  11.386 -0.0296 -0.0338  0.1296
12125W        W28599  15.980   2.802  13.491 -0.2187 -0.0119 -0.1746
12126W        W28600   3.313   3.427   2.229 -0.0081  0.1456  0.2346
12127W        W28601   9.499   6.829  14.417 -0.1580 -0.1815  0.0239
12128W        W28602   2.386   3.910   4.096  0.3352 -0.0340  0.1457
12129W        W28603   8.657  16.147  13.371 -0.2172 -0.0777  0.1916
12130W        W28604   8.965  11.661   0.998  0.0718 -0.1759 -0.2354
12131W        W28605  14.823  15.395   0.061  0.0405  0.1490 -0.2108
12132W        W28606   2.421   6.019   0.243 -0.3105 -0.0056 -0.1529
12133W        W28607  14.919   8.768   0.669 -0.4662  0.0913 -0.4320
12134W        W28608   7.167  18.540  11.303 -0.0287  0.0377 -0.3238
12135W        W28609   2.608  17.676   0.410  0.0122 -0.0969 -0.0377
12136W        W28610   1.023  16.373   3.153 -0.0533  0.0048  0.0613
12137W        W28611   4.005  14.039   2.409  0.0431  0.1758  0.0010
12138W        W28612   7.475   2.932  13.088  0.0436  0.0965  0.1517
12139W        W28613   2.131  12.460   3.424 -0.1728  0.1511  0.3223
12140W        W28614   5.955  12.512  12.925  0.3887 -0.3171 -0.0805
12141W        W28615  10.554   8.783  13.674 -0.3643 -0.1798  0.0202
12142W        W28616  12.000   4.785   2.809 -0.0342  0.1576  0.1050
12143W        W28617   3.777   8.709   1.510  0.4043  0.0409  0.1730
12144W        W28618   1.420   5.339  12.745 -0.0727 -0.2379 -0.0038
12145W        W28619   2.854   9.317  13.030  0.0097  0.1677  0.1879
12146W        W28620  14.406  17.013  12.885 -0.0674 -0.0430 -0.0698
12147W        W28621  19.022   6.147  10.966 -0.1646  0.0271 -0.1095
12148W        W28622  12.008  10.639  10.683 -0.1139 -0.3588  0.1378
12149W        W28623  11.764   4.385   5.220 -0.1096 -0.1941 -0.1589
12150W        W28624  11.601  17.656  13.527 -0.0826 -0.3454  0.0687
12151W        W28625   0.891  13.540  10.932 -0.0510  0.1475 -0.0738
12152W        W28626   3.313   1.925  13.563 -0.2578 -0.2190 -0.0398
12153W        W28627  14.773   5.906  12.464  0.1387  0.2241  0.1771
12154W        W28628  15.069   8.184  10.688 -0.2065 -0.0116  0.0604
12155W        W28629   0.762   8.979  13.248 -0.1511 -0.0232 -0.0671
12156W        W28630   7.752   0.818   1.121 -0.0626  0.1444  0.0407
12157W        W28631   3.818  18.423  13.910  0.1701  0.2553  0.2219
12158W        W28632  10.623  14.778   1.225 -0.1738  0.1089 -0.1254
12159W        W28633  15.562  14.370   5.225  0.2692 -0.1618  0.1531
12160W        W28634  11.277   2.063   3.833 -0.0330  0.1407 -0.2052
12161W        W28635   0.877   3.803   1.251 -0.1296  0.0919 -0.1259
12162W        W28636   5.775  16.786  11.230 -0.2156 -0.4267  0.2786
12163W        W28637  13.550  16.582   2.706 -0.3187 -0.1512 -0.0702
12164W        W28638  12.217   9.966  13.593  0.1178  0.0637  0.1797
12165W        W28639   7.426   6.398   3.652 -0.1367 -0.1880  0.1657
12166W        W28640  15.097  18.206  14.500 -0.0571 -0.1570 -0.0436
12167W        W28641  13.995   0.183  13.822 -0.0194  0.0811  0.0382
12168W        W28642   6.203  11.606   2.926 -0.2607  0.1266 -0.1122
12169W        W28643  18.102   5.116  12.680  0.1118  0.0795  0.0573
12170W        W28644   2.742   1.087  14.038 -0.0816  0.1571  0.0815
12171W        W28645   7.986   5.542  14.266  0.0412  0.0276 -0.2246
12172W        W28646  14.794  11.202   1.835  0.1546  0.1136  0.2729
12173W        W28647  15.164   6.810  10.464 -0.1200  0.0471  0.3608
12174W        W28648  11.796  15.560  11.698 -0.0651 -0.2336  0.0161
12175W        W28649   0.662   3.058  10.587  0.1616 -0.1697 -0.4399
12176W        W28650  15.614  10.219   0.036 -0.0767 -0.0741 -0.1174
12177W        W28651   9.121  11.916  12.950  0.0825  0.3585 -0.2244
12178W        W28652   8.968   1.531  12.553  0.0902  0.0875  0.1424
12179W        W28653   9.666   7.184  14.080 -0.1841  0.0899 -0.1319
12180W        W28654  16.418   7.840  11.691 -0.0740 -0.1455  0.1946
12181W        W28655   3.434   2.053  12.332  0.0448  0.1250  0.3801
12182W        W28656   5.380  12.530   4.248  0.3899  0.0496 -0.1060
12183W        W28657   5.533   6.501   0.668  0.0082 -0.3502 -0.4652
12184W        W28658   9.376  10.352  14.606 -0.0979 -0.0397  0.0074
12185W        W28659  18.328  14.795   2.721 -0.1287 -0.2625  0.2421
12186W        W28660  17.146  18.312  11.903  0.1100 -0.1698 -0.0426
12187W        W28661   0.835  15.643  14.064 -0.2025  0.2035 -0.2605
12188W        W28662  12.000  16.811   0.830 -0.1771  0.0794  0.0143
12189W        W28663  10.626   6.956   4.232  0.1176  0.0735  0.1689
12190W        W28664  15.758  16.800   1.395  0.2043 -0.0388  0.2259
12191W        W28665  19.184  14.057  11.505 -0.0735  0.0624  0.3735
12192W        W28666  10.535   2.029  13.817  0.1043 -0.0232  0.0547
12193W        W28667   1.669   2.357   0.972  0.2153 -0.0678  0.1356
12194W        W28668  17.467  14.657  12.051 -0.1805  0.0720 -0.0693
12195W        W28669   5.852   0.933  11.785 -0.0876  0.0318  0.1184
12196W        W28670   4.715   4.338   2.262  0.0499 -0.1364  0.0105
12197W        W28671   2.958   7.027  14.462 -0.0555  0.0311  0.1654
12198W        W28672  10.707  17.239  14.125 -0.0257 -0.1043 -0.2554
12199W        W28673  18.783   0.291  12.633  0.0147 -0.2900  0.2132
12200W        W28674   7.843  10.937  13.923  0.2077  0.2569 -0.0559
12201W        W28675   5.640   8.743   2.014 -0.2491  0.0754  0.1697
12202W        W28676  18.605  19.375   1.263 -0.3484  0.1612 -0.2363
12203W        W28677   2.426   1.151   2.996 -0.1385 -0.4282  0.2128
12204W        W28678   6.536  17.923  10.758  0.3499  0.0661 -0.2419
12205W        W28679   9.690   3.160   9.914 -0.2791  0.0410  0.1694
12206W        W28680  16.624   7.209  10.875 -0.0625  0.2198  0.0690
12207W        W28681  17.246  11.282   5.210 -0.0802 -0.0627 -0.2084
12208W        W28682   6.490   1.676   0.897 -0.4420  0.2582 -0.1047
12209W        W28683   9.977   9.134   0.161 -0.5421 -0.2565 -0.0023
12210W        W28684   3.121   5.013   2.231  0.0622 -0.2249 -0.0133
12211W        W28685   3.879   9.863   0.435 -0.1075  0.1701  0.1751
12212W        W28686  14.701   4.659  13.126 -0.1935 -0.1134  0.0734
12213W        W28687  14.559   5.557  10.433 -0.0823 -0.1617  0.2940
12214W        W28688  17.393   7.042  14.601 -0.0413 -0.0253  0.0862
12215W        W28689  10.053   7.903  14.397 -0.0951 -0.0246 -0.2815
12216W        W28690   8.526   1.495  10.997 -0.0268 -0.1705  0.3121
12217W        W28691  13.344  18.231   5.105 -0.0791  0.1792 -0.5338
12218W        W28692   6.572   7.841  12.773 -0.1341 -0.1951  0.0592
12219W        W28693  19.339  13.694   4.762 -0.1855  0.2548 -0.2358
12220W        W28694  12.085  10.113   0.182 -0.1560 -0.0656 -0.3046
12221W        W28695   8.629   8.549  11.515  0.3258  0.2865 -0.1922
12222W        W28696   4.312   9.121   3.149  0.1050  0.0535 -0.0647
12223W        W28697   0.212  15.702   4.762 -0.2080  0.0538 -0.3551
12224W        W28698  14.792  17.788   1.379 -0.0435  0.1352 -0.3317
12225W        W28699  14.073  17.691   0.069  0.0059 -0.0519 -0.2092
12226W        W28700  17.499  17.758   4.083  0.1296 -0.1017 -0.2216
12227W        W28701  13.186  19.191  13.163  0.2344 -0.1643  0.1018
12228W        W28702   9.567   0.849  11.396  0.0055  0.0744 -0.1126
12229W        W28703  14.388   5.134  10.127 -0.1699 -0.1654  0.1998
12230W        W28704   5.490   0.461  13.213 -0.2014 -0.0653  0.0628
12231W        W28705   4.760  14.017  12.523 -0.1038 -0.2293 -0.1494
12232W        W28706  18.930  10.807   5.694  0.0657  0.3435 -0.0007
12233W        W28707  16.919  13.286   5.419 -0.0626 -0.3087 -0.0456
12234W        W28708  17.564  15.724   0.210 -0.2896  0.3633 -0.1002
12235W        W28709  19.143  13.409  12.372 -0.3423  0.2137 -0.1696
12236W        W28710  11.667  10.822  12.712 -0.0278 -0.0772 -0.1471
12237W        W28711   7.605  19.002   1.409  0.1393 -0.0581  0.4343
12238W        W28712  19.358  13.393  14.607  0.1399  0.2841 -0.0059
12239W        W28713  12.175  13.211  12.092 -0.3195 -0.0709 -0.3945
12240W        W28714  14.348   3.016   5.274 -0.0605  0.0499  0.0591
12241W        W28715   4.220  15.811  12.613  0.0860 -0.1774  0.5047
12242W        W28716  15.301  12.518   1.083 -0.0856 -0.0997 -0.1855
12243W        W28717  19.046   0.566   0.135  0.1304 -0.2725 -0.0135
12244W        W28718   9.205  15.767   1.042 -0.2404  0.0045  0.2614
12245W        W28719   9.052   8.283   5.046  0.0129  0.0225  0.0436
12246W        W28720   3.667  15.128  12.964  0.2059  0.3408 -0.2957
12247W        W28721   6.189   4.241   3.077 -0.1798 -0.0081  0.0552
12248W        W28722   5.941   2.839   3.675  0.1454  0.1505 -0.1606
12249W        W28723   8.839  17.397  12.666  0.1462  0.0562  0.1110
12250W        W28724  19.244  17.808  12.765  0.2195  0.2731 -0.0522
12251W        W28725   6.784   1.404  10.253 -0.0855  0.0116 -0.2564
12252W        W28726   7.171   9.461  11.366  0.1250 -0.1798 -0.0003
12253W        W28727  19.026  15.392  11.256  0.2071  0.0958  0.2703
12254W        W28728  17.510  13.921  10.803 -0.0324  0.0782  0.0846
12255W        W28729   4.388   6.354  11.345  0.1305 -0.0274 -0.0152
12256W        W28730   9.124  11.407  12.998  0.3075 -0.1160 -0.0249
12257W        W28731  11.575   0.026   0.330 -0.2378 -0.1399  0.0382
12258W        W28732  12.459  19.372   3.882 -0.0922  0.1678 -0.2895
12259W        W28733  18.140  13.560   0.206 -0.1638 -0.2159 -0.0939
12260W        W28734   6.256  18.885   1.926 -0.0223  0.0620  0.1344
12261W        W28735  14.380   4.399   4.630  0.1448  0.0597  0.2561
12262W        W28736   6.143   4.786   9.611  0.0562 -0.2710 -0.0347
12263W        W28737   0.397   1.364   4.006 -0.1683  0.0228 -0.3029
12264W        W28738   2.842   9.109  10.358  0.3624 -0.2368 -0.0601
12265W        W28739   4.789   2.888   0.153 -0.0887 -0.1931  0.0379
12266W        W28740  16.194   5.171   3.275  0.1441  0.3120  0.1432
12267W        W28741   9.163  14.303  13.333  0.0846 -0.1693  0.3509
12268W        W28742   4.161   8.927   4.178  0.1591  0.1920 -0.2640
12269W        W28743   3.979  13.363   0.373  0.1561 -0.3482  0.0227
12270W        W28744  15.541  14.093   3.486  0.0657 -0.3092  0.2386
12271W        W28745   2.609  11.442   4.998  0.0895  0.0484 -0.0398
12272W        W28746   9.139   2.033   0.390  0.4039 -0.1096  0.0161
12273W        W28747  16.531   2.367  11.688  0.2597  0.2757  0.0109
12274W        W28748   6.372   0.659   0.175  0.2696  0.1383  0.2439
12275W        W28749   2.642  11.186  11.058  0.1256  0.0881 -0.0957
12276W        W28750  15.491   3.048   0.377 -0.3216  0.0583 -0.0375
12277W        W28751  15.784  17.025   0.747 -0.0524  0.2231 -0.1562
12278W        W28752  16.405   6.116   3.278 -0.1536 -0.2651  0.2261
12279W        W28753  15.786   2.371   4.694  0.2731 -0.1868 -0.0616
12280W        W28754   6.192   2.794   0.573  0.0456  0.2163  0.1591
12281W        W28755  13.643  10.459  13.578  0.0012  0.2759  0.1014
12282W        W28756   6.472  14.852  11.993  0.1678  0.2689 -0.3885
12283W        W28757   5.932  14.328   4.021  0.0036 -0.1227 -0.1834
12284W        W28758  10.056  17.865   4.673  0.0682 -0.3456 -0.1358
12285W        W28759  18.497  17.838  11.180  0.1856 -0.3020  0.1173
12286W        W28760   3.359  19.118   4.065 -0.1313 -0.4285  0.1905
12287W        W28761  16.922   8.817   3.732  0.0760  0.0772 -0.0026
12288W        W28762  11.078  16.083  11.010 -0.2007  0.1250 -0.0329
12289W        W28763  12.629  16.220   1.484  0.0459 -0.0111 -0.2033
12290W        W28764   3.879  16.224  13.434 -0.0923 -0.2295  0.0686
12291W        W28765  10.390   9.253   0.424  0.0386 -0.1777 -0.0620
12292W        W28766  17.571  10.410   0.791 -0.0516 -0.0080  0.1148
12293W        W28767  18.625  14.136   0.688 -0.1823 -0.1014 -0.1557
12294W        W28768  12.017  13.766   3.656 -0.2965 -0.0238  0.1415
12295W        W28769  11.618  15.778  14.593  0.0427 -0.2888  0.1215
12296W        W28770  15.903   6.060   1.970 -0.1685  0.0097 -0.3689
12297W        W28771   6.628  15.636   3.088  0.0611  0.2457 -0.0152
12298W        W28772   0.783   1.458  11.465  0.2489  0.0428  0.0606
12299W        W28773  11.907   6.020   0.936 -0.3739  0.3262 -0.0135
12300W        W28774   7.116   8.881   2.628 -0.1468 -0.1138  0.1930
12301W        W28775  13.308  13.958   1.601  0.0829 -0.0171  0.0675
12302W        W28776  14.090   1.724   2.109  0.1315  0.0988  0.0274
12303W        W28777  16.000   8.931   3.652  0.0022 -0.1198  0.2321
12304W        W28778  10.289   0.567  11.534  0.2491 -0.3755 -0.1114
12305W        W28779  14.713  14.626   2.978 -0.1366 -0.2031 -0.3802
12306W        W28780  12.572   0.825  12.987 -0.0255 -0.1138 -0.2498
12307W        W28781   5.645   8.472   2.460 -0.1426 -0.3508  0.1780
12308W        W28782   4.376  19.185   0.060  0.0850  0.0516  0.0072
12309W        W28783  17.961   2.685   5.721  0.0998 -0.1509 -0.0732
12310W        W28784  15.731   2.991  10.537  0.3967 -0.0529  0.0885
12311W        W28785   6.183   4.010  10.484 -0.0251  0.1910 -0.1134
12312W        W28786   8.856   3.640   3.829  0.0261 -0.4057 -0.1136
12313W        W28787   8.864  13.989   4.996 -0.0653 -0.1047 -0.0054
12314W        W28788   8.964  13.714  10.918  0.0910 -0.0177  0.4625
12315W        W28789  14.113   2.552  14.056  0.0579 -0.0452  0.0892
12316W        W28790  19.258   9.406   1.712  0.0797 -0.1225  0.0558
12317W        W28791  18.069  15.565   9.984 -0.2121 -0.1045 -0.0243
12318W        W28792   8.209   6.832  10.508 -0.1140 -0.0669  0.0714
12319W        W28793  14.161  11.302  13.826  0.1866  0.0814 -0.0281
12320W        W28794  11.771   8.082   3.407  0.1311 -0.0126 -0.0875
12321W        W28795   6.063   1.607  11.055 -0.0184  0.1835 -0.0397
12322W        W28796  19.271   8.735   9.303  0.1688  0.0104  0.4016
12323W        W28797  13.730   6.825   2.151  0.3878 -0.0162 -0.1652
12324W        W28798  11.057  14.736  12.412  0.0357 -0.1357  0.3741
12325W        W28799   1.853   2.748   0.413 -0.3531 -0.2397 -0.2682
12326W        W28800   6.412  12.653   0.902  0.0539  0.1281 -0.1942
12327W        W28801  13.523  10.476   2.716 -0.1038 -0.0438  0.0810
12328W        W28802   0.575   6.232   2.633  0.0628 -0.1254 -0.0451
12329W        W28803   4.396  11.434  12.768  0.1394 -0.0227 -0.3085
12330W        W28804   6.492   8.866  12.043 -0.0391 -0.1143 -0.1143
12331W        W28805  19.329  14.168   3.440 -0.2547 -0.1414 -0.2982
12332W        W28806  15.513  10.479   0.964 -0.3167  0.0744 -0.0689
12333W        W28807  17.835   4.138   5.357  0.3419 -0.0180  0.1279
12334W        W28808  18.770   6.669   3.177 -0.1873  0.5233 -0.0103
12335W        W28809  18.650  13.271  12.571 -0.1969 -0.1670 -0.0844
12336W        W28810  10.748  15.189  11.535  0.0077 -0.3620  0.3347
12337W        W28811  16.958   9.177   1.294 -0.2611  0.1910  0.1925
12338W        W28812   7.397  16.123  14.348 -0.1829 -0.1650 -0.0139
12339W        W28813  11.012  12.930   1.484  0.3280 -0.1732  0.0995
12340W        W28814  18.037  15.668   4.643 -0.1767 -0.0981 -0.1740
12341W        W28815  10.907   4.069   3.957 -0.1052  0.1897 -0.2463
12342W        W28816  10.800   0.372  13.760 -0.0535  0.0862  0.2231
12343W        W28817  13.647   9.537   2.809  0.0871  0.0505 -0.0096
12344W        W28818   3.335  16.478   2.403 -0.1568  0.2123  0.4855
12345W        W28819   6.490   2.425  12.582  0.1372  0.1341  0.0023
12346W        W28820  13.690  11.735   0.217  0.1524  0.0177  0.0888
12347W        W28821   0.801   7.718  12.635 -0.2902  0.5098  0.1109
12348W        W28822  13.867  13.812  12.433  0.0460 -0.1294 -0.1493
12349W        W28823  15.100  13.100   3.481  0.0016  0.3192 -0.2787
12350W        W28824  17.448   8.986  13.105  0.0431 -0.1972  0.4663
12351W        W28825  18.812  15.037  12.882 -0.5109  0.0228 -0.0320
12352W        W28826   0.078  16.431  11.437 -0.0643 -0.1348 -0.1009
12353W        W28827  10.562   2.108   4.627 -0.0215  0.2138 -0.2825
12354W        W28828  16.219  12.462   4.812 -0.1260  0.0432  0.1316
12355W        W28829   9.507  13.270   4.846  0.0890  0.2074 -0.1903
12356W        W28830   4.584  16.365   2.810 -0.1996 -0.1371 -0.1280
12357W        W28831  16.298  11.600  11.107  0.1748  0.0338  0.1144
12358W        W28832  11.156  14.721   2.527  0.0944 -0.1787 -0.3280
12359W        W28833  11.819   5.642   2.260  0.0217  0.0154 -0.3400
12360W        W28834   0.452  11.203  11.134  0.1959  0.3774  0.0942
12361W        W28835   0.672  13.714   0.977  0.1235 -0.2571 -0.0094
12362W        W28836   5.229  10.509  11.157 -0.1508  0.0986  0.2168
12363W        W28837   1.477  10.115   3.705  0.0867 -0.0985 -0.0841
12364W        W28838   9.281  11.019   4.120  0.3273  0.2018  0.0600
12365W        W28839  14.093   7.094   2.282 -0.0891 -0.1536 -0.1784
12366W        W28840   8.998   7.648   4.601  0.4052 -0.3506  0.1060
12367W        W28841   5.013  18.209   0.632  0.1976 -0.0961 -0.0328
12368W        W28842  18.769   8.115  13.213 -0.2308  0.0266 -0.2849
12369W        W28843   7.157  17.072   9.619 -0.3433 -0.1661 -0.1369
12370W        W28844  10.392  17.555   4.859  0.0931  0.0735 -0.0414
12371W        W28845  15.815  12.709   2.819 -0.0990  0.0457  0.1113
12372W        W28846   9.878  13.298  11.071  0.0729  0.0427 -0.0258
12373W        W28847   5.479   3.590  14.501  0.1688  0.0395 -0.1233
12374W        W28848  18.332  10.710  14.205  0.1352 -0.2497  0.3219
12375W        W28849  13.642   4.502  13.125  0.1159 -0.2942  0.0209
12376W        W28850  14.192  18.952   2.045  0.2936 -0.0079  0.2214
12377W        W28851   3.113   6.869  13.516 -0.0355  0.3839 -0.0689
12378W        W28852  15.046  11.280   2.223  0.1982 -0.3037 -0.1208
12379W        W28853  13.264  17.524  13.464  0.2079  0.2477 -0.0342
12380W        W28854   8.292   2.019  12.101  0.2158 -0.0707  0.1231
12381W        W28855  16.723  12.676   4.170  0.0963  0.1087  0.0460
12382W        W28856  13.753  16.703   3.680  0.0513  0.0731  0.1891
12383W        W28857   4.458   5.755   3.585 -0.0232  0.5093 -0.0760
12384W        W28858   1.654  12.218   1.394 -0.0124  0.0961 -0.1343
12385W        W28859   7.722  16.148   5.319  0.0653 -0.2932 -0.3312
12386W        W28860   4.803  18.284   0.022  0.2850 -0.1146 -0.1913
12387W        W28861  18.866  10.343   3.208  0.0971 -0.0143 -0.1084
12388W        W28862  12.995  13.085   0.377 -0.3738  0.1949 -0.1891
12389W        W28863   8.443   3.980   0.301 -0.0016 -0.0514  0.1604
12390W        W28864  17.944   7.973  12.361  0.0575  0.3676 -0.1605
12391W        W28865   8.884  15.454   2.607  0.1574  0.1940 -0.1144
12392W        W28866   1.246   6.633   0.449 -0.0923 -0.0237 -0.1261
12393W        W28867   5.398  13.154   1.257  0.1540  0.3829  0.2112
12394W        W28868   8.388  14.871   0.600  0.0094  0.1452  0.0635
12395W        W28869  10.002  13.946  12.880 -0.1419 -0.2917  0.0826
12396W        W28870  19.039  16.239   5.187 -0.0627 -0.0757  0.0059
12397W        W28871  10.386   3.322   3.519 -0.1281  0.2524  0.1245
12398W        W28872   9.145   9.292   0.607  0.1552  0.2400  0.1566
12399W        W28873   9.631   5.152  10.289 -0.1036  0.0431  0.0646
12400W        W28874  10.940   1.598   9.034 -0.0303 -0.2517 -0.0353
12401W        W28875   2.680   9.554   3.282 -0.1006  0.1702  0.0397
12402W        W28876   5.885  12.577  13.647 -0.1080  0.0163  0.1608
12403W        W28877  14.533  19.321   9.740  0.3588 -0.1234  0.0220
12404W        W28878  11.772   2.551  14.154  0.0915  0.0626  0.2462
12405W        W28879  10.999  14.289   4.294 -0.1372  0.0631  0.1359
12406W        W28880  13.285  12.795  13.903 -0.1466 -0.0901  0.0240
12407W        W28881  16.706   6.773  14.124 -0.1186 -0.1046 -0.1249
12408W        W28882   8.427  18.468   0.934 -0.3472  0.3422  0.2028
12409W        W28883  12.224   3.258   1.052  0.0129  0.0835  0.0036
12410W        W28884  11.556  16.951   2.069 -0.1326 -0.0460 -0.1107
12411W        W28885   8.357  16.440   0.755 -0.1254 -0.2785 -0.2960
12412W        W28886   1.292   1.556   0.386 -0.1889  0.0819  0.0064
12413W        W28887   6.086  16.467   0.621 -0.4381 -0.1091 -0.1735
12414W        W28888  16.702  16.810  10.879  0.3283 -0.2305 -0.0298
12415W        W28889  10.932   1.530   3.049  0.2208 -0.0391 -0.0446
12416W        W28890  17.169  18.967   0.642 -0.0528 -0.1680 -0.2304
12417W        W28891   5.673  11.559   4.630 -0.0684  0.2942  0.2928
12418W        W28892   2.321  15.396  13.524  0.0845  0.1463  0.0389
12419W        W28893   8.803   7.371   1.482 -0.2283 -0.1738 -0.1933
12420W        W28894  14.298  17.702   4.405 -0.1895  0.2648  0.1946
12421W        W28895   7.427  13.181   3.448 -0.0608 -0.1712 -0.3780
12422W        W28896   2.561  13.639   2.677 -0.1408 -0.1869 -0.0422
12423W        W28897  18.060  17.963  10.873  0.0306 -0.0380  0.1999
12424W        W28898   2.724  19.168  14.504  0.1603  0.0061 -0.2422
12425W        W28899  12.285   9.008   1.606 -0.0096 -0.3426 -0.4078
12426W        W28900   7.607  13.967  12.133  0.1363  0.1127 -0.0225
12427W        W28901  18.841   5.786  12.737 -0.0103  0.1646  0.6240
12428W        W28902   9.835   1.413   0.788 -0.3076 -0.4289 -0.0949
12429W        W28903  14.341   8.061  10.415  0.0184 -0.1451  0.2469
12430W        W28904  13.562   4.463   2.833  0.2323 -0.2314  0.3377
12431W        W28905   8.215   6.534  14.027  0.3476 -0.1225  0.2250
12432W        W28906   7.403  15.564  11.150 -0.3352 -0.0596  0.0725
12433W        W28907   0.706   4.366   0.508  0.0024 -0.0049  0.4686
12434W        W28908  15.770   4.488   3.438 -0.2586  0.2905  0.0077
12435W        W28909   3.506   1.073   0.610  0.0819  0.3875  0.1162
12436W        W28910   4.086  16.260   3.062  0.3318  0.0718 -0.2160
12437W        W28911   3.712   1.057   4.398 -0.2497 -0.2251 -0.0951
12438W        W28912  11.088   8.551  13.638  0.2205 -0.1355 -0.1438
12439W        W28913  14.177  15.138   3.052 -0.1561  0.0814  0.1704
12440W        W28914   1.864  11.468   3.165  0.1430  0.0552  0.1496
12441W        W28915   7.480   8.006  13.811  0.1355 -0.0556  0.2407
12442W        W28916   6.180  10.760  11.771 -0.0422  0.1194 -0.0160
12443W        W28917  10.646  18.514  12.942  0.1191  0.0257 -0.3013
12444W        W28918   6.608  18.682   1.506 -0.0258  0.1812  0.1606
12445W        W28919   1.039   7.787  10.447 -0.2454 -0.1970 -0.0962
12446W        W28920  11.658  18.070  13.125  0.0900 -0.0881 -0.2304
12447W        W28921  18.258  18.256   5.189  0.4381 -0.0139  0.3393
12448W        W28922   5.670  11.199  13.414  0.1834  0.2186 -0.0545
12449W        W28923   1.532   4.103  10.441  0.2073 -0.0114  0.3306
12450W        W28924  10.835   1.180   1.614 -0.1417 -0.2124 -0.1972
12451W        W28925  10.346   9.745  14.511  0.2132 -0.1568 -0.1247
12452W        W28926   2.630  16.822   3.512 -0.3195 -0.1548  0.0142
12453W        W28927   4.560   6.790   0.658  0.1038 -0.0641  0.0243
12454W        W28928   1.827  12.419   2.534  0.1978  0.3190 -0.0779
12455W        W28929  18.815   2.233  10.888 -0.2367 -0.0916  0.1175
12456W        W28930   2.568   9.258  11.400 -0.0080  0.3532 -0.1832
12457W        W28931  18.157  11.058   3.268  0.0710 -0.1069  0.0272
12458W        W28932   0.345   4.391   0.152  0.3037 -0.1935  0.0486
12459W        W28933   3.214   6.517   5.584  0.0621 -0.1090 -0.0566
12460W        W28934   0.604   3.077  14.042 -0.0720  0.2546 -0.2597
12461W        W28935  18.653   2.356  12.416 -0.1066 -0.0948  0.0224
12462W        W28936   1.862   2.777  14.207 -0.1156 -0.0820  0.1076
12463W        W28937   6.717  17.169  13.709 -0.2528  0.1516  0.1412
12464W        W28938   6.588  15.211  13.261 -0.2433 -0.1210  0.3188
12465W        W28939  16.297   2.413  14.347 -0.0708  0.0995  0.0764
12466W        W28940  14.625   7.668  10.280 -0.2074  0.2702  0.1988
12467W        W28941  14.670  13.788  14.295 -0.1205  0.2566  0.0866
12468W        W28942   0.810  13.956   4.476 -0.4484 -0.1497 -0.1320
12469W        W28943   6.131   0.160   0.191  0.1217  0.1732 -0.0981
12470W        W28944  17.699   0.562  11.732  0.0810  0.1122  0.3483
12471W        W28945   8.111  12.677  13.399 -0.3816 -0.2339  0.0503
12472W        W28946   3.683   9.574   1.733 -0.2956 -0.0972  0.0650
12473W        W28947  11.414   8.937  12.785 -0.1704  0.1145 -0.1182
12474W        W28948  12.313   7.192  14.783  0.3826 -0.0690  0.1006
12475W        W28949   4.487   4.154   0.313  0.1409 -0.1455  0.0110
12476W        W28950  12.996   2.738   9.394 -0.0094 -0.1812  0.0539
12477W        W28951   4.034   5.963  12.897 -0.0471  0.2901 -0.4120
12478W        W28952   0.234  18.479  12.200  0.1445 -0.0092  0.1130
12479W        W28953  15.414  15.646   2.471  0.0803  0.2859 -0.2043
12480W        W28954   1.606  15.917  11.815  0.0368  0.0949 -0.0257
12481W        W28955  14.248  14.918   5.199 -0.1364  0.2651  0.1865
12482W        W28956   1.317   7.372   1.042 -0.3350 -0.1951  0.1131
12483W        W28957  10.593  17.795  14.730 -0.2116  0.1780  0.0125
12484W        W28958   2.343  10.050  10.632 -0.0333  0.2709  0.0660
12485W        W28959   2.141  16.860  12.662  0.2766  0.0454  0.0609
12486W        W28960   9.273   7.174   1.545  0.1635  0.1482 -0.0415
12487W        W28961   2.252  16.529   1.323 -0.0636  0.1518  0.3021
12488W        W28962   7.877  18.219  11.896  0.2498  0.0288 -0.0394
12489W        W28963   4.099   6.049   0.684  0.4210 -0.0159  0.3589
12490W        W28964   7.344  19.353  11.355 -0.3745  0.0436  0.0572
12491W        W28965   0.846  13.943  11.194 -0.1152 -0.2424  0.1536
12492W        W28966   0.638  18.027  14.590  0.1567  0.2226  0.2597
12493W        W28967  17.028   9.458   2.974 -0.2903 -0.2294 -0.0476
12494W        W28968  11.119  17.093  12.082  0.0333  0.1228 -0.2828
12495W        W28969  17.905  18.654  11.911  0.1008  0.1602 -0.2474
12496W        W28970  18.041  16.066   2.158  0.2803  0.2253 -0.2123
12497W        W28971  11.413   9.190  13.765  0.2869  0.1220  0.0446
12498W        W28972  13.918   1.774  12.623  0.3724  0.1495 -0.1425
12499W        W28973  19.331  11.322   4.328  0.0637 -0.1860 -0.1348
12500W        W28974  16.960  10.400   0.910  0.1091 -0.1606  0.1437
12501W        W28975   6.641   6.170   2.185  0.0456 -0.2638  0.0272
12502W        W28976  13.152   0.357  11.250  0.3598  0.0234 -0.2791
12503W        W28977  13.906  17.158  14.144  0.2500 -0.1457 -0.0952
12504W        W28978  18.964  12.230   3.467  0.0585  0.0845 -0.1550
12505W        W28979   7.336  17.662  11.247 -0.1567  0.0721  0.2175
12506W        W28980  14.208   8.605   3.951  0.1257  0.5326  0.0551
12507W        W28981  13.548   6.952   0.192  0.1229 -0.0151  0.2043
12508W        W28982   1.765  15.927  11.276  0.1143 -0.2823 -0.4305
12509W        W28983   4.095  12.327  10.553 -0.1806  0.0371 -0.2571
12510W        W28984  13.432  10.121  14.305 -0.1878 -0.2924  0.2454
12511W        W28985   9.950  18.914   2.177 -0.2160 -0.1629  0.0645
12512W        W28986   1.184   4.808   5.758  0.1289  0.2410 -0.2112
12513W        W28987  14.747  12.883   0.582  0.1714  0.3144  0.1307
12514W        W28988  18.490  11.917   2.296  0.0135 -0.1633  0.0729
12515W        W28989   4.356  14.621  10.731  0.0145 -0.1010  0.1006
12516W        W28990  10.887  15.732   4.523 -0.2412 -0.0217 -0.4260
12517W        W28991   2.170   7.378   3.634 -0.1803 -0.0389  0.0643
12518W        W28992   7.924  18.678  10.626 -0.0581 -0.2504 -0.1081
12519W        W28993   1.398   5.564   1.289 -0.0621 -0.2553 -0.1720
12520W        W28994  15.680  11.267   4.774 -0.0112 -0.0692  0.0580
12521W        W28995  16.062  11.301  11.934  0.0602 -0.3464  0.1569
12522W        W28996  18.964   0.210  11.727  0.0813 -0.0201 -0.1141
12523W        W28997  12.662   5.246   1.394 -0.0192  0.0844 -0.1757
12524W        W28998   4.602   5.394  12.653 -0.1667  0.0916  0.0126
12525W        W28999   4.873  19.277   1.355 -0.1421  0.1137  0.1659
12526W        W29000   7.437  18.282   2.512 -0.1778  0.2427 -0.1375
12527W        W29001   7.931   3.964  14.041  0.2185  0.0802 -0.0112
12528W        W29002  12.273   4.200  10.843 -0.1133 -0.0583  0.3458
12529W        W29003  13.914   5.297   0.739  0.1065  0.2336 -0.2122
12530W        W29004  15.930   6.861   4.347  0.2168 -0.1029  0.0931
12531W        W29005   2.667  15.296  10.547  0.1489 -0.0333 -0.0083
12532W        W29006   9.761   9.171  14.527 -0.3506  0.2483 -0.3066
12533W        W29007   2.643  17.840   3.027  0.1156  0.3039 -0.1877
12534W        W29008   7.702   5.255  13.775  0.0975 -0.0277 -0.3463
12535W        W29009  12.912   8.775  11.022  0.0310 -0.1319  0.0742
12536W        W29010  15.582  19.201   1.423 -0.3146 -0.2989  0.0535
12537W        W29011   3.088   7.694   3.159 -0.1148 -0.0221  0.1973
12538W        W29012   2.781   8.194   2.124 -0.2756  0.2224 -0.2549
12539W        W29013   1.792  17.898  12.804  0.1877  0.2077 -0.3149
12540W        W29014   3.891   7.896  12.262  0.1677 -0.0246 -0.2417
12541W        W29015   8.149   3.551  13.769  0.2744 -0.0825  0.0195
12542W        W29016   9.979  19.199  11.757  0.3258 -0.2045  0.0464
12543W        W29017  16.687  14.260  14.355 -0.1098  0.0163 -0.0484
12544W        W29018  17.959  17.967   0.425 -0.0508  0.0739 -0.2370
12545W        W29019  12.888   9.408   0.526 -0.1503 -0.0873 -0.3482
12546W        W29020   8.103  12.865   9.573 -0.2134 -0.0348  0.0357
12547W        W29021  18.661   3.879  12.504  0.1182 -0.1402 -0.1075
12548W        W29022   9.702  12.176   1.042 -0.1289  0.1507 -0.1465
12549W        W29023   3.715   6.567  12.324 -0.3196  0.2715 -0.0685
12550W        W29024   0.523  13.178   0.864 -0.0346  0.0094 -0.2811
12551W        W29025  19.381  13.295   2.962 -0.2918  0.2605  0.5228
12552W        W29026  15.754  11.428  10.633  0.1701  0.0966  0.0112
12553W        W29027   7.174  15.288  12.670 -0.0881 -0.0362  0.1281
12554W        W29028   4.017  15.773   3.239  0.0102  0.1381 -0.0762
12555W        W29029   7.061  10.987   0.281 -0.1569 -0.0038  0.0027
12556W        W29030  14.702   0.768  11.878  0.0040  0.0109 -0.1234
12557W        W29031   4.406  13.007  10.903  0.0995 -0.1883 -0.1439
12558W        W29032  16.766  11.770  11.760 -0.3965 -0.1809  0.3292
12559W        W29033   3.796   2.398  10.513  0.1395 -0.4610 -0.2732
12560W        W29034  12.473   3.214   2.413  0.1900 -0.4812  0.1341
12561W        W29035  13.661   7.102   2.610 -0.0666  0.0443 -0.1328
12562W        W29036  12.909  16.867  13.077 -0.0787  0.0651  0.2851
12563W        W29037   3.393  14.620   2.565 -0.3109 -0.0702  0.1273
12564W        W29038  10.944  18.242   1.392 -0.3273 -0.0428 -0.3318
12565W        W29039  17.086  16.291  12.569  0.0206 -0.1170 -0.2471
12566W        W29040   8.390  11.864  12.495  0.2290 -0.0093  0.1814
12567W        W29041  14.591  17.675   0.373 -0.1100  0.1426  0.1386
12568W        W29042  18.126   2.425   0.699 -0.1145 -0.4084  0.1247
12569W        W29043   7.386  18.912  13.239 -0.1191  0.4127 -0.1263
12570W        W29044   2.216   9.332   4.307  0.0848  0.0852 -0.0107
12571W        W29045  18.593  18.372  10.506 -0.0086 -0.2623  0.0557
12572W        W29046  11.636   4.752  10.883  0.1899  0.0564  0.0532
12573W        W29047  11.371   2.469  14.394  0.1508  0.1137  0.4304
12574W        W29048   5.538   7.991   1.493 -0.0378  0.0056  0.1305
12575W        W29049   6.028  16.430   4.223 -0.1191  0.0117  0.0863
12576W        W29050   7.712   3.424   3.864  0.0168  0.0178 -0.1567
12577W        W29051   9.730  17.510  12.521 -0.1656  0.0666  0.0222
12578W        W29052  14.582   6.887  14.303 -0.0826  0.1438  0.1557
12579W        W29053   9.446   9.552   1.526  0.2094  0.1741  0.1276
12580W        W29054   2.756  18.246   1.914 -0.1845  0.2100  0.2076
12581W        W29055  17.375   0.866  11.528  0.1334  0.0770 -0.0880
12582W        W29056  14.044  13.115  14.048 -0.2315  0.1037  0.1673
12583W        W29057   8.164  16.727   4.159  0.0511 -0.1678 -0.0218
12584W        W29058   5.285  16.375   1.608 -0.0629  0.3132  0.3212
12585W        W29059  10.895   5.785   2.516 -0.0941 -0.1858 -0.2884
12586W        W29060   1.948  13.369   2.157  0.1268  0.0710 -0.1988
12587W        W29061   9.336  14.274   2.997 -0.0615  0.0240 -0.2055
12588W        W29062  11.484   1.453  13.333  0.3051  0.0117 -0.3455
12589W        W29063   9.990  17.163   4.272 -0.1875 -0.0279 -0.2272
12590W        W29064  14.774   1.062   3.175  0.0548 -0.1283 -0.1100
12591W        W29065   9.414  18.999   4.354 -0.0559  0.2635  0.0105
12592W        W29066   4.537   9.857  10.722  0.1658 -0.0761 -0.1510
12593W        W29067   8.908   1.752  10.616  0.2203  0.1149 -0.3435
12594W        W29068  14.059   5.194  14.381  0.0007  0.1294 -0.0652
12595W        W29069   7.278  13.582  10.269  0.2851 -0.1410 -0.2322
12596W        W29070   9.471   1.135   1.076  0.2790  0.0414  0.0171
12597W        W29071  14.745  17.575  14.060  0.0232 -0.3127  0.5188
12598W        W29072   5.997  18.452  11.470 -0.0351  0.3526  0.1683
12599W        W29073  14.951  15.848  12.643 -0.2686 -0.0590 -0.1547
12600W        W29074  12.167   5.603  13.012 -0.3507 -0.2229  0.0697
12601W        W29075   8.100  12.214   2.345 -0.0100  0.2187 -0.3568
12602W        W29076   7.757   1.373  14.668  0.1790 -0.1660 -0.0356
12603W        W29077  14.266   6.604   5.422  0.0331  0.2946  0.1544
12604W        W29078  15.465   0.143  11.141  0.0862  0.0339  0.1032
12605W        W29079   9.982   0.837   3.679 -0.0207 -0.0509  0.1694
12606W        W29080  13.336  12.312  13.522 -0.0348  0.1189 -0.1405
12607W        W29081  16.471  16.253   2.482  0.2926 -0.2084  0.0380
12608W        W29082  16.229  17.267  13.783 -0.0392 -0.0302 -0.1581
12609W        W29083   0.220  16.791   2.832  0.0574  0.1211 -0.0396
12610W        W29084   7.583  10.548  13.303 -0.0148 -0.1239 -0.1148
12611W        W29085   0.663   2.440  11.311  0.2265 -0.3212 -0.0213
12612W        W29086   3.284  17.606  13.561  0.1481  0.2463  0.0150
12613W        W29087   5.270   3.232   4.070 -0.2426 -0.2221  0.0940
12614W        W29088   0.747  10.217  13.642  0.2749 -0.0255 -0.3557
12615W        W29089   4.883  10.416   1.817  0.0942  0.3026  0.1614
12616W        W29090   2.129  12.811  13.769  0.0559 -0.0582  0.1830
12617W        W29091   0.039  19.099  10.585 -0.0609  0.0703 -0.1159
12618W        W29092   8.809  15.890   4.405  0.0392 -0.0146 -0.2755
12619W        W29093   0.474   7.522   2.980  0.0355  0.1577 -0.3779
12620W        W29094  15.692   5.317  13.373  0.1257  0.1441 -0.0132
12621W        W29095  14.542  14.183  12.182  0.0400 -0.1328 -0.1457
12622W        W29096   5.559   9.874   0.024  0.1263  0.0616 -0.0120
12623W        W29097  10.014   7.108   0.009 -0.1904  0.0551 -0.2490
12624W        W29098  10.101   0.156   3.102 -0.0874  0.1049 -0.0973
12625W        W29099   8.059   8.530   2.088 -0.1152 -0.1904  0.0517
12626W        W29100   2.546  11.099   0.593  0.0698  0.1894 -0.1221
12627W        W29101   2.966  14.507  14.734  0.1906  0.2210  0.0125
12628W        W29102   4.309  17.979  12.396 -0.0418 -0.0725 -0.1872
12629W        W29103   2.748   4.392   1.581 -0.1896  0.4186  0.1902
12630W        W29104  17.585  16.002  12.304 -0.0633 -0.3321 -0.0934
12631W        W29105  11.787   8.783   0.163 -0.0152  0.4198 -0.0956
12632W        W29106   1.972  15.714  12.455  0.3954  0.2763 -0.1677
12633W        W29107   6.012  14.892  13.195  0.1769 -0.0399  0.0319
12634W        W29108   4.325   1.438   4.161  0.3911 -0.0732  0.1910
12635W        W29109   5.847  13.986   0.345 -0.1380  0.0943  0.2863
12636W        W29110   0.500   1.865  14.687 -0.0759  0.2220  0.2478
12637W        W29111  17.895   4.977   2.380  0.1357  0.1701  0.1919
12638W        W29112  10.055  12.632  13.929 -0.0358  0.3036  0.0205
12639W        W29113   8.348   5.669   0.948 -0.1343 -0.0458  0.1067
12640W        W29114  14.614  18.032   5.174 -0.0605 -0.0296  0.0001
12641W        W29115   4.412  18.696  13.147 -0.1163 -0.1171  0.0783
12642W        W29116  15.283  19.076  12.374 -0.0321  0.2652  0.0779
12643W        W29117  18.376   9.303  11.736 -0.2402 -0.1338  0.1242
12644W        W29118  13.737   1.325  14.611  0.1839 -0.4048  0.2107
12645W        W29119  11.743  15.267  14.701  0.0919 -0.1201 -0.0541
12646W        W29120   8.469   6.128  11.433 -0.2446  0.2902  0.3333
12647W        W29121   8.901   6.742  10.120 -0.0784 -0.3602 -0.2126
12648W        W29122   1.174  17.225   2.934  0.0312  0.0402 -0.0266
12649W        W29123  16.866   7.424  13.381  0.0990 -0.0031  0.3229
12650W        W29124   5.587  15.344   4.933 -0.1373 -0.0957  0.0650
12651W        W29125  10.460  16.310  12.744 -0.4407  0.1335  0.2030
12652W        W29126  15.407  11.733   3.601 -0.3114  0.1934  0.0757
12653W        W29127  11.689  18.729  12.916 -0.1172  0.0289  0.3364
12654W        W29128   4.959  13.902   2.796  0.1626 -0.0735 -0.1155
12655W        W29129   8.760  19.005  12.761 -0.0599 -0.1028  0.1738
12656W        W29130   3.877   2.195  12.467  0.0952  0.0917 -0.0527
12657W        W29131  10.283   7.674  11.557  0.1306 -0.3852 -0.1413
12658W        W29132   7.649   5.026  12.770  0.0343  0.0724 -0.0350
12659W        W29133   3.012  17.438   4.135  0.0326 -0.1247  0.1249
12660W        W29134   9.478  18.339  13.436  0.0893 -0.2137  0.1290
12661W        W29135  14.474   6.343  12.561 -0.1441 -0.0446 -0.3729
12662W        W29136   1.861  14.427  12.308  0.0299 -0.0691  0.0995
12663W        W29137   7.443   6.804  10.925  0.0002 -0.2474  0.5256
12664W        W29138  10.704  10.474   4.481  0.0850  0.0501  0.4683
12665W        W29139   7.878  17.049   3.340  0.2791 -0.0871  0.1686
12666W        W29140  16.200  13.781   4.658  0.4096  0.1908  0.1473
12667W        W29141   0.651   0.881  10.370 -0.1420 -0.1324  0.1667
12668W        W29142   8.649  11.058   1.155  0.3788 -0.1090  0.1543
12669W        W29143  11.363  16.720   3.803 -0.0615  0.1603 -0.3014
12670W        W29144  11.027   1.944  13.578 -0.1665 -0.2628 -0.1837
12671W        W29145  18.940   1.436  14.360  0.2746  0.2077  0.2270
12672W        W29146   7.453  12.357  10.632  0.3204 -0.0373  0.2090
12673W        W29147  17.017   7.495  11.053  0.1507  0.0351  0.2309
12674W        W29148  11.100  12.212  11.417  0.1495 -0.3273 -0.1888
12675W        W29149  18.847  14.155  14.180 -0.3039  0.3702  0.0221
12676W        W29150  11.257   4.420  10.540  0.1701  0.0100 -0.3729
12677W        W29151  12.434   8.660  11.786 -0.2643 -0.0328 -0.0342
12678W        W29152  14.891  11.669   0.988 -0.4409  0.1007 -0.6098
12679W        W29153   1.292  12.284   3.347 -0.0554 -0.0711  0.0601
12680W        W29154   9.932   6.790   0.985  0.0187  0.0077  0.2902
12681W        W29155  15.438  16.180  11.162  0.2144 -0.0857  0.1003
12682W        W29156   7.615   8.106   4.174 -0.1319 -0.2943  0.0674
12683W        W29157  16.812  17.013  13.199  0.0065  0.0915 -0.3647
12684W        W29158   3.540  10.907  11.835  0.0037 -0.3521 -0.0268
12685W        W29159  14.360   6.788  12.959 -0.0876 -0.0680 -0.1878
12686W        W29160   4.284   0.218  13.155 -0.1235 -0.0640  0.2295
12687W        W29161   4.448   9.848   9.770  0.1327 -0.1951  0.0568
12688W        W29162   8.450  17.889   0.998  0.0100  0.1368  0.2460
12689W        W29163  11.023  16.389   1.677  0.3008  0.1613  0.1672
12690W        W29164   2.046   3.934  10.392  0.3207  0.0512 -0.3319
12691W        W29165   6.158   1.449   3.029  0.0273  0.0070  0.1198
12692W        W29166   1.136  10.167   5.729  0.0097 -0.0292  0.0821
12693W        W29167  19.219   5.482   0.896 -0.0474  0.1055  0.2569
12694W        W29168   4.582  13.602   3.156 -0.0112  0.0964  0.2989
12695W        W29169   7.915   8.371   2.889  0.1636  0.1813  0.0055
12696W        W29170  18.755  13.336   1.222 -0.1643 -0.0335  0.1354
12697W        W29171   5.420   9.425  14.373  0.1146  0.3120  0.2757
12698W        W29172   3.896   3.599   4.000 -0.0975 -0.0958  0.1739
12699W        W29173  13.956  17.747   9.896 -0.2167  0.0791  0.0343
12700W        W29174  16.279  14.181   4.308 -0.0342  0.0706  0.2600
12701W        W29175   3.693   8.002  10.957  0.0384 -0.0951 -0.0437
12702W        W29176   4.675   4.220   5.120 -0.0754  0.2203  0.0728
12703W        W29177   4.630   7.486   5.726  0.2092 -0.0669  0.0955
12704W        W29178  18.830   1.666  10.285  0.1149 -0.0239 -0.1129
12705W        W29179  10.228   5.818   3.346 -0.0677  0.1652  0.1515
12706W        W29180   4.268  15.234   0.315 -0.2747 -0.0728 -0.2704
12707W        W29181  18.621  11.919   4.224 -0.0808  0.0523  0.4130
12708W        W29182  10.621  12.358  10.724  0.1920  0.1307  0.0741
12709W        W29183  15.874  11.248  11.108 -0.0889 -0.2235 -0.4732
12710W        W29184  16.431   8.632   3.468  0.2257  0.1054  0.1729
12711W        W29185  10.452  13.688  11.811 -0.0756  0.0949  0.0854
12712W        W29186  17.013   4.035   0.817  0.0274 -0.0638 -0.0903
12713W        W29187   1.242   9.912   1.884 -0.5380 -0.0270  0.0474
12714W        W29188  14.782  15.373  11.024 -0.1407  0.1421 -0.0958
12715W        W29189  19.017  19.183  14.339 -0.2164 -0.2357  0.3305
12716W        W29190  11.797   7.981  11.835 -0.4884 -0.2348 -0.1468
12717W        W29191  16.368  18.045   2.241 -0.1010 -0.1715  0.3460
12718W        W29192  10.539   3.614   1.683 -0.2372  0.4066 -0.0544
12719W        W29193   1.349   8.941   1.056 -0.0745  0.1367 -0.3587
12720W        W29194  15.596  16.996  14.772 -0.1261  0.0825 -0.1268
12721W        W29195   8.115  18.888   9.757 -0.0322 -0.0341  0.3226
12722W        W29196   2.259  11.932  12.487 -0.3757 -0.1988 -0.1472
12723W        W29197  17.633  18.722  10.655 -0.0008  0.1235  0.2624
12724W        W29198   7.893  13.547  11.959 -0.0211 -0.0704  0.1585
12725W        W29199   0.725   7.688   4.696 -0.1015 -0.2248 -0.0472
12726W        W29200   6.203  13.624   4.627  0.1286 -0.2766  0.2673
12727W        W29201  12.812  10.531   0.820  0.0503 -0.3541 -0.1127
12728W        W29202   3.652  14.637  13.135 -0.2440 -0.1518 -0.2400
12729W        W29203  17.188   3.039   3.777 -0.3305 -0.4226  0.3277
12730W        W29204   9.890  14.904   3.728  0.0563 -0.1870  0.0244
12731W        W29205  18.356   6.857  12.705 -0.2471  0.0700  0.0783
12732W        W29206   4.621   5.995  14.181  0.0861  0.3515 -0.1974
12733W        W29207  10.236   5.744   3.844  0.0811 -0.2220  0.0511
12734W        W29208   1.091  11.380  10.694 -0.0719  0.3387  0.2223
12735W        W29209  16.471   9.081   3.638  0.0898  0.1964  0.1732
12736W        W29210  12.351   4.573   3.783  0.1806  0.0847  0.0020
12737W        W29211  18.981   5.979   3.541 -0.2627  0.0060 -0.2813
12738W        W29212  16.988  10.364   3.129 -0.0497  0.3154  0.0794
12739W        W29213  12.469  11.933   1.063 -0.2447  0.1949  0.3879
12740W        W29214  15.493   5.333  14.385 -0.1033  0.3331  0.2516
12741W        W29215  14.072  17.364   3.891 -0.0107 -0.1207  0.2298
12742W        W29216   4.594  16.055  11.022  0.0524  0.1217  0.2658
12743W        W29217   8.673   1.407   2.366  0.0141 -0.1647  0.0104
12744W        W29218  12.458   6.263   4.822 -0.0705 -0.4124  0.0344
12745W        W29219   6.424  11.907  13.695  0.0603  0.1252 -0.2226
12746W        W29220  12.813   4.010   3.301  0.0633  0.0506  0.3926
12747W        W29221   8.766  19.304  14.156  0.3624 -0.1764  0.3400
12748W        W29222  17.510   1.948   3.870 -0.0913 -0.2804  0.1434
12749W        W29223   5.542   5.444   2.881  0.0810 -0.0660 -0.0519
12750W        W29224  12.122  10.208  11.721 -0.0577 -0.3041  0.0414
12751W        W29225   4.497   4.568   0.086 -0.3002 -0.0452 -0.2594
12752W        W29226   0.103   7.153   5.592 -0.0038  0.0462 -0.1384
12753W        W29227   0.442   6.216  10.767  0.2212 -0.1153  0.0717
12754W        W29228   4.443   1.979   3.955 -0.0271  0.2327 -0.1259
12755W        W29229   8.349   5.461  13.760 -0.1765  0.1834  0.0533
12756W        W29230  10.468  19.002  13.424  0.4561 -0.1831 -0.3249
12757W        W29231   6.940  12.015   5.284 -0.0917  0.2348  0.1746
12758W        W29232  17.690  14.873   3.034 -0.0892  0.0853  0.1106
12759W        W29233   9.760   6.341  10.184 -0.2694  0.1069  0.0844
12760W        W29234  12.360   9.446   4.678  0.1649 -0.1265 -0.1637
12761W        W29235   5.828  18.850   2.172 -0.1915 -0.0691 -0.1443
12762W        W29236  14.520   2.845   4.819 -0.0683 -0.0427 -0.0235
12763W        W29237   8.221   4.940  11.236 -0.0479 -0.2511  0.1052
12764W        W29238  14.767   5.550   1.775 -0.1781 -0.1211 -0.0051
12765W        W29239   6.888  16.099   0.217 -0.2121 -0.1720  0.0448
12766W        W29240  13.725   8.791   2.919  0.1566  0.4075  0.2095
12767W        W29241  18.539   8.510  14.719  0.2665  0.1232 -0.0496
12768W        W29242   1.526   7.175   1.974  0.1446  0.1877 -0.1050
12769W        W29243  14.486   0.113   0.801  0.2962  0.0424 -0.1036
12770W        W29244   8.851  10.677  13.425  0.0226  0.1849  0.3116
12771W        W29245  17.776   8.812   4.212 -0.0227 -0.0408 -0.0130
12772W        W29246  13.993  13.070   4.540 -0.0934 -0.1451  0.0198
12773W        W29247   4.381   4.270  10.437  0.3393  0.0726 -0.2242
12774W        W29248  11.301   4.393  13.117  0.4389  0.0224 -0.0187
12775W        W29249   9.959   4.453  11.488 -0.2522 -0.0344  0.1386
12776W        W29250   3.907   9.030   3.467  0.0797 -0.0632 -0.3709
12777W        W29251   7.312   1.208   3.448 -0.2834  0.2584  0.2406
12778W        W29252  16.836   6.625  13.568 -0.0020 -0.0450 -0.0684
12779W        W29253   3.087   4.777  10.226  0.1285 -0.1759  0.0334
12780W        W29254  18.605   8.615  12.324  0.0410 -0.2559 -0.3550
12781W        W29255   7.882   8.518   9.785 -0.1007  0.1698  0.0472
12782W        W29256   5.958   1.684  10.531  0.2221  0.1857  0.0953
12783W        W29257   3.023   9.861  14.186 -0.0687 -0.1997  0.0464
12784W        W29258   6.780  19.105   3.857  0.0258  0.2522  0.2091
12785W        W29259   6.917  11.015  13.779  0.0067  0.0048  0.2004
12786W        W29260   4.470   5.969  12.501 -0.0365  0.1602 -0.1815
12787W        W29261  13.186   0.862   1.883  0.1149 -0.0369 -0.2295
12788W        W29262   5.689   7.139   3.596 -0.3721 -0.3717 -0.1913
12789W        W29263  17.007  18.625   5.210  0.1943 -0.1565 -0.3397
12790W        W29264   2.456  12.472  13.629  0.1730 -0.1219 -0.3612
12791W        W29265  18.854   0.919   5.830  0.0774  0.2406  0.1367
12792W        W29266  14.061  16.615  12.122 -0.1070 -0.1903 -0.0358
12793W        W29267  15.730  18.975   9.698 -0.4952  0.0771 -0.1016
12794W        W29268  10.172   8.252  13.068  0.0992 -0.1545 -0.0313
12795W        W29269  14.100  14.501  11.326 -0.1605  0.0132  0.1117
12796W        W29270  13.012  10.291   0.337 -0.1567  0.1363  0.2122
12797W        W29271   4.762   1.025  12.685  0.2807  0.0950 -0.0578
12798W        W29272   4.247   6.415   0.958  0.1730 -0.1736  0.1755
12799W        W29273   7.669   1.808   0.886 -0.0411  0.2859  0.0384
12800W        W29274  11.644   7.459  10.101  0.3424  0.0644 -0.2695
12801W        W29275   1.445   6.941   0.812  0.0160 -0.2346  0.0214
12802W        W29276  19.020   3.976  13.348  0.2193  0.0388 -0.0072
12803W        W29277  17.535   7.519   5.206  0.1232  0.0665  0.3483
12804W        W29278  12.086  14.184  12.284  0.1797 -0.0072  0.0474
12805W        W29279   5.651   4.303   2.070 -0.1359 -0.4378  0.1194
12806W        W29280  17.219   9.695  12.510  0.1799  0.1606 -0.0702
12807W        W29281   7.877  15.624   4.510  0.2000  0.0304 -0.0823
12808W        W29282  13.434   3.203   2.647  0.0181 -0.1353 -0.1115
12809W        W29283   7.013  18.480   2.729 -0.2679  0.0332 -0.1174
12810W        W29284  16.648  17.275   0.170  0.1054  0.1817 -0.1670
12811W        W29285   4.032   1.070   0.449 -0.2067 -0.2585 -0.2946
12812W        W29286   4.033  14.295  10.861 -0.2781 -0.3439  0.0702
12813W        W29287  15.183  10.591  11.396 -0.1234  0.1745 -0.0153
12814W        W29288  11.369   3.809  11.292  0.0755  0.1627 -0.2221
12815W        W29289  19.208   1.855  13.224  0.3879  0.0346  0.0030
12816W        W29290  15.769  11.390   4.282  0.0975  0.1227 -0.0447
12817W        W29291  12.056   0.106  13.942  0.1526 -0.3341  0.4224
12818W        W29292  15.623  15.260  14.287 -0.1072  0.1518  0.2571
12819W        W29293   1.902  13.809  14.801 -0.1716  0.1617  0.2762
12820W        W29294   9.486  18.163  11.994  0.2819  0.1149  0.1284
12821W        W29295   2.445   1.046   2.397 -0.2461  0.1928 -0.0006
12822W        W29296   8.740   6.621   0.524  0.0128 -0.1040  0.1033
12823W        W29297   5.859   9.529  13.160  0.2727  0.1045  0.1654
12824W        W29298   1.564   9.493  11.837 -0.1796  0.1817  0.2793
12825W        W29299   6.152   7.822  11.022  0.2468  0.0823 -0.0456
12826W        W29300  13.414   0.270  13.034 -0.2184 -0.0979 -0.3023
12827W        W29301   3.847   7.413   1.791 -0.0856 -0.1608  0.0877
12828W        W29302   7.224  14.910  10.953 -0.1237  0.0169  0.0056
12829W        W29303   2.127  12.128   4.822  0.1074  0.1159 -0.1045
12830W        W29304   4.609   7.250  12.206 -0.2099  0.2329  0.1212
12831W        W29305  10.778  17.480  11.237  0.0482  0.1879  0.1646
12832W        W29306  18.123  14.114   4.385 -0.1731 -0.0793 -0.2846
12833W        W29307   1.716  13.513  12.409  0.1430  0.1654 -0.3790
12834W        W29308  15.850  16.066   3.190  0.0113 -0.2456 -0.2101
12835W        W29309  13.562  12.693  12.114 -0.0166 -0.4045  0.0440
12836W        W29310   4.328   2.620   0.361  0.0981 -0.1362 -0.1002
12837W        W29311   2.167  12.367  11.802 -0.0807  0.0758 -0.1653
12838W        W29312  17.758   2.691   0.927  0.0207  0.0039  0.1163
12839W        W29313   7.663  11.052   3.451  0.0296  0.3165  0.1523
12840W        W29314   9.985   2.505  13.834 -0.2454  0.3286 -0.0200
12841W        W29315   6.942   5.490   3.546 -0.1345  0.0590 -0.2164
12842W        W29316  16.176  17.195   5.769  0.1218  0.1501 -0.0627
12843W        W29317   4.743  13.514   5.379  0.2873 -0.4361 -0.0805
12844W        W29318   1.627  10.407  13.613 -0.2170 -0.2314 -0.2082
12845W        W29319   0.816   8.318   4.060  0.2137 -0.0007  0.1232
12846W        W29320   1.582   9.420  13.615 -0.1541  0.3368 -0.1659
12847W        W29321   0.131  12.082   2.667 -0.0798  0.0070 -0.0824
12848W        W29322  11.447  11.796  12.379  0.0628 -0.0402 -0.1202
12849W        W29323   1.120  10.901   9.905  0.0240 -0.3965  0.3321
12850W        W29324  14.262   2.052   3.108 -0.0719 -0.0143  0.3431
12851W        W29325   8.814  18.809   3.516  0.5095  0.1072  0.0522
12852W        W29326  12.833   9.220   4.533 -0.0361 -0.0234  0.2259
12853W        W29327  17.020  12.146   4.585 -0.0109  0.0870  0.0250
12854W        W29328   3.885   3.987  10.513 -0.1266 -0.0835 -0.2560
12855W        W29329   5.806   5.983   1.137  0.0904 -0.1033  0.0794
12856W        W29330   9.166   2.948  12.571  0.0015  0.1103  0.0509
12857W        W29331   4.127  12.930   3.687 -0.0822 -0.2153 -0.2507
12858W        W29332   1.498  19.358  11.926 -0.2050 -0.1104 -0.0441
12859W        W29333  19.289   2.381   1.886 -0.0359 -0.1026 -0.0813
12860W        W29334   1.221  16.004  13.964 -0.1075 -0.2680 -0.2652
12861W        W29335  15.065  11.409  14.633  0.0521 -0.0902  0.1594
12862W        W29336   2.652   1.083   1.344 -0.1240 -0.1456  0.2733
12863W        W29337  12.810  14.365   2.636  0.2866 -0.2719  0.0634
12864W        W29338  19.365   1.106   1.946  0.1575 -0.1927  0.1446
12865W        W29339   2.721   0.190   3.047 -0.2258 -0.3938 -0.2578
12866W        W29340  10.694   4.551   3.702 -0.1163 -0.0174  0.1247
12867W        W29341   7.424  13.688   5.488 -0.1044 -0.1069  0.3620
12868W        W29342  17.014  12.405  12.542 -0.1438 -0.2478  0.0791
12869W        W29343  14.193   8.083   3.267  0.4100  0.1549 -0.0192
12870W        W29344  14.181   5.133   0.355 -0.2811 -0.1070  0.2704
12871W        W29345  10.558   0.667   2.505 -0.0512 -0.1832 -0.2547
12872W        W29346   1.583  14.168   1.904 -0.0034 -0.0753 -0.0712
12873W        W29347   0.476  11.430   5.594 -0.4098  0.1392 -0.1176
12874W        W29348   9.852  16.437   0.402  0.4605  0.0938 -0.0637
12875W        W29349   9.158   8.563   2.267  0.0170  0.2412  0.2851
12876W        W29350  15.872   2.455  12.018 -0.1127 -0.1057  0.1988
12877W        W29351   7.742  10.955  11.594  0.1426 -0.1579  0.0067
12878W        W29352  14.686   4.314  10.771 -0.2018 -0.2749  0.2707
12879W        W29353  19.119   8.945   1.050 -0.0657 -0.0953  0.2039
12880W        W29354   3.868   0.564   4.322 -0.0827  0.0252 -0.2788
12881W        W29355  16.298  12.097  11.590 -0.1780 -0.0152  0.0663
12882W        W29356   0.169  12.018   3.759  0.1907  0.2949  0.2384
12883W        W29357  12.757   4.873   0.766  0.0335  0.0389  0.1840
12884W        W29358  14.887   2.654  14.485 -0.2347 -0.1670 -0.1861
12885W        W29359  14.918   6.674  12.929  0.0230  0.1609  0.0283
12886W        W29360   9.191  10.775   1.901 -0.0281  0.0371  0.0151
12887W        W29361  10.729   5.241  10.652  0.2032 -0.0645 -0.1671
12888W        W29362   9.268   4.572  12.466  0.0852 -0.0934  0.2187
12889W        W29363   1.455   7.868   3.984  0.2991  0.0090 -0.3591
12890W        W29364  14.470   6.312   1.485 -0.2311  0.0581  0.1463
12891W        W29365  13.139  15.119  10.608 -0.0890  0.0335 -0.1666
12892W        W29366  10.996   9.043  13.465 -0.0461  0.0532  0.1454
12893W        W29367   7.992  16.379   4.949  0.1050  0.1902  0.3625
12894W        W29368  16.567  16.792   2.655 -0.2334  0.0686 -0.0602
12895W        W29369  13.999   3.304  11.330 -0.1242 -0.2863 -0.0503
12896W        W29370  10.622   8.793   0.520  0.2596 -0.0019  0.0038
12897W        W29371   9.476  11.852   2.240 -0.2025 -0.0773  0.1533
12898W        W29372  13.726   1.114  13.275  0.1105  0.0577 -0.0301
12899W        W29373  12.553  17.290  14.036 -0.0931  0.1613  0.1025
12900W        W29374   4.217   9.797  11.271 -0.1897  0.0233 -0.1844
12901W        W29375   4.291  11.069  10.778 -0.0745 -0.1945  0.0957
12902W        W29376   0.115   8.629  11.278 -0.1885  0.1722 -0.2115
12903W        W29377   1.524   4.703  12.418 -0.0248  0.2955 -0.0045
12904W        W29378   5.281  11.579  13.446  0.1208 -0.3574 -0.0937
12905W        W29379   4.340   7.414  10.209 -0.1137  0.0224 -0.1514
12906W        W29380  16.673   9.854  11.317 -0.0820  0.1631 -0.0124
12907W        W29381  18.049  16.605   4.917 -0.1013 -0.0987 -0.0759
12908W        W29382  13.378  13.292  13.576 -0.0009 -0.1804 -0.0671
12909W        W29383   0.106  19.074   0.363  0.3258 -0.1637  0.2407
12910W        W29384  18.968  11.820   2.516 -0.0275 -0.1034  0.2985
12911W        W29385  18.647   7.965   1.645  0.1480 -0.1944  0.1427
12912W        W29386  12.578  15.246  10.499 -0.0719 -0.0650 -0.1170
12913W        W29387   5.555   4.475  13.217  0.1607 -0.0762  0.1545
12914W        W29388   5.917   2.814   1.909 -0.1461 -0.2544  0.1049
12915W        W29389   2.923   5.273   4.168 -0.0122  0.3029  0.1330
12916W        W29390   3.813  10.044  14.560  0.4085 -0.1762  0.0668
12917W        W29391   1.164   1.151  11.626 -0.2925 -0.1140 -0.0013
12918W        W29392   5.151  14.939   0.887  0.1303  0.0908  0.0833
12919W        W29393   3.365  16.287  10.965  0.0743  0.0070  0.4007
12920W        W29394   0.667  14.842  12.218  0.2815  0.1621  0.0335
12921W        W29395   2.038   2.373   1.325 -0.0674 -0.2218 -0.2611
12922W        W29396  13.785   7.153   3.169  0.1864  0.0751  0.1338
12923W        W29397  11.530  15.791   5.194  0.0549 -0.2891 -0.0438
12924W        W29398  14.653   4.191  12.204 -0.0841 -0.1767 -0.0567
12925W        W29399   5.583   9.458  11.436  0.0328  0.0522  0.1090
12926W        W29400   0.826  16.910  12.814 -0.0094 -0.0986  0.1192
12927W        W29401  16.250  15.202  12.824  0.1709  0.2348  0.0406
12928W        W29402  14.501  15.077   2.166  0.0475 -0.1105  0.0705
12929W        W29403  12.845  18.574   2.141 -0.1612  0.1842  0.0406
12930W        W29404   6.931   7.026   4.019 -0.0378 -0.3049 -0.2043
12931W        W29405   1.962  12.779  14.283  0.1473 -0.1681  0.0821
12932W        W29406   5.595   7.694   3.225  0.2202 -0.0171 -0.0127
12933W        W29407   7.535  10.111   3.425 -0.0095 -0.1703 -0.0411
12934W        W29408   1.695  19.053  11.453  0.0112 -0.2947  0.0530
12935W        W29409   2.505   6.185  14.087 -0.1152 -0.0413  0.0720
12936W        W29410   0.389  14.755  14.701 -0.1822  0.1366  0.0044
12937W        W29411   6.087   4.739  11.855  0.0261  0.1347 -0.0472
12938W        W29412  16.824   9.564   2.528  0.0977  0.1023 -0.3858
12939W        W29413  18.700  18.714  11.847 -0.2563  0.1424 -0.1388
12940W        W29414   4.754   6.368   3.862  0.0274 -0.0158 -0.1864
12941W        W29415   2.774   3.512   4.779  0.1543  0.0125 -0.0334
12942W        W29416  16.482  15.043   0.678  0.1037 -0.1292  0.1673
12943W        W29417   2.862  15.738  14.609  0.0527  0.1523 -0.1741
12944W        W29418   5.482  13.085  12.501  0.1191 -0.1456 -0.0720
12945W        W29419  14.445   0.841  11.281 -0.0406 -0.0947 -0.2334
12946W        W29420  15.516   6.563   1.764 -0.0987 -0.0604  0.0851
12947W        W29421  12.644   3.278  10.772  0.3572  0.1021  0.1252
12948W        W29422   3.346   4.152  13.756 -0.0659 -0.2137  0.2019
12949W        W29423  10.849   0.199   1.177 -0.2145 -0.0020 -0.2982
12950W        W29424  10.748   8.536  13.258  0.1318 -0.2796  0.0370
12951W        W29425   5.159  11.622   4.116  0.2055 -0.2939 -0.3428
12952W        W29426   4.450   5.162  10.562 -0.0204  0.1266 -0.1506
12953W        W29427   2.514   7.450   2.299 -0.2824  0.0107 -0.0976
12954W        W29428  16.374   9.879  13.739  0.0241 -0.1883  0.0048
12955W        W29429   9.353   1.109  11.735 -0.1844 -0.2975  0.2748
12956W        W29430  16.213   6.918  13.194  0.0630  0.1222  0.0702
12957W        W29431   9.433   8.777  11.403  0.1744 -0.2029  0.1737
12958W        W29432  11.770  11.694   2.998  0.1252 -0.2504  0.1114
12959W        W29433   2.565  13.875  10.608  0.0784 -0.2342  0.0401
12960W        W29434   8.756   1.723   3.260 -0.0217  0.0026  0.1292
12961W        W29435  18.130  19.009   1.193 -0.2285 -0.2074 -0.0328
12962W        W29436  18.802  10.593  10.861  0.1484  0.2205 -0.0700
12963W        W29437   2.312  13.695   3.214 -0.1188 -0.0352  0.0458
12964W        W29438  14.527   2.883  10.859 -0.0310 -0.2115  0.4530
12965W        W29439  11.322   8.405  10.919 -0.0442  0.0566  0.0221
12966W        W29440   3.529  15.376   2.490  0.0213  0.1610 -0.2092
12967W        W29441   9.245  18.049   3.515  0.0253 -0.3649 -0.3615
12968W        W29442   5.294  17.484   9.389 -0.0119 -0.0697  0.1275
12969W        W29443  16.328  17.187   2.509 -0.0873 -0.0675 -0.2891
12970W        W29444  18.264  14.740  13.631 -0.3101 -0.1616 -0.0911
12971W        W29445   8.886   5.208   3.094 -0.3095 -0.2864 -0.0297
12972W        W29446  18.396   1.106   1.934  0.1098 -0.0978 -0.2943
12973W        W29447  15.836  14.111   2.923  0.1064 -0.0873 -0.0320
12974W        W29448  14.203   4.586   0.190 -0.2544  0.0562  0.0056
12975W        W29449   0.858  12.631   1.221 -0.1445  0.0062 -0.0058
12976W        W29450  18.554   6.902   0.466 -0.1113 -0.1792 -0.2225
12977W        W29451  15.414   5.317  13.866  0.0088  0.2859  0.4025
12978W        W29452   5.763   2.143   4.219 -0.1095  0.1557  0.1169
12979W        W29453  18.125  17.082   2.069 -0.1458  0.1539  0.0979
12980W        W29454  12.160  18.145  10.015 -0.2595  0.0386 -0.0839
12981W        W29455  15.202   0.162  13.794 -0.1285 -0.0506 -0.0701
12982W        W29456   4.657  14.310   1.922 -0.2065  0.0266 -0.1523
12983W        W29457   6.461  10.117   3.886 -0.1466 -0.3688 -0.1899
12984W        W29458  13.638  11.428   3.579 -0.1838 -0.0637  0.1768
12985W        W29459   0.523  11.979  14.384 -0.1896  0.0246  0.3316
12986W        W29460   9.466  14.600  12.981 -0.0627 -0.2001 -0.3195
12987W        W29461   7.175   8.068  14.183 -0.2952 -0.1015 -0.1765
12988W        W29462   2.866  13.211  10.162 -0.0764 -0.2055  0.0694
12989W        W29463  10.546  11.686   4.178 -0.0257 -0.1011  0.3697
12990W        W29464  10.977  15.863  14.620 -0.2293 -0.3490  0.2535
12991W        W29465   6.521  12.338  14.005  0.0591 -0.2362 -0.1418
12992W        W29466  12.259  14.299  14.828 -0.1437  0.0966  0.1109
12993W        W29467   5.302  10.284  12.679  0.0507 -0.0071 -0.2317
12994W        W29468  15.288  18.654  12.625 -0.0579 -0.1020 -0.0344
12995W        W29469  17.413   2.275  14.560  0.3612  0.2689 -0.3257
12996W        W29470   1.028  15.941   2.318  0.0290  0.0496  0.2298
12997W        W29471  10.149   0.836   1.160 -0.2593  0.0379 -0.0040
12998W        W29472  15.628  15.097  12.161  0.0252  0.1990  0.1011
12999W        W29473  15.604  18.771   0.146 -0.0873 -0.0143 -0.0413
13000W        W29474   3.795   7.882  13.625 -0.2014 -0.0077 -0.0524
13001W        W29475  13.510   5.112  12.428  0.1059 -0.1122  0.0309
13002W        W29476   0.529   9.818   3.203  0.0367 -0.2352  0.0974
13003W        W29477   4.736  13.980  14.303  0.1144 -0.2342 -0.5156
13004W        W29478   6.856  10.524  14.010 -0.0867  0.0405  0.0866
13005W        W29479  14.337  13.756  11.877  0.1077  0.0080 -0.0277
13006W        W29480   7.740  18.215   1.468  0.1547  0.0848 -0.2786
13007W        W29481   8.413  14.030   3.075 -0.1148  0.1531  0.0531
13008W        W29482  13.978  16.749  13.161  0.1445 -0.2644 -0.1523
13009W        W29483  16.413   9.058   4.965 -0.1279 -0.0547 -0.2473
13010W        W29484   9.882   9.771  11.217  0.1495  0.0441 -0.0532
13011W        W29485  19.378  16.709   1.057  0.0003 -0.3467 -0.1082
13012W        W29486   8.435   1.326  12.879  0.1048  0.0657  0.0770
13013W        W29487   3.867   1.311   3.835 -0.0461  0.1735  0.2203
13014W        W29488   7.791   9.530  11.424 -0.0409  0.0196 -0.1086
13015W        W29489   9.992  17.802   2.452  0.0158 -0.0094 -0.1042
13016W        W29490   1.639  11.954   4.458 -0.0288 -0.2040  0.0576
13017W        W29491  19.019   0.859  14.170 -0.0633  0.3541 -0.0537
13018W        W29492   8.635  17.806  11.445 -0.0051  0.1448  0.1457
13019W        W29493  10.546   9.969  10.420  0.3079 -0.1338 -0.1371
13020W        W29494  12.798  11.596   3.443 -0.1378  0.2366 -0.1795
13021W        W29495  11.939  14.667   4.858 -0.0197  0.0155  0.3767
13022W        W29496   8.404   5.794   9.665  0.1399  0.3501  0.0707
13023W        W29497   6.520  12.319   2.616  0.0634  0.2680 -0.1978
13024W        W29498  10.706  12.280  14.386  0.0712 -0.0098 -0.0704
13025W        W29499   5.653   2.156  12.120  0.1177  0.1722  0.0626
13026W        W29500  13.999  15.351  11.640 -0.0888 -0.3345 -0.0953
13027W        W29501   2.775   2.181   1.251  0.1273  0.0399  0.1018
13028W        W29502   8.057   9.169  14.399 -0.0931  0.0265 -0.2202
13029W        W29503   0.065  18.954   2.564 -0.1754  0.0618 -0.1564
13030W        W29504  12.070   7.784   0.999 -0.1781  0.1536 -0.2562
13031W        W29505  13.294   1.218  13.497  0.2337 -0.1259  0.2560
13032W        W29506   8.218   9.055  13.907  0.2158  0.1970  0.3106
13033W        W29507   3.880   8.047  14.617  0.2221 -0.0280 -0.1207
13034W        W29508   5.082  15.134  11.601  0.1344  0.0435 -0.1648
13035W        W29509   3.329  17.503  12.222  0.1757 -0.1740  0.0505
13036W        W29510  13.518  18.320   0.505 -0.1953  0.1554 -0.1930
13037W        W29511   8.561  16.149  12.250  0.0319  0.0675  0.0861
13038W        W29512  19.119  12.978  13.449 -0.2124  0.1390 -0.0423
13039W        W29513   0.641  18.753  12.218  0.2517  0.2434 -0.1597
13040W        W29514  16.607   1.049  14.192  0.0080  0.1941 -0.2975
13041W        W29515   6.086   9.434   0.769  0.0943  0.2505 -0.1912
13042W        W29516  18.866   6.557  11.851 -0.1588  0.0301 -0.1208
13043W        W29517  12.154   4.248  10.314  0.1434 -0.3190 -0.0121
13044W        W29518  10.358   4.688   1.138 -0.0860  0.0977  0.1377
13045W        W29519  15.284   2.921   9.535  0.1534  0.0946 -0.2338
13046W        W29520   9.006   7.956   4.122 -0.2962  0.2243  0.0946
13047W        W29521  15.156   7.282  12.525  0.3521  0.1523  0.0033
13048W        W29522  17.929   2.090   4.790 -0.0770 -0.0645 -0.1071
13049W        W29523   2.920  18.218  12.323  0.1084 -0.0648  0.1935
13050W        W29524   2.426   0.368   1.892  0.0711  0.0727  0.1358
13051W        W29525  15.630   1.696   5.658 -0.1693  0.0507  0.1977
13052W        W29526   4.300  12.177  14.476  0.1148  0.2132 -0.0261
13053W        W29527  10.600   3.367  11.957 -0.0881 -0.0393 -0.0377
13054W        W29528  16.963  19.330  12.864  0.1050  0.0866 -0.1096
13055W        W29529  18.386  19.326  12.514  0.0818 -0.0070 -0.0520
13056W        W29530  14.757  15.420   5.142 -0.2687  0.0389 -0.1465
13057W        W29531   4.425  12.247  11.733 -0.0073  0.0953 -0.1401
13058W        W29532  16.123  17.897   4.533 -0.1090 -0.0052 -0.2559
13059W        W29533  11.649   4.735  12.769  0.0711  0.0268 -0.2916
13060W        W29534   2.653  13.368  10.576  0.0398  0.2783 -0.0772
13061W        W29535  11.741  15.439   2.440  0.2750  0.4170 -0.2906
13062W        W29536   4.514  19.258   4.112 -0.0611  0.0720 -0.0418
13063W        W29537  10.209   6.297   1.575 -0.0207 -0.1007  0.0700
13064W        W29538   5.647   7.243   4.533  0.1282 -0.2033  0.0051
13065W        W29539  14.704   0.846   9.936  0.1488  0.1170 -0.3002
13066W        W29540   4.395  15.995  10.190  0.5144  0.1019  0.0639
13067W        W29541   5.651  16.050   2.514 -0.2414  0.1815  0.1566
13068W        W29542   6.282   9.505   1.930  0.1565  0.0788 -0.1502
13069W        W29543   9.643  15.832  12.197 -0.2287 -0.1382  0.1485
13070W        W29544  13.386   6.102   0.692  0.1205  0.0607  0.2008
13071W        W29545   9.513   8.060   0.430 -0.0572 -0.1959  0.0140
13072W        W29546   9.480   1.086  13.123 -0.0812  0.0918  0.1922
13073W        W29547  12.247  16.488   4.125 -0.1330  0.1302 -0.3707
13074W        W29548  18.144   3.933   4.296 -0.0884  0.0743  0.3799
13075W        W29549   9.503   3.480  13.654  0.3781 -0.4394 -0.1425
13076W        W29550   1.720  16.575  12.479  0.0809 -0.1539 -0.0985
13077W        W29551   6.667  16.133  12.883 -0.0773  0.2214  0.0556
13078W        W29552  14.915  11.090  13.449  0.2074 -0.0290  0.1370
13079W        W29553  17.006   0.288   1.656  0.1435 -0.0619 -0.0094
13080W        W29554   1.192  11.454  12.300  0.1714  0.1837  0.2221
13081W        W29555   5.325   3.190  10.084 -0.1599 -0.0622 -0.0233
13082W        W29556  10.030   2.406  11.708  0.0206 -0.1267 -0.1123
13083W        W29557  14.299   1.502  14.268 -0.1602 -0.1758  0.0951
13084W        W29558   5.864   8.318  14.468 -0.2339 -0.1263 -0.3294
13085W        W29559  14.520  15.548  11.747 -0.1419  0.2475 -0.2145
13086W        W29560  13.530   7.478   2.867 -0.2181  0.0304 -0.1419
13087W        W29561   3.210  17.757   3.358  0.1938  0.3688 -0.1607
13088W        W29562   9.224  16.942   0.765  0.1216 -0.0808 -0.1127
13089W        W29563   3.235  10.226   9.795 -0.0245  0.3500  0.0535
13090W        W29564  10.692   7.213   9.495 -0.0117 -0.0823  0.0326
13091W        W29565  11.490   5.801   3.751  0.0373 -0.2048  0.0629
13092W        W29566  19.115  10.954   0.793  0.2567 -0.1201  0.3520
13093W        W29567   4.761  12.741   0.119 -0.1966 -0.2552 -0.3421
13094W        W29568  10.459   5.142  12.270  0.0469 -0.2220  0.4496
13095W        W29569  17.568  18.992  14.780 -0.4400  0.1199  0.0766
13096W        W29570  19.092  15.889  11.699  0.1172 -0.0518  0.2231
13097W        W29571  12.067  18.072   0.020 -0.2575 -0.0847  0.5039
13098W        W29572  17.811  12.187   4.407 -0.1115 -0.0552  0.1561
13099W        W29573  11.212  14.255  11.352  0.1197  0.0328  0.0032
13100W        W29574  13.653  10.413   2.202  0.2776  0.0577 -0.0450
13101W        W29575   4.260   5.612   1.531  0.0501 -0.0777  0.1307
13102W        W29576  17.742  17.287   1.770  0.0012  0.0314  0.2202
13103W        W29577  10.406   8.709   3.396  0.1448  0.0296  0.1968
13104W        W29578   4.200   6.785  13.028  0.3773 -0.1080  0.2246
13105W        W29579   2.887   5.826   0.200 -0.0984 -0.1037  0.0083
13106W        W29580   3.900   4.725  14.314  0.0088  0.1133  0.0427
13107W        W29581  16.822  16.575  13.535  0.1275  0.0005  0.2410
13108W        W29582  13.886   0.737  10.030  0.1558  0.1657 -0.0220
13109W        W29583   3.137   4.348   1.144 -0.0040 -0.0632  0.1240
13110W        W29584   7.210  11.620   3.395 -0.2404  0.3945 -0.1999
13111W        W29585  17.622   5.151  12.507  0.1867  0.1013 -0.0395
13112W        W29586   7.615  13.523  13.285  0.2061 -0.0976  0.0429
13113W        W29587   8.868   1.805   0.742 -0.1901 -0.0471 -0.1899
13114W        W29588  14.777   3.721   1.982  0.0388 -0.0807  0.2749
13115W        W29589  19.302   7.639   3.730 -0.3764  0.0210 -0.0898
13116W        W29590   9.599   7.727  13.186  0.3240  0.0532  0.2023
13117W        W29591  18.402   7.076   4.724  0.0584  0.2774 -0.2051
13118W        W29592   5.239   5.090   3.076  0.0290 -0.2808  0.0687
13119W        W29593   8.238   8.535  14.160  0.2991  0.2206  0.2841
13120W        W29594   3.111  12.107   1.669 -0.4691  0.0487  0.0236
13121W        W29595   4.980   2.045  13.961 -0.1308 -0.1366 -0.2715
13122W        W29596  15.410  12.266  11.395 -0.1159  0.1526 -0.2826
13123W        W29597   7.246  12.411   3.896  0.2817 -0.1970 -0.1456
13124W        W29598  19.005  13.019  12.187 -0.2125 -0.0220  0.1046
13125W        W29599   3.923   8.833  13.277 -0.2313 -0.1788 -0.2594
13126W        W29600   4.773  13.813   4.044  0.0195  0.0442 -0.1579
13127W        W29601   3.888  13.572  12.743 -0.3068 -0.0389 -0.0640
13128W        W29602  14.237   3.564  13.145 -0.0094 -0.2139  0.2313
13129W        W29603   6.776   9.316  13.824 -0.1691 -0.0016 -0.1175
13130W        W29604  12.000  14.927   3.565  0.1455 -0.0104 -0.1014
13131W        W29605   2.151  19.261   3.026 -0.0679  0.2122 -0.3428
13132W        W29606   5.659   8.478   1.524 -0.0562  0.0288 -0.1045
13133W        W29607   9.053   6.094   4.399  0.0471  0.0849 -0.1306
13134W        W29608   9.892  18.603  10.904  0.0179  0.0821 -0.0343
13135W        W29609  18.374  15.762   0.443 -0.0072 -0.2089 -0.1791
13136W        W29610  15.933   3.047  11.542  0.0561 -0.1575 -0.0043
13137W        W29611   8.008   7.798   0.533  0.1141  0.1025 -0.4235
13138W        W29612   0.802   2.433   3.655  0.0635  0.0389  0.1594
13139W        W29613  10.030   2.926   3.172 -0.2519  0.0733  0.0020
13140W        W29614  11.136   6.256  12.952  0.0931  0.0345  0.1149
13141W        W29615  11.743  15.254  13.246  0.0647 -0.2259 -0.1002
13142W        W29616  17.920   2.207  10.479  0.3498 -0.0029 -0.1870
13143W        W29617   3.974  11.215  12.518  0.4880  0.3855  0.0497
13144W        W29618  13.054  14.877  13.407 -0.0811 -0.1603 -0.1034
13145W        W29619   3.228  13.107  13.696 -0.0209 -0.1343  0.0987
13146W        W29620   5.793  11.578   3.436 -0.0032  0.0795  0.3662
13147W        W29621  13.840   4.301   0.446 -0.1789  0.2991  0.3553
13148W        W29622   6.671  11.630  14.651  0.2468  0.2060  0.0422
13149W        W29623   8.549   3.753   1.445  0.1149 -0.1515  0.4053
13150W        W29624   3.716   1.462  13.040  0.0084  0.0655  0.1623
13151W        W29625   8.150  13.460  14.096  0.2788  0.1512 -0.0483
13152W        W29626   5.133  13.405  11.334  0.0224 -0.2752  0.0532
13153W        W29627   2.593  11.236   1.840  0.4290 -0.3244  0.2451
13154W        W29628  12.038  13.126   2.952  0.0323 -0.0877 -0.3242
13155W        W29629  13.058  13.855   0.468 -0.4486 -0.1841  0.2039
13156W        W29630   1.935  10.062   1.367  0.2466 -0.0265 -0.1861
13157W        W29631   3.853   4.229   4.251 -0.0082  0.0565  0.2273
13158W        W29632  16.514   6.484  12.238  0.1626 -0.1980  0.1173
13159W        W29633  11.252  17.279   1.340 -0.0647 -0.2595 -0.0561
13160W        W29634   2.513   1.119  11.304 -0.0313  0.0888  0.0776
13161W        W29635  13.705   3.976  13.959  0.1205 -0.2074 -0.1781
13162W        W29636   0.236   1.135   0.600  0.1480 -0.2791 -0.1281
13163W        W29637   2.387   6.304  10.590 -0.1609  0.0977  0.0543
13164W        W29638   9.068   1.999   1.189  0.1489  0.4231  0.0401
13165W        W29639   1.151   3.464  11.790 -0.0257  0.0145  0.3500
13166W        W29640   9.201  10.790   3.673 -0.2672 -0.0553  0.1350
13167W        W29641  19.359   1.989   0.235 -0.0858 -0.2695 -0.2140
13168W        W29642  17.523   4.648   5.458 -0.2956  0.1588  0.1630
13169W        W29643  13.507  17.291  14.480 -0.0776  0.1003 -0.0398
13170W        W29644  15.472  16.419  14.068 -0.2656  0.1031  0.2005
13171W        W29645   4.623  11.743   0.110 -0.2100 -0.0339 -0.1442
13172W        W29646   4.282  14.451   2.293 -0.0334 -0.1596 -0.1499
13173W        W29647  12.142   3.760  10.613  0.0393  0.2071  0.0514
13174W        W29648   7.652  12.318   1.462  0.1789  0.1327  0.0318
13175W        W29649  15.570  16.941   3.453 -0.2175  0.0984  0.3156
13176W        W29650  16.428  17.917  14.415  0.5841  0.0302 -0.1026
13177W        W29651  10.288  18.886   3.913 -0.0178 -0.6503 -0.0579
13178W        W29652   0.372  11.588   0.489  0.2259 -0.0477  0.2438
13179W        W29653  15.653  14.965  12.814  0.0540  0.1562 -0.2921
13180W        W29654   1.277  16.493   3.551  0.4680 -0.4291 -0.2711
13181W        W29655  19.121  14.369   1.860 -0.1085 -0.3112 -0.0983
13182W        W29656  13.485  16.636  11.423  0.3703 -0.0168 -0.2155
13183W        W29657   9.094   6.295   4.893  0.1280 -0.0332  0.4558
13184W        W29658  16.022   9.722   9.647  0.2024 -0.0278  0.1111
13185W        W29659   2.861   2.278  10.569 -0.4261  0.0342  0.0692
13186W        W29660  10.004  18.738   9.735 -0.1128  0.0623  0.0439
13187W        W29661  15.088  17.904   2.400  0.1293  0.2951 -0.2044
13188W        W29662   0.429  18.597   5.145  0.1017  0.0644 -0.0616
13189W        W29663   8.479   3.649  13.411  0.0678  0.2694  0.2804
13190W        W29664  18.508  19.217  11.997  0.2755  0.1301 -0.0731
13191W        W29665  12.589  17.187   1.905 -0.1095 -0.0404 -0.2507
13192W        W29666   7.937   2.565   3.754  0.0127 -0.1922  0.3409
13193W        W29667  18.031  12.477  11.083  0.1034  0.2464  0.0769
13194W        W29668   8.682  16.627   9.864 -0.1996 -0.1801 -0.4844
13195W        W29669   0.944  12.921  13.273 -0.0467 -0.2984 -0.1002
13196W        W29670   7.828  12.455   0.029  0.4472  0.1753 -0.2671
13197W        W29671  14.444  12.482   5.165 -0.0452 -0.1562 -0.0908
13198W        W29672   0.368  16.501  13.518  0.0844 -0.0037 -0.1112
13199W        W29673  15.378   2.687  12.251  0.1318  0.4264  0.0984
13200W        W29674   3.793  17.551  12.698  0.0240 -0.0606 -0.2343
13201W        W29675   3.908   6.731   2.985  0.0058  0.0271 -0.0338
13202W        W29676   3.060   2.934  12.509  0.0111 -0.3336  0.4229
13203W        W29677   6.924  13.921   0.183  0.0696  0.2132 -0.0097
13204W        W29678   7.346   2.028  12.882  0.0073  0.0746 -0.2093
13205W        W29679   0.300  11.447   3.431 -0.2060  0.0056  0.0325
13206W        W29680   0.794  16.835   1.191  0.0993  0.0066 -0.1869
13207W        W29681   8.867   7.561  11.056 -0.3193 -0.2823  0.1068
13208W        W29682  17.838  16.574   3.094  0.0264 -0.1201 -0.3534
13209W        W29683  17.354   5.190   4.192  0.0060  0.0445 -0.1543
13210W        W29684  15.816  15.508  14.738  0.1911 -0.2633  0.0743
13211W        W29685   5.032   6.721  11.995 -0.0665  0.0055 -0.1156
13212W        W29686   7.816  17.429   3.015  0.3169  0.1131  0.2266
13213W        W29687   8.983   4.116   2.315  0.4049  0.1535  0.1222
13214W        W29688  17.049   2.887   1.784  0.0798  0.3104 -0.1018
13215W        W29689  11.635   3.700  13.758  0.0196 -0.3557  0.0305
13216W        W29690  16.738  13.401   0.015  0.2437  0.3830 -0.3315
13217W        W29691  10.802   8.820  12.842 -0.4616 -0.0725 -0.2241
13218W        W29692   1.790   8.898   4.685 -0.0086 -0.1661 -0.0245
13219W        W29693   5.100   5.538  12.790  0.1122 -0.2325 -0.0293
13220W        W29694   6.453  12.887   9.735 -0.3431 -0.0360  0.3915
13221W        W29695   6.472   2.300   8.819 -0.1776  0.1471  0.0441
13222W        W29696   1.217  18.318   1.210 -0.2392  0.3714  0.0647
13223W        W29697  15.136  16.578  12.346 -0.0352 -0.0590 -0.1170
13224W        W29698  14.154  14.546   1.002 -0.0838  0.2358  0.1293
13225W        W29699   0.720   1.558  10.830 -0.0647  0.0643 -0.0063
13226W        W29700   8.763   9.678   0.610  0.3051  0.0106 -0.1861
13227W        W29701   4.719   9.626  11.138  0.1243 -0.1229  0.2141
13228W        W29702  16.474   3.063   5.040 -0.2817  0.3287  0.1628
13229W        W29703  14.368  15.934  12.249 -0.2107 -0.0064  0.1841
13230W        W29704  12.367  13.541  10.666 -0.1563 -0.1968 -0.0910
13231W        W29705  12.814   4.415  14.270  0.2974  0.0276 -0.1258
13232W        W29706   4.477  10.511   1.335  0.1041  0.0206 -0.1944
13233W        W29707   0.387   2.656  10.916 -0.0888 -0.2056  0.2673
13234W        W29708   9.447  16.077   0.549  0.1147  0.1439 -0.1951
13235W        W29709  11.549   4.608  11.817 -0.0965 -0.0044 -0.1321
13236W        W29710   0.883  11.612   1.281 -0.3813 -0.1275  0.1814
13237W        W29711   3.799  12.171  12.842  0.1684 -0.0538 -0.0961
13238W        W29712  18.969  15.716   5.435  0.1132 -0.1292 -0.1199
13239W        W29713   9.562  18.891  10.986  0.0711 -0.3183 -0.0330
13240W        W29714   3.062  18.764  14.279  0.0055 -0.1753  0.2103
13241W        W29715  10.572   3.070  10.443  0.1493  0.1785  0.0919
13242W        W29716   4.435  18.043  13.290  0.3814  0.0418  0.1079
13243W        W29717  16.527   9.071  13.313 -0.4215 -0.0403  0.3818
13244W        W29718  15.979   7.588   2.042  0.1937  0.0961  0.0125
13245W        W29719   2.826   4.412   2.106 -0.0308  0.2014 -0.0660
13246W        W29720  10.578   2.923   3.210 -0.0038 -0.1330  0.3611
13247W        W29721   9.739   8.300  13.292  0.0256  0.0590  0.2333
13248W        W29722   7.829  10.150  11.347 -0.0014  0.0530  0.0135
13249W        W29723  10.375   8.244   3.607  0.0032 -0.2895 -0.1625
13250W        W29724   4.941   4.613  11.060 -0.1256  0.1382  0.1154
13251W        W29725   9.199   1.325  12.190  0.3909 -0.3585  0.2848
13252W        W29726   0.121  14.439   3.024  0.1461  0.5473  0.1486
13253W        W29727  18.745   2.199   4.300  0.0968  0.2301 -0.3710
13254W        W29728  10.107  10.712   3.055 -0.0964  0.2837 -0.0653
13255W        W29729   8.530  19.383   2.182  0.0213  0.0691  0.1388
13256W        W29730   1.417   0.577   1.821  0.1093  0.1919  0.0277
13257W        W29731  11.109   5.568   1.839  0.0617 -0.1890  0.2288
13258W        W29732  14.949  18.108  10.959 -0.1227  0.0855 -0.1098
13259W        W29733  17.582  14.457   0.493 -0.0500  0.1372 -0.0053
13260W        W29734   6.909   6.609   4.379 -0.0490  0.1280  0.2983
13261W        W29735  15.016   2.966   4.933 -0.1981  0.0897  0.0058
13262W        W29736   3.429  19.367  12.310 -0.2369  0.3727 -0.2362
13263W        W29737   1.455   3.283   0.650  0.2287  0.2895 -0.1472
13264W        W29738   6.856  13.561   9.397  0.0789 -0.3643 -0.1897
13265W        W29739  11.629   4.132  11.561  0.2690  0.0454  0.2243
13266W        W29740   4.568   2.128   0.794 -0.0047  0.0480  0.0567
13267W        W29741  15.491  14.772   1.384  0.1095  0.0776 -0.0170
13268W        W29742   3.068  14.990  10.653  0.1160  0.1032  0.0475
13269W        W29743  12.298  11.620   3.347 -0.2132  0.4460 -0.0152
13270W        W29744  13.070  17.058   1.044 -0.0158 -0.0791 -0.0300
13271W        W29745   0.074  19.374  11.057 -0.0326 -0.2086  0.1645
13272W        W29746   9.210   4.001   4.081 -0.0574  0.1670 -0.0297
13273W        W29747   9.887   0.687   1.559 -0.0427 -0.1291 -0.3549
13274W        W29748  15.563  13.441  13.164 -0.0738 -0.1166  0.2172
13275W        W29749  16.300   4.694   3.165  0.0279  0.0302 -0.1807
13276W        W29750  12.879   6.670  12.639 -0.0264 -0.0127 -0.2003
13277W        W29751  15.137  14.950   2.997  0.0865  0.1614 -0.1795
13278W        W29752   7.488   4.828   1.165  0.2744  0.1009 -0.1584
13279W        W29753   1.163  18.164  13.401 -0.3531  0.0148  0.0338
13280W        W29754  10.192  13.548   0.846 -0.3973 -0.0976 -0.1485
13281W        W29755  18.380   0.602  14.447  0.3313 -0.1804  0.1044
13282W        W29756  16.320   0.608  13.099  0.1195  0.2744  0.0435
13283W        W29757   9.969  18.172  14.160  0.1501  0.1276 -0.0280
13284W        W29758   9.746   6.327   1.209  0.1778  0.1388  0.1445
13285W        W29759  10.298   0.715  12.683 -0.2901  0.1084  0.0530
13286W        W29760  11.861   6.229  14.524 -0.1412 -0.1338  0.0657
13287W        W29761   7.417   7.079   3.837 -0.0235  0.2112  0.3622
13288W        W29762  17.962   9.830  14.632 -0.3617  0.3638  0.2003
13289W        W29763   9.314  13.436  11.329 -0.0527  0.0823 -0.0912
13290W        W29764   6.627  18.826   0.728  0.2820  0.2635  0.2936
13291W        W29765   6.684  11.517  12.015 -0.1323 -0.1382 -0.0819
13292W        W29766  10.782   5.978  13.179  0.1952  0.0317  0.0530
13293W        W29767  12.196   5.448  12.158  0.0862  0.1077  0.0287
13294W        W29768  16.324   9.278   4.278  0.1003 -0.2293  0.3453
13295W        W29769  18.109   5.276  11.333  0.2706  0.1098 -0.1028
13296W        W29770  17.839  11.451   3.161  0.0727 -0.0464  0.0383
13297W        W29771  13.112  10.343   2.999  0.0426 -0.1251 -0.0252
13298W        W29772  18.290  10.567   0.237  0.2548  0.1710  0.1098
13299W        W29773   7.016   4.967   0.327  0.1615  0.2435  0.2152
13300W        W29774  17.440   9.436   1.391 -0.0282  0.4761 -0.4654
13301W        W29775   2.458  12.495  13.116 -0.0700  0.1796 -0.1786
13302W        W29776  13.989   6.558  12.741  0.3352  0.0749 -0.2481
13303W        W29777   6.337   5.666  12.803 -0.0906  0.1782 -0.1481
13304W        W29778  18.418  16.500  13.704  0.0125  0.1803 -0.0881
13305W        W29779   4.721  12.266  12.464  0.0565  0.2662  0.1602
13306W        W29780   4.269   5.012   0.802  0.0317 -0.0984  0.0710
13307W        W29781  12.411   5.943   2.972  0.3009 -0.2055  0.2638
13308W        W29782   1.452   3.948   1.101  0.2436 -0.1918 -0.1027
13309W        W29783   6.565   9.098   4.417  0.2192  0.0135  0.0411
13310W        W29784   7.425   5.577  14.375 -0.1298 -0.0362  0.2003
13311W        W29785   0.309  12.401   4.059 -0.1129  0.0396  0.1819
13312W        W29786  10.831  18.918  12.353  0.1803 -0.4129 -0.5254
13313W        W29787   4.386  10.718  11.151 -0.1365 -0.0624 -0.3512
13314W        W29788  14.318   5.090  10.635 -0.4301  0.2036  0.2123
13315W        W29789  11.857  15.793  13.123  0.0750  0.0119 -0.1239
13316W        W29790   0.258  18.203  11.677 -0.2021  0.1523  0.2898
13317W        W29791   8.362   4.334   0.687  0.1342  0.0606 -0.0462
13318W        W29792  14.014  11.721   3.360  0.4397 -0.1421 -0.1278
13319W        W29793   8.303  14.921  11.317 -0.0882 -0.0141 -0.2010
13320W        W29794  19.190  14.905   1.874  0.2139  0.1652 -0.2640
13321W        W29795  12.020   6.605  14.197  0.0811 -0.3574  0.2029
13322W        W29796   3.362   1.160   3.959 -0.1678  0.3194 -0.2453
13323W        W29797  17.691   0.121  11.950  0.0774 -0.1817 -0.1612
13324W        W29798   6.315   9.256   3.993 -0.1322  0.1602 -0.0141
13325W        W29799  12.561   5.559   4.339  0.1800 -0.0221  0.0858
13326W        W29800   8.406   0.628   1.020  0.0189  0.1806  0.2042
13327W        W29801   3.039  14.169  10.104  0.0475 -0.0016 -0.1444
13328W        W29802   7.278   9.957  12.398  0.0639 -0.2549 -0.1528
13329W        W29803  16.574   4.435   0.319 -0.5502  0.1092  0.0570
13330W        W29804   8.023   4.658  12.078  0.1772  0.0381 -0.1348
13331W        W29805   3.492  11.032   1.166  0.2645  0.0236 -0.1261
13332W        W29806   5.083   2.997   4.841  0.1980  0.0444 -0.0172
13333W        W29807   2.863   4.853   0.336 -0.0677  0.0543  0.0438
13334W        W29808   5.888   7.161   0.153  0.0501  0.0482  0.0723
13335W        W29809  11.429  10.052  14.278  0.1771 -0.1194  0.1999
13336W        W29810   8.789  17.657  10.932  0.0861  0.1658  0.1099
13337W        W29811  11.901   9.104   0.878 -0.3531 -0.1505 -0.0333
13338W        W29812   4.154  13.045  11.452 -0.1234 -0.0714 -0.0389
13339W        W29813   3.270   6.812  12.503  0.0555 -0.0162  0.3285
13340W        W29814   1.230  11.551   0.949 -0.1435 -0.1387  0.1022
13341W        W29815  11.571  14.322   4.661  0.1445  0.1754 -0.0546
13342W        W29816  12.895   6.223   2.283 -0.2743  0.2429 -0.2270
13343W        W29817  13.530  15.069   2.409 -0.2354 -0.1357 -0.0486
13344W        W29818   7.269   8.942   0.553  0.0036 -0.0097  0.0999
13345W        W29819  18.029   8.678  14.635  0.1887  0.3776 -0.1459
13346W        W29820  18.873   1.086  11.676 -0.1147 -0.3076 -0.4446
13347W        W29821  16.445   5.619  14.145  0.4414  0.0993 -0.0788
13348W        W29822   7.537   2.568   2.296 -0.3889  0.3973  0.0050
13349W        W29823   8.104  14.427   1.221 -0.0017 -0.0505 -0.0445
13350W        W29824  12.969   9.525   4.962 -0.0619  0.1459 -0.0928
13351W        W29825   0.632   5.155   0.559 -0.1000 -0.0847 -0.1008
13352W        W29826   2.093   0.075  13.023  0.1172  0.0968 -0.3307
13353W        W29827   7.754   4.186  13.142 -0.4799 -0.3489 -0.0996
13354W        W29828  19.295  10.943   2.127  0.0465  0.2106  0.0551
13355W        W29829  13.081   7.269   3.243 -0.0924  0.0696 -0.2234
13356W        W29830   3.214  15.842   5.227  0.0109 -0.3217  0.0418
13357W        W29831  18.456   6.794  11.233  0.2716 -0.1386  0.0264
13358W        W29832   7.649   4.893   3.384  0.0979  0.0062  0.0961
13359W        W29833   4.235  12.512   3.087 -0.0688  0.0226  0.0476
13360W        W29834   7.713   4.732   9.923  0.1579 -0.0266  0.1924
13361W        W29835   9.629   6.493  14.742  0.1889 -0.1718  0.1296
13362W        W29836  11.938   3.090   1.375 -0.1429 -0.0485 -0.3173
13363W        W29837  11.620  19.027   0.651 -0.0719  0.0843  0.0713
13364W        W29838   3.496   8.553  12.955  0.0731 -0.0683 -0.1765
13365W        W29839  16.396   2.542   3.240 -0.2011 -0.0158  0.2470
13366W        W29840  11.707   6.761   5.237  0.1930  0.1639  0.0099
13367W        W29841   2.454   9.821   2.953 -0.0907 -0.0790  0.1626
13368W        W29842  14.636   1.392   1.445  0.2334 -0.1359 -0.5092
13369W        W29843   9.703   6.926  10.352  0.0080 -0.2432  0.0647
13370W        W29844  12.979  12.365  14.615 -0.2934 -0.0350  0.0696
13371W        W29845  18.999  12.879  12.729  0.0810  0.0019 -0.1922
13372W        W29846   0.903   4.751  13.433 -0.2157  0.3937 -0.0390
13373W        W29847   8.534  16.689  13.384  0.0929 -0.4200  0.0008
13374W        W29848   9.976   5.800  10.625 -0.0809 -0.2689 -0.3333
13375W        W29849  13.060   1.827   5.748 -0.0523 -0.2795 -0.0179
13376W        W29850   5.937  12.045   4.588 -0.1235  0.0797  0.0561
13377W        W29851  10.643   9.631   0.873  0.2836  0.1432 -0.1586
13378W        W29852   5.875  15.960  10.762  0.2375  0.1999 -0.1432
13379W        W29853   7.912   5.569   0.248  0.1055  0.0032  0.0009
13380W        W29854   7.302   0.923  12.883  0.2600  0.1474  0.2303
13381W        W29855   6.340  14.249   4.611  0.2395  0.1792  0.4415
13382W        W29856   5.462  18.590  12.135  0.0376  0.0695  0.0468
13383W        W29857   6.813   2.795  14.363  0.0582 -0.1476 -0.0464
13384W        W29858   9.193   5.300  13.149 -0.3854 -0.1794  0.3136
13385W        W29859   3.640  16.310   0.012 -0.0927  0.1306 -0.1435
13386W        W29860  19.141  17.988   4.357  0.0709  0.1806 -0.0965
13387W        W29861  11.461   3.220  13.768 -0.0845 -0.1994 -0.2901
13388W        W29862  12.330   2.722   0.652 -0.1374 -0.1747 -0.0677
13389W        W29863  15.881   2.699  14.497  0.1644  0.1977  0.0253
13390W        W29864  18.076  12.499   1.224  0.0320  0.1530  0.2815
13391W        W29865  11.572  18.727  12.334 -0.2415  0.1932  0.3428
13392W        W29866  12.333   3.533  13.323 -0.1826 -0.1851 -0.1644
13393W        W29867   4.165  10.390   4.875  0.1939  0.1238 -0.1700
13394W        W29868   4.099  15.077  10.975 -0.1839 -0.0897  0.2620
13395W        W29869  10.852  17.193  12.815 -0.1670  0.0820 -0.0236
13396W        W29870  12.828  16.982  12.309 -0.1220 -0.2219 -0.1504
13397W        W29871   6.701   6.387   3.341 -0.0969 -0.1599 -0.2951
13398W        W29872  18.354   3.883  11.562  0.0415  0.2060 -0.0278
13399W        W29873  17.341   0.620  13.044  0.0338 -0.0409 -0.0469
13400W        W29874  15.719   6.048  14.414 -0.1608 -0.1980 -0.0263
13401W        W29875   2.868   0.692   1.724 -0.3833 -0.1020  0.0260
13402W        W29876   4.641  15.790   1.942 -0.1447 -0.0971  0.1672
13403W        W29877  14.071  11.867   5.513 -0.1292  0.2583 -0.1086
13404W        W29878  10.690   2.820  13.382  0.1952 -0.2810  0.1532
13405W        W29879  12.684  16.289   0.699 -0.0968 -0.0166 -0.1595
13406W        W29880  12.964   7.319   3.691 -0.2521 -0.0998 -0.1934
13407W        W29881   8.538   2.585  11.948  0.2869 -0.1754  0.1193
13408W        W29882   7.561  17.003  13.986 -0.1921  0.1997  0.1933
13409W        W29883  14.644  11.021   2.397  0.2010  0.0368 -0.0401
13410W        W29884   3.466  10.409   2.110 -0.3052  0.1365 -0.1334
13411W        W29885  18.449   7.298  12.910  0.0209 -0.0661 -0.1486
13412W        W29886   1.954  13.224   0.640  0.0990  0.1171 -0.1394
13413W        W29887   7.189   6.170   2.195  0.2232  0.2166 -0.2316
13414W        W29888  12.666   4.762  12.744 -0.3831 -0.4454 -0.0469
13415W        W29889  10.549  18.541  12.068  0.0993 -0.1674 -0.1105
13416W        W29890  15.538  16.827  10.925 -0.1263 -0.1751 -0.1727
13417W        W29891   2.446   4.936  12.850  0.0830 -0.4822  0.2129
13418W        W29892  13.476   7.309   3.571 -0.0949  0.3793 -0.1792
13419W        W29893  19.319  17.726  10.794  0.1601 -0.1561  0.0872
13420W        W29894   1.670  17.014  10.741  0.0653  0.1874 -0.2676
13421W        W29895   4.497   8.381  11.640  0.0591 -0.2540 -0.1252
13422W        W29896  15.147  11.783   1.390 -0.0789  0.1760  0.1032
13423W        W29897   3.164   1.760  11.738 -0.1309  0.2858 -0.1236
13424W        W29898   0.241   0.166  13.720 -0.3046 -0.0717 -0.1803
13425W        W29899   3.377  16.332   2.873  0.0943  0.0936 -0.0800
13426W        W29900   7.916  10.546   1.529 -0.1663  0.1624  0.2334
13427W        W29901  11.875   7.899   9.086 -0.1760 -0.1395  0.1580
13428W        W29902   3.063   1.533   4.146  0.2574  0.2948 -0.0289
13429W        W29903  16.173  12.965   1.373 -0.0310  0.3047 -0.0687
13430W        W29904  11.887  14.258   0.289  0.1454 -0.1909 -0.2782
13431W        W29905   0.408   7.758   5.077  0.1354 -0.2286  0.0420
13432W        W29906  12.710   1.728   4.769 -0.2185  0.1005 -0.0907
13433W        W29907  11.272  11.009  10.682 -0.0934  0.2311  0.2336
13434W        W29908   2.640  13.903   0.765  0.0628  0.1904 -0.3817
13435W        W29909  13.640  16.344  11.941  0.2215 -0.2533  0.0794
13436W        W29910   8.824   7.023   2.507 -0.1780  0.1967 -0.0058
13437W        W29911   6.688  11.536   0.922 -0.1886  0.0152  0.1724
13438W        W29912   9.727  11.855   4.460 -0.3086 -0.3376 -0.3751
13439W        W29913   3.479   6.943   0.593  0.2922  0.4076  0.2292
13440W        W29914  16.201   4.445   1.390 -0.2592  0.2127 -0.1402
13441W        W29915  12.906  13.111   0.879 -0.0948 -0.0121  0.0291
13442W        W29916  14.923   1.226   0.459  0.0396  0.0645  0.0424
13443W        W29917  13.307  19.319  10.957  0.1442 -0.0564 -0.2775
13444W        W29918   9.053  16.997  13.161  0.0743 -0.1320  0.2275
13445W        W29919   4.427   0.663   1.608  0.2486  0.2439 -0.1325
13446W        W29920  16.256  14.263  12.711 -0.3360 -0.1073  0.2899
13447W        W29921   5.520  17.680   0.610 -0.0245  0.1178 -0.2369
13448W        W29922  11.600  18.136   4.465 -0.2306  0.1199  0.1021
13449W        W29923   2.012  14.132   2.245  0.2957 -0.0285  0.2020
13450W        W29924   1.785   1.508  11.278 -0.1904  0.1981 -0.3582
13451W        W29925  19.279  12.058   2.183 -0.0106  0.3334  0.0598
13452W        W29926   8.184  18.952   0.792  0.1791  0.2953  0.1098
13453W        W29927  18.004   3.640   3.489  0.0073  0.1043  0.0509
13454W        W29928   1.723   4.878   4.922  0.1078  0.1635  0.1078
13455W        W29929  11.786  18.423  11.093 -0.3506 -0.0318  0.0748
13456W        W29930   5.202   2.039  11.876  0.2454  0.1846 -0.3842
13457W        W29931  11.087   4.839   3.242  0.0239 -0.2390  0.0608
13458W        W29932  13.943  18.547  13.440 -0.0455  0.0558 -0.0986
13459W        W29933   7.568  14.138  13.351  0.0348  0.1263 -0.1829
13460W        W29934   2.878   6.319   4.221  0.1189  0.1545 -0.0514
13461W        W29935   7.887   4.593   3.685 -0.1868 -0.0099  0.3315
13462W        W29936   2.895  12.636   0.414  0.1366  0.4177  0.1655
13463W        W29937  17.162   7.068   0.142  0.0148  0.1546 -0.1890
13464W        W29938   2.475   3.045   3.976  0.2512  0.0847  0.0345
13465W        W29939  14.033   6.770   0.664 -0.1686 -0.0535  0.0814
13466W        W29940   3.802   8.165   1.686  0.1237  0.0322  0.0558
13467W        W29941  16.497  15.540  12.210  0.3118  0.1481  0.0958
13468W        W29942   4.796  14.788   3.767  0.0811 -0.2703 -0.2862
13469W        W29943   8.588  12.506  14.167  0.1429 -0.1289 -0.2746
13470W        W29944   7.031   5.189  10.487  0.1848 -0.0788 -0.1808
13471W        W29945  13.846  18.368  11.740  0.0108 -0.0152 -0.0811
13472W        W29946  10.250  17.028   1.754 -0.2898  0.3973 -0.2105
13473W        W29947   6.851   5.626  12.954  0.0151 -0.0035  0.2224
13474W        W29948   1.663   5.696  13.853 -0.0159  0.2455  0.3303
13475W        W29949   0.853   3.910   4.404  0.2409 -0.0214 -0.3989
13476W        W29950  12.733   1.354  12.702 -0.0110 -0.2174 -0.1569
13477W        W29951   9.138  18.453  11.086  0.1864 -0.0122  0.4749
13478W        W29952   5.128  13.496  13.265 -0.1359  0.0921 -0.1230
13479W        W29953  13.321  11.544  14.750  0.2365 -0.0623  0.1128
13480W        W29954   0.043  10.049   3.991 -0.0884  0.1138 -0.1120
13481W        W29955   6.011   3.844   3.601 -0.1247  0.0112  0.2387
13482W        W29956   9.006  11.921   1.437 -0.1976 -0.0776 -0.0162
13483W        W29957  15.465   1.258   4.634  0.1993 -0.2073 -0.4369
13484W        W29958  13.715  10.612   0.756 -0.0429  0.3154  0.1512
13485W        W29959   1.238  16.890   1.575 -0.3013  0.0179 -0.2433
13486W        W29960  10.515  17.505   2.742 -0.3859 -0.0719 -0.0773
13487W        W29961   2.957   7.723   0.539 -0.1810  0.1696  0.0716
13488W        W29962   1.068   7.124  13.242  0.0528 -0.2408 -0.2410
13489W        W29963   6.891   5.856  13.468  0.0669 -0.0849  0.3259
13490W        W29964  18.549  14.818   4.958 -0.0823  0.3326 -0.0253
13491W        W29965   4.751   1.135  14.877  0.0378  0.1607 -0.1274
13492W        W29966   6.603  17.037   1.165 -0.1102  0.2574  0.1924
13493W        W29967   5.859  10.773  13.280  0.1490  0.2314  0.2658
13494W        W29968   0.857   3.348   1.428  0.0218  0.2614  0.2187
13495W        W29969   5.461  17.838  12.498  0.1138 -0.0813 -0.5110
13496W        W29970   8.244  12.289  12.734 -0.2093 -0.1820  0.0701
13497W        W29971  17.361  12.101  10.993 -0.0133 -0.0695 -0.2195
13498W        W29972  11.338  16.514   4.752 -0.1148  0.1180  0.1542
13499W        W29973  16.371  12.031   2.022  0.0852 -0.1155  0.3813
13500W        W29974   5.739  11.895   2.300  0.2885  0.3709 -0.0464
13501W        W29975   9.444   7.057   4.362  0.2394  0.0814  0.1648
13502W        W29976  10.721  10.770   3.600  0.2188  0.1122  0.3382
13503W        W29977   3.756  14.686   3.959 -0.2146  0.1070 -0.0370
13504W        W29978   2.560   2.721  10.364 -0.1245 -0.3445 -0.4810
13505W        W29979  12.666  10.103  10.566 -0.1869  0.1786  0.1110
13506W        W29980   0.622  15.549   3.252  0.1408  0.2202 -0.0703
13507W        W29981  12.560  15.138   1.906  0.1546  0.0112 -0.0233
13508W        W29982  12.695   9.245  10.883  0.0369 -0.2160  0.0255
13509W        W29983  14.856  17.562   9.563 -0.0754 -0.2204 -0.2176
13510W        W29984  16.265   3.186  10.476  0.2599  0.1385  0.4181
13511W        W29985   6.913   3.097  13.961 -0.1103 -0.0561 -0.1841
13512W        W29986   2.040   2.917  11.279 -0.0990 -0.0099  0.1869
13513W        W29987  18.771   3.196   5.263  0.1592 -0.0068 -0.0854
13514W        W29988  13.346  11.549  12.353 -0.0931  0.2752 -0.2106
13515W        W29989  17.617   6.549  14.410 -0.1471 -0.2325  0.0036
13516W        W29990   8.683   6.827   5.023 -0.0003 -0.1671  0.4023
13517W        W29991   8.626   3.576  14.069 -0.2783 -0.4808  0.1295
13518W        W29992   1.884  19.245  10.168 -0.0082 -0.1352 -0.0458
13519W        W29993   5.486   0.707   3.570  0.2833  0.0851 -0.0303
13520W        W29994  16.813  15.994   0.868 -0.3141 -0.0809 -0.1970
13521W        W29995  12.015   2.879  12.835  0.0609 -0.0075 -0.0398
13522W        W29996  18.359   9.527  12.276  0.1862 -0.1240 -0.1240
13523W        W29997  15.892   8.734  11.884  0.0800 -0.0768 -0.1270
13524W        W29998  14.932   8.592   1.711  0.1587 -0.2448 -0.1719
13525W        W29999  14.412  16.180  13.432  0.0390  0.0493 -0.1820
13526W        W30000  15.147  15.876   2.073 -0.1526 -0.0184  0.0460
13527W        W30001   7.716   5.315  14.742  0.0704 -0.2944  0.0957
13528W        W30002  12.669  13.554  11.971  0.0181  0.0245  0.0676
13529W        W30003  15.267  11.532   4.335 -0.0598  0.0035 -0.0623
13530W        W30004  18.468   5.136  13.447  0.1099 -0.2404 -0.0697
13531W        W30005   6.624   3.898  13.594  0.1782 -0.2707 -0.3204
13532W        W30006  11.233   7.637   9.627  0.0068  0.0704 -0.0540
13533W        W30007   1.034  15.173   5.813 -0.2222  0.3782  0.0485
13534W        W30008  17.494  13.815   2.250 -0.0052  0.0784  0.0828
13535W        W30009   1.175   9.093  11.713 -0.2590  0.6142  0.0412
13536W        W30010   8.573  15.557  14.800  0.0169 -0.0144 -0.0870
13537W        W30011   9.315  16.892  11.474 -0.0099 -0.1724  0.0364
13538W        W30012  11.500   9.641  13.843  0.0420  0.0446 -0.0634
13539W        W30013   2.601   9.006  14.469 -0.1381 -0.0348 -0.3360
13540W        W30014   2.780  14.541   9.922 -0.2038  0.0524  0.0384
13541W        W30015   0.103   6.511  14.808 -0.4855  0.0029 -0.0970
13542W        W30016  17.578   5.351  11.376 -0.0264  0.1500 -0.0783
13543W        W30017  10.603  11.165  10.119  0.1974 -0.0318 -0.0221
13544W        W30018  11.808   7.019  14.207  0.1087  0.0982  0.3535
13545W        W30019  15.972  13.575   0.139  0.1441 -0.0122 -0.1116
13546W        W30020  17.352   3.469   3.978  0.1160  0.1407 -0.0787
13547W        W30021  12.057   1.933   0.337  0.1801  0.0506 -0.1031
13548W        W30022   1.684   1.932   2.219  0.0680  0.0374  0.1434
13549W        W30023   9.256   1.614   3.172 -0.0996  0.1108  0.3183
13550W        W30024   6.241  12.002   4.130  0.3732 -0.3250 -0.1679
13551W        W30025  16.195   8.784  10.609  0.0953  0.1101 -0.0308
13552W        W30026   7.518  15.033   4.818 -0.2635  0.2937 -0.1308
13553W        W30027   2.816   2.385  14.767 -0.0411  0.1492  0.0303
13554W        W30028  10.685   3.820   9.864 -0.1030 -0.0593  0.0543
13555W        W30029  18.639   9.692   5.364  0.1588  0.2179  0.2247
13556W        W30030  18.576  17.381  11.878  0.1453 -0.2837 -0.0248
13557W        W30031  15.146   1.466  11.505  0.0044 -0.2442  0.0930
13558W        W30032   8.007  12.678  12.938  0.1684  0.1688 -0.1427
13559W        W30033   1.547   3.097   2.707 -0.0096  0.1455  0.0750
13560W        W30034   5.753   8.172   2.029 -0.1819 -0.2320  0.2193
13561W        W30035   2.277   3.638  12.624  0.2052  0.2780  0.2291
13562W        W30036   7.714   6.830   1.709 -0.1516 -0.1015  0.0759
13563W        W30037  10.480  15.934  10.896  0.1178 -0.1707  0.3407
13564W        W30038  14.397  17.022   2.487 -0.2462 -0.0590 -0.3078
13565W        W30039  16.263  10.728  13.778  0.0932 -0.2005 -0.2516
13566W        W30040  14.282  18.923   2.530  0.2741  0.1429 -0.1308
13567W        W30041  12.660  17.167  13.544  0.1345  0.3606 -0.1646
13568W        W30042   5.630   8.505  13.106 -0.1161  0.2187 -0.1559
13569W        W30043  11.119   7.487  10.792 -0.0275 -0.2496  0.1126
13570W        W30044   2.663   5.929   3.638 -0.0524 -0.2687 -0.0327
13571W        W30045  16.521  10.822   2.614  0.0969  0.0220 -0.0790
13572W        W30046   1.132  14.682   4.793  0.2195 -0.1177  0.0255
13573W        W30047  15.575   3.997  14.310 -0.0439  0.0753 -0.0826
13574W        W30048  12.821   4.021   4.912  0.0037  0.1224 -0.1368
13575W        W30049  16.222  18.773  13.428  0.0331 -0.1640 -0.0121
13576W        W30050   4.284   5.166  14.127 -0.0344  0.2553  0.2181
13577W        W30051   7.765   8.054   9.670 -0.1288 -0.2831  0.1798
13578W        W30052  10.159  15.849  11.222 -0.3091  0.1042 -0.0042
13579W        W30053   8.126  15.874  11.888 -0.0823 -0.0839  0.1441
13580W        W30054   7.954  15.656   0.737  0.2628 -0.4773  0.0359
13581W        W30055  10.106   3.262   2.009  0.3393  0.4128  0.0294
13582W        W30056  13.834  11.880   3.794  0.1004 -0.0499 -0.1358
13583W        W30057   0.775  18.350   1.420  0.0617 -0.2545  0.1590
13584W        W30058  11.565  18.217  12.187  0.2627  0.1151 -0.1552
13585W        W30059   3.487  11.399   3.803 -0.2398  0.3943  0.1792
13586W        W30060  14.989   2.400   2.636 -0.0938  0.1957  0.0901
13587W        W30061   3.116  16.336  12.768  0.0175 -0.1620 -0.3980
13588W        W30062   3.114   1.089   1.532 -0.0048  0.0690 -0.1402
13589W        W30063   9.575   5.995   3.135 -0.1237 -0.0754  0.4686
13590W        W30064  14.697   1.975   1.837  0.0529 -0.3951  0.0223
13591W        W30065   1.390  11.659   1.415 -0.0395  0.0360 -0.1081
13592W        W30066   5.893  14.230  13.287 -0.0372 -0.4653 -0.0049
13593W        W30067   8.068  18.623   4.542 -0.0098  0.2286  0.3923
13594W        W30068  12.745  17.101   3.635 -0.0015 -0.1257  0.1478
13595W        W30069  12.025  14.753   1.137 -0.0427 -0.1279 -0.0738
13596W        W30070   1.732   2.994   2.253 -0.3050  0.0750  0.1326
13597W        W30071   4.132  11.553   1.963  0.0877  0.0296  0.2580
13598W        W30072   4.852  17.168  12.841 -0.1349  0.1495 -0.1729
13599W        W30073   9.381  11.279  14.878  0.3004  0.1012 -0.0155
13600W        W30074   8.530  12.230  11.338  0.3011  0.0738 -0.3337
13601W        W30075   7.142  11.476  14.518  0.0848 -0.1651 -0.0271
13602W        W30076   9.552  15.522  13.656 -0.0168  0.1818 -0.1430
13603W        W30077  15.665   6.952   4.737  0.2302 -0.1815  0.2163
13604W        W30078  13.372  14.291   3.327  0.1076  0.0277 -0.0730
13605W        W30079  17.872  18.487  13.920 -0.0902  0.1828 -0.2453
13606W        W30080  12.766  11.041  13.673 -0.0681 -0.2921  0.0222
13607W        W30081  13.051  12.126   4.609 -0.1798  0.0947 -0.0261
13608W        W30082  13.637   9.551   1.706  0.3459  0.0412  0.0525
13609W        W30083   8.161   5.113   1.822  0.0366 -0.2254 -0.3425
13610W        W30084   0.856   5.478   4.918  0.4711 -0.2657 -0.1167
13611W        W30085  13.776  10.145  11.046 -0.0467 -0.1610 -0.1342
13612W        W30086  17.754  11.185   3.587  0.1175 -0.0925 -0.2316
13613W        W30087   0.194   7.192  14.238  0.4347 -0.1849 -0.1668
13614W        W30088   7.076  13.533   4.270 -0.0103 -0.4116 -0.0958
13615W        W30089   8.846   9.086   4.213 -0.2648 -0.1499 -0.0108
13616W        W30090   2.277  14.752   0.701  0.1634  0.0542 -0.2902
13617W        W30091  17.183   8.663   1.137 -0.2263 -0.1040 -0.1656
13618W        W30092  10.497  16.968   0.032 -0.1727  0.2765 -0.2956
13619W        W30093   1.052   0.806   4.029  0.2103  0.1274  0.0852
13620W        W30094  10.547   8.236  13.578 -0.3228 -0.1043  0.0860
13621W        W30095   7.137  16.519   2.904  0.2213 -0.0677 -0.1838
13622W        W30096  19.345  10.134  11.988  0.1482  0.0284  0.2852
13623W        W30097  14.282  15.060   0.091 -0.2678 -0.4469 -0.0703
13624W        W30098   2.694  15.624  12.639 -0.0619  0.4220  0.1266
13625W        W30099  13.603   2.721  13.245 -0.0470  0.0113  0.1193
13626W        W30100   2.006   4.579  12.247 -0.0246 -0.3064  0.2275
13627W        W30101  16.156   5.863   2.405  0.1938 -0.1525 -0.0458
13628W        W30102  16.358  15.223  14.101  0.2060 -0.0584  0.0535
13629W        W30103  18.283  15.016  11.840  0.3060 -0.1995  0.0044
13630W        W30104  10.577  13.000  13.659 -0.3051  0.2688  0.2732
13631W        W30105  10.443  15.592   5.555  0.1355 -0.0187  0.0946
13632W        W30106   5.894  18.759  12.456 -0.4300  0.4793  0.3512
13633W        W30107  12.161  14.466  14.314 -0.1354 -0.2672 -0.1951
13634W        W30108   0.850   7.572   2.222 -0.0225  0.1123 -0.2169
13635W        W30109  10.655  17.774  12.658  0.0613 -0.1905 -0.0333
13636W        W30110   8.530  19.235  11.099 -0.0548 -0.0655  0.1290
13637W        W30111  18.771  18.650   0.612  0.2378 -0.3023 -0.4407
13638W        W30112  12.564  18.570  13.149  0.3847 -0.0788 -0.2653
13639W        W30113   3.047  13.064   0.625 -0.2008 -0.1619 -0.4930
13640W        W30114   3.289   9.982  12.772  0.0837 -0.2716  0.1808
13641W        W30115   7.958   3.703   4.193  0.1352 -0.0680  0.4152
13642W        W30116   6.101   3.801   2.713 -0.0428  0.2300  0.1845
13643W        W30117   6.204  13.078   2.763 -0.2658 -0.0442 -0.0902
13644W        W30118  17.352  19.056  14.180 -0.1361  0.0835  0.0056
13645W        W30119   9.350  14.637   0.536  0.0822 -0.0956 -0.0761
13646W        W30120   9.623  10.588   4.007  0.0002  0.0682 -0.0836
13647W        W30121  11.522   2.890  11.003 -0.1830 -0.2516  0.0016
13648W        W30122  18.667   0.542   1.057  0.1835  0.5531 -0.3028
13649W        W30123   0.232  17.388   4.692  0.1154 -0.0155  0.2999
13650W        W30124   5.496  12.935  13.913  0.2708  0.1123  0.1410
13651W        W30125   9.034  18.004  11.244  0.3489 -0.1845 -0.0259
13652W        W30126  17.315   9.465  13.012 -0.4583  0.0491  0.0015
13653W        W30127  12.112   8.363   0.379 -0.1473 -0.5099 -0.0878
13654W        W30128   9.342  13.174   2.999 -0.2189  0.3749 -0.1408
13655W        W30129  13.916   6.648   0.222 -0.1279 -0.1049 -0.0979
13656W        W30130   4.933   9.633  11.990  0.0884  0.0863  0.0359
13657W        W30131  12.566   7.671   2.056  0.2615  0.1902  0.1255
13658W        W30132   7.134  16.033   3.644 -0.3471 -0.2024  0.0471
13659W        W30133  14.534   5.385  11.051  0.3138 -0.0787 -0.2165
13660W        W30134   3.809  16.670   1.716  0.2527  0.2722  0.1971
13661W        W30135  12.881   3.089  12.721 -0.2447 -0.0590 -0.0827
13662W        W30136   1.553  11.389   2.641 -0.5520 -0.2320 -0.1467
13663W        W30137   4.821   7.908  12.569 -0.0485  0.1912  0.0938
13664W        W30138   7.994  17.789  12.659  0.0783 -0.2919 -0.0966
13665W        W30139   7.510  18.522   1.122  0.1502 -0.0225 -0.0112
13666W        W30140  18.459  11.184  13.966 -0.0077 -0.1545  0.3505
13667W        W30141  12.869   4.424   3.718  0.0917  0.0986 -0.1758
13668W        W30142   3.897  18.408  12.274 -0.0184 -0.1586  0.3006
13669W        W30143  11.317  13.380   5.156  0.1030  0.0078 -0.1404
13670W        W30144   0.800   2.072   4.513 -0.1413  0.2612  0.1414
13671W        W30145  17.685  16.541   4.169  0.4626  0.1588 -0.0135
13672W        W30146   9.304   0.459   0.065  0.0993 -0.2262 -0.2537
13673W        W30147  10.093   0.973  11.266 -0.2505  0.3357 -0.2563
13674W        W30148   3.590   2.722  12.600  0.0259  0.0891 -0.1100
13675W        W30149  14.394  12.006   9.908  0.0569 -0.2488 -0.1010
13676W        W30150   5.110   5.992   1.922  0.0964  0.3189  0.4187
13677W        W30151  12.542  16.641   1.807  0.1660 -0.2405 -0.1594
13678W        W30152   9.425   0.923   2.365  0.2815 -0.1889  0.0724
13679W        W30153   0.333   8.094  14.577  0.1356  0.0098  0.2252
13680W        W30154  10.446  12.544  11.839  0.0230 -0.2172  0.0541
13681W        W30155  16.576   1.997  12.028 -0.1948  0.2922  0.2576
13682W        W30156   3.614   7.194  12.281 -0.4276 -0.2441 -0.2867
13683W        W30157   8.047  14.581   1.751  0.1782 -0.0091  0.1826
13684W        W30158  11.726  11.830   4.455 -0.1366 -0.0344  0.1131
13685W        W30159  16.809   9.928  12.375  0.2339  0.1066  0.1744
13686W        W30160  14.550   6.200  11.562  0.1105 -0.1747 -0.2405
13687W        W30161   9.678   2.228   0.385 -0.1748  0.2610  0.2506
13688W        W30162  17.914   5.521  12.447  0.1256 -0.1124 -0.0327
13689W        W30163   3.878   5.910   4.319  0.0307 -0.0269  0.3595
13690W        W30164   0.080   5.518   1.386 -0.0073 -0.2092 -0.0380
13691W        W30165   4.692   1.851  13.414  0.0613  0.3740 -0.0197
13692W        W30166   1.209  17.590   4.324  0.1144  0.0494 -0.4375
13693W        W30167  13.787   4.761  13.600  0.0405 -0.2439 -0.0520
13694W        W30168   1.887  10.563   9.707  0.3461  0.0702  0.4106
13695W        W30169  14.672   1.867   2.858 -0.0399 -0.1745 -0.1260
13696W        W30170   4.123  17.615   1.894 -0.2440  0.2417  0.2294
13697W        W30171   8.647  11.186   2.516  0.2145  0.0386 -0.0181
13698W        W30172  18.966  16.807   0.796  0.2111 -0.1072  0.0159
13699W        W30173   0.254  15.153  13.466  0.1231 -0.1399 -0.0398
13700W        W30174  18.548  19.342  11.426 -0.2252 -0.1103  0.2174
13701W        W30175   4.889  13.118   1.042  0.4606  0.2187  0.0686
13702W        W30176   3.329  16.478  12.339  0.0143  0.3901 -0.2195
13703W        W30177  17.780   5.586   0.570  0.3541  0.2163 -0.2095
13704W        W30178   4.182  14.552   1.796 -0.0109 -0.1856  0.0566
13705W        W30179  15.658  13.553  14.566 -0.0657 -0.1304 -0.1433
13706W        W30180  12.351   3.831  13.696 -0.0499 -0.3530  0.1054
13707W        W30181  12.480  13.060   0.117 -0.2384 -0.3410 -0.0711
13708W        W30182   4.258   4.433  12.750 -0.1012 -0.1624 -0.1500
13709W        W30183  10.960  14.359  14.148 -0.3657  0.1301  0.0215
13710W        W30184  19.139  11.689  13.185 -0.0248 -0.3704 -0.2483
13711W        W30185  11.600  18.672  11.814  0.2212  0.1009 -0.3203
13712W        W30186  13.622   7.956  11.856 -0.1726 -0.0567  0.3394
13713W        W30187  10.961   0.990   2.014 -0.0369 -0.2931 -0.2699
13714W        W30188  16.660   6.426   2.717  0.1698  0.0134  0.1003
13715W        W30189  13.400  17.780   4.385  0.3868  0.1815  0.0635
13716W        W30190  15.114  18.540  10.812 -0.2104  0.3530  0.1542
13717W        W30191  14.707  17.755   3.161  0.1516  0.0494  0.0277
13718W        W30192   3.505  12.671  12.835 -0.3535  0.1200 -0.0578
13719W        W30193  10.426   7.546  14.789 -0.4373 -0.0935 -0.0099
13720W        W30194  18.748  12.960  14.687 -0.0521 -0.4113 -0.1928
13721W        W30195   6.814   3.895  11.348 -0.3908  0.0530 -0.1242
13722W        W30196  17.082  16.086   2.194  0.1925 -0.0916  0.3182
13723W        W30197  11.682  16.523   2.333  0.1298  0.2424 -0.1806
13724W        W30198   1.282   5.595   2.393  0.0427  0.2450  0.0446
13725W        W30199  10.505  10.785  12.184 -0.3728 -0.1850 -0.1038
13726W        W30200   0.432   5.840   1.184  0.0108 -0.0420 -0.0617
13727W        W30201  14.851   5.970   4.355 -0.3347 -0.0689  0.0398
13728W        W30202   2.065  10.654  12.825 -0.0244 -0.4417 -0.5082
13729W        W30203   4.949   1.186  10.431  0.1334 -0.2469  0.0768
13730W        W30204   8.398  10.057  10.648  0.1908  0.0192  0.0439
13731W        W30205   1.941  19.176   1.187  0.0185  0.0923 -0.1727
13732W        W30206  13.077  10.242  12.368  0.2518  0.0140 -0.1673
13733W        W30207   4.148   9.953   0.012 -0.1688  0.0927 -0.0479
13734W        W30208  14.829  16.181  12.327 -0.4581  0.1934 -0.1882
13735W        W30209  16.553  10.833  12.824 -0.0894 -0.2300 -0.0406
13736W        W30210   4.192  15.841  13.297  0.3748 -0.1082  0.0048
13737W        W30211  13.036  12.768  14.344 -0.1141  0.0062  0.1866
13738W        W30212  17.202  16.857  10.872  0.1789 -0.1243 -0.0405
13739W        W30213  14.001  11.313   0.878 -0.0326 -0.1233 -0.0434
13740W        W30214   7.130  18.879  14.332 -0.0107 -0.0262 -0.0474
13741W        W30215   2.028  12.386  13.868 -0.4394  0.2623 -0.2100
13742W        W30216  13.423   4.656  12.332 -0.1656 -0.0294 -0.2416
13743W        W30217   6.599  15.712   9.992 -0.2369  0.2269 -0.2548
13744W        W30218   6.515  17.385   4.711 -0.0231  0.0548 -0.1527
13745W        W30219  18.258   4.064   2.720  0.3358  0.0541  0.2371
13746W        W30220   9.121   7.947  12.022  0.1352 -0.3462  0.0518
13747W        W30221   9.391   0.375  11.113 -0.0212 -0.1133 -0.1631
13748W        W30222   9.406  11.384   3.151  0.1399  0.1663  0.0231
13749W        W30223  14.495   0.957   4.363  0.2020  0.0915  0.0414
13750W        W30224   9.779   6.241   0.270 -0.2016  0.0708  0.2062
13751W        W30225  11.011   2.370  10.260 -0.0150 -0.0313 -0.0991
13752W        W30226   3.097  17.305   0.381 -0.0059 -0.0498  0.2386
13753W        W30227   5.239  16.315   2.772  0.2260 -0.0554  0.0081
13754W        W30228  17.991   9.287   2.979 -0.0253  0.2339 -0.1496
13755W        W30229   6.059  12.801  14.589 -0.0588 -0.0552  0.0164
13756W        W30230   2.952   4.619  12.037  0.2007 -0.1791 -0.0814
13757W        W30231  12.643   2.429   2.928 -0.0060  0.1424  0.0949
13758W        W30232  10.189   6.226   3.640 -0.2481 -0.0608 -0.2103
13759W        W30233  16.374  18.368   3.948  0.1028  0.1025 -0.1358
13760W        W30234  12.243   1.447   5.249 -0.1356 -0.1177 -0.3364
13761W        W30235  18.131   6.979  11.995  0.1667 -0.0238 -0.3188
13762W        W30236  12.500  11.673  12.610  0.3875 -0.1141 -0.1364
13763W        W30237   4.986  18.906  13.502  0.1554  0.0076 -0.1454
13764W        W30238   2.154  14.961  14.429 -0.1281  0.0567  0.1299
13765W        W30239   6.687   4.200   3.593 -0.2143  0.2216 -0.1434
13766W        W30240   7.764  10.170   4.196  0.1112  0.0194 -0.1162
13767W        W30241  12.829   7.084  14.651 -0.1870  0.3500 -0.0562
13768W        W30242   8.561  11.027   0.645  0.1689 -0.2431  0.2709
13769W        W30243   2.032   0.779   2.691 -0.2979  0.0400  0.1537
13770W        W30244  16.544   1.010   0.929 -0.0327  0.0900  0.2093
13771W        W30245  12.741  13.075  11.883  0.0275  0.2344  0.0970
13772W        W30246   0.037   2.866   3.472 -0.1075  0.0838  0.3173
13773W        W30247   0.343  10.980  11.544  0.0811  0.1162  0.0791
13774W        W30248  13.833   2.924   4.006  0.1329  0.0258  0.3853
13775W        W30249  11.298  12.379   0.016  0.0120  0.2325  0.0432
13776W        W30250   4.680   1.700  14.206 -0.2305 -0.1519  0.0787
13777W        W30251   9.670  13.903  12.489 -0.1550 -0.0162 -0.1166
13778W        W30252  11.292   7.039   4.197 -0.0327 -0.1251  0.1023
13779W        W30253  11.338   5.842  11.238  0.0033  0.1208 -0.4045
13780W        W30254   8.600  19.302  14.701 -0.4164  0.0874  0.0419
13781W        W30255  16.248  14.066  11.235  0.0838  0.2279 -0.3055
13782W        W30256   3.567  12.111   0.375  0.0075  0.0020 -0.2232
13783W        W30257  10.135  14.637   4.955 -0.0499  0.0596  0.0656
13784W        W30258   0.447   5.619   3.752 -0.3378 -0.0178 -0.0157
13785W        W30259   9.019  11.339   5.132  0.2405  0.2710 -0.3261
13786W        W30260  14.129  10.301   3.094 -0.2140  0.3510  0.1408
13787W        W30261  15.139  14.169  10.385  0.4060  0.1237  0.0363
13788W        W30262  17.209  11.017   0.135 -0.0941 -0.2386  0.0214
13789W        W30263   5.578   1.327   2.799  0.1535 -0.1944 -0.0925
13790W        W30264   5.715  11.725   2.766 -0.0164 -0.0020 -0.1365
13791W        W30265  12.644  12.692   2.050  0.0374 -0.1050  0.0726
13792W        W30266   0.309  12.928  13.368  0.1183 -0.1983  0.3442
13793W        W30267  13.442  12.623  11.601  0.1044 -0.2883  0.1423
13794W        W30268   6.967  16.047   2.383 -0.1431 -0.1385  0.0204
13795W        W30269  16.943  13.881  11.666  0.2340 -0.0707 -0.2802
13796W        W30270   4.337   1.529   1.716 -0.3114  0.0292 -0.2522
13797W        W30271   4.796   3.335   0.401  0.0869  0.0070 -0.2162
13798W        W30272  16.279   0.477   2.716  0.1197 -0.2571  0.2329
13799W        W30273   5.732  17.179   0.514  0.2108  0.1643 -0.1993
13800W        W30274   2.927  17.719   1.220 -0.4443 -0.2441  0.1524
13801W        W30275   1.183   3.308  13.279 -0.2113  0.1497 -0.1194
13802W        W30276  15.877  12.448  11.792 -0.3270 -0.2373  0.1199
13803W        W30277  12.519   4.265   0.760 -0.3162 -0.0803  0.0429
13804W        W30278   8.412   9.159  10.583 -0.2681  0.3155 -0.2635
13805W        W30279  15.212  15.786  13.580 -0.1306 -0.0272 -0.2901
13806W        W30280  19.050  11.126  12.086  0.0322 -0.0022  0.1182
13807W        W30281   9.139   6.063  14.395 -0.1061  0.4523  0.0404
13808W        W30282  15.441  19.230   4.196 -0.2839 -0.1368 -0.1369
13809W        W30283   8.223  12.590  11.115  0.0894  0.1854  0.0534
13810W        W30284  14.190  18.576   1.738  0.2207  0.2729  0.1227
13811W        W30285   5.214   9.908  10.198  0.0232 -0.2695 -0.2156
13812W        W30286   7.037   7.407   4.825 -0.0992  0.1402 -0.0797
13813W        W30287   9.197   3.349   3.109  0.1600 -0.1697 -0.0345
13814W        W30288  13.890   3.392   2.656 -0.0474 -0.1397 -0.5279
13815W        W30289  16.683  15.418   1.944  0.1897 -0.3058 -0.0206
13816W        W30290  13.910  14.781  13.779  0.1174 -0.0105 -0.3379
13817W        W30291   8.405   8.119   2.968 -0.0246 -0.0198  0.0360
13818W        W30292   8.844   7.287   5.013 -0.0573 -0.1076  0.2773
13819W        W30293   4.898  17.115   4.417 -0.1311 -0.2585 -0.3320
13820W        W30294   1.885   8.356  11.840  0.0214 -0.1494  0.0537
13821W        W30295   8.643   6.767  13.934  0.3384 -0.0490 -0.1396
13822W        W30296   7.230   3.991  14.840  0.4483  0.1562  0.0024
13823W        W30297   0.143  12.493   0.297 -0.1611 -0.0264 -0.1540
13824W        W30298  12.932   3.264  14.185  0.1212 -0.2583 -0.0187
13825W        W30299  15.330  14.899   0.931  0.1251 -0.1027  0.2116
13826W        W30300  18.438  15.909  11.242  0.2040 -0.3614 -0.1452
13827W        W30301   2.827  12.676   1.979 -0.3594 -0.1889 -0.1555
13828W        W30302   6.246  13.727   1.301  0.3185  0.1228  0.0391
13829W        W30303   3.354   9.059  13.855 -0.3935  0.3158  0.1748
13830W        W30304   5.486   9.745  13.473  0.4308 -0.0466  0.2037
13831W        W30305   6.746  16.626  14.888  0.0577  0.1043  0.1674
13832W        W30306  17.337   5.794  11.009  0.1683 -0.2579  0.2658
13833W        W30307   4.111  13.267  14.189  0.3626  0.0926 -0.0121
13834W        W30308   0.404   3.307  12.371 -0.1720 -0.1021  0.0708
13835W        W30309  14.824   8.797  12.642  0.0701 -0.1182 -0.0861
13836W        W30310  10.597  10.960   1.350 -0.2247  0.0456  0.0883
13837W        W30311  11.210  12.063   4.773  0.1376  0.0879 -0.0275
13838W        W30312  16.740   9.436   2.049  0.1272  0.2372  0.2504
13839W        W30313   5.933   4.821   1.876 -0.0814  0.0629  0.0091
13840W        W30314   9.853  19.267  10.556 -0.0224 -0.0142 -0.2865
13841W        W30315   4.169   3.399  11.127  0.1364  0.0042 -0.0533
13842W        W30316   3.904  12.653   1.795  0.2319 -0.1942 -0.0112
13843W        W30317   6.471   9.653  10.812  0.1857  0.3973 -0.0381
13844W        W30318   4.610   3.267  13.966  0.2234 -0.0312 -0.3140
13845W        W30319  14.153  11.737   0.592 -0.0924  0.3023 -0.2787
13846W        W30320  11.270   1.721  10.808  0.1611  0.2855 -0.0975
13847W        W30321   0.120  10.115   2.395 -0.1195  0.0168 -0.0757
13848W        W30322  11.801   4.006   2.057 -0.0193 -0.0826  0.0827
13849W        W30323  16.542  13.787   4.176 -0.2237  0.2175  0.0148
13850W        W30324   4.000  18.780  14.819 -0.2208  0.0130  0.0842
13851W        W30325  17.489   4.300   3.806 -0.1807  0.0997  0.4199
13852W        W30326  16.307   0.389   1.693  0.3304  0.1966 -0.2096
13853W        W30327   0.054   4.475   0.973  0.3404  0.0077  0.2315
13854W        W30328  14.333   1.428  12.292 -0.2510 -0.0830 -0.0653
13855W        W30329  11.869   8.218  13.091 -0.3290  0.1037  0.2892
13856W        W30330  17.021   0.999   5.427  0.0648 -0.0734 -0.0681
13857W        W30331  12.170   6.263   3.962  0.0361 -0.0236  0.2302
13858W        W30332   9.375  19.316  11.410 -0.0020 -0.2741 -0.1051
13859W        W30333   8.399  11.521  13.398  0.3455 -0.0377 -0.2844
13860W        W30334  15.281   2.688   0.977  0.2834 -0.0539 -0.0777
13861W        W30335   5.584   0.502  12.212  0.0284  0.0178 -0.3109
13862W        W30336  12.011   5.905  11.981  0.3367 -0.0594 -0.0470
13863W        W30337  11.405  15.982   4.769 -0.1700  0.1837  0.0568
13864W        W30338   9.029   4.166   2.935  0.1005  0.4462  0.3585
13865W        W30339  13.402   6.259   4.691 -0.2943 -0.4929 -0.3508
13866W        W30340   7.416  13.455  14.231  0.0072 -0.0452  0.0181
13867W        W30341  16.509  18.205   2.862  0.1624 -0.0353  0.0283
13868W        W30342   4.623   1.944   1.318 -0.1647 -0.4221 -0.0867
13869W        W30343   3.557   2.017   1.881  0.0491  0.0402  0.1908
13870W        W30344   3.326  16.499   1.904 -0.0310 -0.2329 -0.0967
13871W        W30345  17.020  18.735   2.572  0.4003  0.0694  0.1589
13872W        W30346  12.161  15.338   3.371 -0.1827 -0.2562 -0.0479
13873W        W30347  14.307   3.870  12.694 -0.2782 -0.1737 -0.1419
13874W        W30348  13.084  11.704   2.925  0.2362  0.2523 -0.0012
13875W        W30349  18.716  13.647   1.617  0.3243 -0.1556  0.2770
13876W        W30350  12.759   3.424  11.750  0.0397  0.0485 -0.0173
13877W        W30351  16.612  15.098   2.563 -0.1287 -0.0649 -0.0033
13878W        W30352  11.817   2.754   3.891  0.1975 -0.2344 -0.1827
13879W        W30353   9.161  13.342   5.256  0.1438  0.0662  0.1023
13880W        W30354  13.883  12.843  11.466 -0.0836  0.1175  0.2933
13881W        W30355   3.218   3.640   1.226 -0.1628  0.0311  0.2808
13882W        W30356  12.040   2.995  13.340  0.0578  0.4826  0.2066
13883W        W30357  19.305   8.162   3.670  0.1323  0.0963  0.1414
13884W        W30358   4.188  10.551  12.629 -0.2199  0.2636 -0.3005
13885W        W30359  18.065   9.997   0.223 -0.0708 -0.0512 -0.1748
13886W        W30360  10.437   8.396   2.825 -0.1148  0.2307 -0.1372
13887W        W30361  12.085   0.984   4.397  0.2662  0.2090 -0.0580
13888W        W30362  18.685   6.517   1.679 -0.5161 -0.1852 -0.0697
13889W        W30363   2.320   2.470   3.778  0.0014  0.0808  0.4172
13890W        W30364  14.754  16.429   5.324 -0.1354  0.0637 -0.1159
13891W        W30365   7.138  10.582  13.546 -0.0719  0.1410  0.0420
13892W        W30366   8.524  14.244  14.348  0.0261 -0.0452 -0.0430
13893W        W30367   9.816  11.847   0.634  0.0783 -0.1791 -0.2118
13894W        W30368   6.633  19.291   1.662 -0.0707 -0.0854  0.1329
13895W        W30369   7.704   7.012   9.658  0.3243 -0.0864  0.2139
13896W        W30370  15.197  15.517   4.280 -0.0014  0.1071 -0.2797
13897W        W30371   0.801  11.395   3.449  0.3509  0.0245 -0.0723
13898W        W30372  11.179  17.968   1.023  0.0223 -0.0012  0.0984
13899W        W30373  14.925  18.371   2.344  0.2990 -0.1936  0.2442
13900W        W30374  19.015   5.414   3.715  0.1037  0.0532 -0.4824
13901W        W30375  13.281  10.770   3.014  0.1246  0.0754  0.1840
13902W        W30376   2.444  11.824   4.594  0.1312 -0.3478  0.1035
13903W        W30377   7.014   0.710   1.520  0.1702 -0.1604 -0.5047
13904W        W30378  11.799  11.260   4.525 -0.3412 -0.1643  0.1985
13905W        W30379  17.648   4.807   4.456  0.2583 -0.0205  0.0435
13906W        W30380  18.435  11.755  13.855  0.0405  0.0091  0.1607
13907W        W30381  18.114  10.928  14.614  0.1187  0.2956  0.1962
13908W        W30382  10.431   6.074   4.144  0.0781  0.2578  0.3228
13909W        W30383   2.857  11.301  12.521 -0.2063  0.3348  0.1637
13910W        W30384  15.800   1.306   2.965  0.1166  0.2202 -0.0317
13911W        W30385   8.217  12.737   1.260  0.4144 -0.0081 -0.0317
13912W        W30386   8.136   3.562  14.301  0.0774  0.0272 -0.3058
13913W        W30387  18.994  13.334  13.021 -0.0083  0.1705 -0.0010
13914W        W30388   6.034  18.762  11.106 -0.0221 -0.2115 -0.1824
13915W        W30389  13.857  11.278  14.252 -0.0922  0.1416 -0.0637
13916W        W30390   9.339   1.660   0.818 -0.3013  0.1643 -0.0564
13917W        W30391   6.393  18.329   3.989 -0.2974 -0.3968 -0.1505
13918W        W30392   6.956   7.881   3.622  0.3253  0.1892 -0.0918
13919W        W30393   6.011   4.151  13.084  0.0562 -0.1639 -0.0546
13920W        W30394   8.654  14.005   0.821  0.1043  0.3227 -0.0256
13921W        W30395  14.273   1.598  11.803 -0.0368  0.1559 -0.1601
13922W        W30396   4.229  11.133  14.280  0.1665 -0.1531 -0.2992
13923W        W30397   5.984  12.275   0.665 -0.1056 -0.0435 -0.1577
13924W        W30398   2.232  15.800   2.062 -0.2296  0.1458 -0.1003
13925W        W30399   5.905  15.715  13.160  0.0047 -0.1906  0.0740
13926W        W30400   6.656   6.657  14.183 -0.0906  0.0703  0.0850
13927W        W30401   7.140   4.916  13.067  0.0657 -0.0439  0.3151
13928W        W30402  16.012  18.085   3.653 -0.0806  0.1204 -0.0883
13929W        W30403  12.047  12.138   1.458 -0.2339  0.1480  0.0940
13930W        W30404  19.178   4.172   2.267 -0.1815 -0.1537  0.3244
13931W        W30405   7.220   5.109  13.906 -0.1827 -0.3858  0.2465
13932W        W30406   9.705  11.447   3.775  0.0638  0.1265 -0.2039
13933W        W30407  17.335   8.642   4.393 -0.0570 -0.0060  0.0994
13934W        W30408  16.798  15.254  11.937  0.0729 -0.4154  0.0094
13935W        W30409  19.113   0.895   0.648  0.0757 -0.1053 -0.2270
13936W        W30410   9.299   8.684   4.785 -0.1834  0.3030  0.0928
13937W        W30411  18.586   0.392   3.401  0.0720 -0.0781  0.0815
13938W        W30412   0.924   5.180  13.727 -0.1099 -0.0547  0.1847
13939W        W30413   0.570  19.351   1.787  0.1457 -0.0350 -0.1304
13940W        W30414   0.435   8.647   2.239 -0.1285  0.1480 -0.0469
13941W        W30415  16.391   7.706   1.887 -0.1360  0.0360 -0.2734
13942W        W30416  10.006  16.966  11.542  0.1346  0.0537 -0.0755
13943W        W30417  12.132  12.269  12.410  0.1056 -0.1357 -0.0753
13944W        W30418   5.061  17.782   0.853 -0.1133 -0.0505 -0.2199
13945W        W30419   5.842   3.954  14.374  0.2078  0.2298 -0.0931
13946W        W30420   0.234  17.353  12.541 -0.4423  0.1877  0.0642
13947W        W30421   1.550  11.743   9.419  0.2004  0.1434 -0.2947
13948W        W30422  17.454   4.056   2.982  0.2769  0.0205 -0.1065
13949W        W30423   7.425   3.514   9.186 -0.1978  0.0179  0.0659
13950W        W30424   9.734   1.789   2.434 -0.0286 -0.2829  0.0650
13951W        W30425  16.035  14.641   2.831  0.1833 -0.0303 -0.0592
13952W        W30426   3.116   3.557   1.701  0.0841 -0.1383 -0.1323
13953W        W30427  11.739  10.192   2.906  0.0487  0.0146 -0.0923
13954W        W30428  15.583   3.222   0.899  0.1904  0.3467 -0.0911
13955W        W30429  17.458   1.786  12.462 -0.3009 -0.0312  0.1318
13956W        W30430   4.596   1.056   1.844  0.2348 -0.0788 -0.0888
13957W        W30431   0.351  12.465   4.580  0.0157 -0.0395  0.2203
13958W        W30432  13.518   9.202  13.890  0.0899  0.1509 -0.3016
13959W        W30433   0.560   3.971  11.218  0.1457  0.1785  0.3824
13960W        W30434   4.773   6.262  13.814  0.0499 -0.0321  0.0731
13961W        W30435   1.941  18.030  12.245  0.0708  0.0493  0.0975
13962W        W30436   0.019  13.414  14.063  0.1471 -0.0811  0.0209
13963W        W30437   4.339   4.645  10.809  0.1770  0.0457  0.0164
13964W        W30438  19.262   4.866   5.382  0.4887 -0.0795  0.0451
13965W        W30439  16.435  14.270   4.751  0.4556  0.0345  0.0481
13966W        W30440  17.047   6.875  10.877 -0.2098 -0.0403 -0.0822
13967W        W30441  15.591  10.600  14.534 -0.0894 -0.1291  0.1641
13968W        W30442   2.908   7.527   1.601  0.0058 -0.1988 -0.1380
13969W        W30443   0.909   6.363  12.126  0.0725  0.1856  0.0313
13970W        W30444  17.609   5.972  12.728  0.4147 -0.1775 -0.2840
13971W        W30445   8.200  13.116  11.251  0.0378  0.0093  0.1710
13972W        W30446  16.645   6.898  11.280  0.3309  0.3356  0.2035
13973W        W30447   2.641  18.218  12.913 -0.1323 -0.0262  0.1671
13974W        W30448   5.617   8.446  11.624  0.3987 -0.0295  0.1147
13975W        W30449  14.970   3.687   1.105 -0.1454  0.1465 -0.1193
13976W        W30450   3.910   6.734   2.097  0.3431  0.1029 -0.2027
13977W        W30451  13.409  13.822   3.145  0.1211  0.0169 -0.0371
13978W        W30452   0.393  16.370  12.546 -0.0926  0.2122 -0.0855
13979W        W30453   6.809  17.592  11.545 -0.5049  0.0242 -0.2188
13980W        W30454   0.147   6.899  12.517  0.2714 -0.0843  0.3009
13981W        W30455   2.469   5.501   1.544  0.0771  0.0342  0.0563
13982W        W30456   6.190  17.127  13.163  0.0518  0.1190 -0.2336
13983W        W30457  13.368   5.079  10.700  0.1649 -0.1668 -0.0599
13984W        W30458  12.128  11.814   0.578 -0.0240 -0.1887  0.1068
13985W        W30459  13.640   6.548   1.186 -0.3097 -0.2358  0.1466
13986W        W30460  19.239  17.854   0.874 -0.1304  0.1510 -0.0587
13987W        W30461   8.859   5.376  13.989 -0.2423  0.1152 -0.0095
13988W        W30462   3.930   4.073   1.062 -0.0485  0.3493 -0.4397
13989W        W30463   9.327   2.712  14.332 -0.0272  0.0069 -0.1299
13990W        W30464  15.679  17.172  10.444  0.0872  0.0597  0.2800
13991W        W30465   2.622  12.320   4.729  0.4124 -0.0336 -0.3364
13992W        W30466   7.602  12.637   4.200  0.0380 -0.2722 -0.0967
13993W        W30467   4.422   1.933   0.327 -0.1026 -0.2183  0.2553
13994W        W30468  15.252  17.748  12.218  0.1876  0.1058 -0.0870
13995W        W30469  11.764  16.341  11.358 -0.2235 -0.0400 -0.0755
13996W        W30470   4.491  10.955  12.408 -0.3791  0.1806  0.2877
13997W        W30471   8.805   4.758  14.304  0.3351 -0.0921  0.1929
13998W        W30472   2.092   2.732   2.427  0.0298 -0.0257  0.1603
13999W        W30473   4.502  14.093   0.952 -0.1167 -0.1484  0.1726
14000W        W30474   7.144   2.168  14.670  0.1508  0.1332 -0.1572
14001W        W30475   4.602   8.079  13.474  0.1268  0.0454  0.1863
14002W        W30476   3.387  18.073  10.626  0.2063 -0.1745 -0.2088
14003W        W30477  10.520   9.934   3.033  0.1237  0.3030 -0.2593
14004W        W30478  11.914   1.796  13.694  0.0009 -0.0748 -0.0601
14005W        W30479  18.387   7.680  12.588 -0.3273 -0.0348  0.4094
14006W        W30480   6.452   6.685  10.707  0.1109  0.1336  0.0641
14007W        W30481  19.290   7.416  11.315 -0.1166  0.1256  0.0103
14008W        W30482   7.989   0.807  14.311 -0.4659  0.1930 -0.0585
14009W        W30483   6.392   8.366   3.771  0.0573  0.0504 -0.2187
14010W        W30484  18.190  18.267   1.773 -0.0544 -0.0256  0.2644
14011W        W30485  15.939   2.576   2.267  0.0669  0.3347 -0.2135
14012W        W30486   6.320  14.070   4.131  0.0619 -0.0860  0.0885
14013W        W30487   2.798  17.274   1.026 -0.0916  0.3247  0.2369
14014W        W30488  12.497   4.902  10.759 -0.1589  0.1155 -0.0622
14015W        W30489   3.132  17.723   1.714 -0.0973  0.1792 -0.1068
14016W        W30490   7.589  17.259   1.986  0.2905  0.2026 -0.4323
14017W        W30491   8.474  12.141   9.965  0.0314 -0.1352  0.0276
14018W        W30492   8.677  16.061   3.341 -0.0068  0.2071 -0.0480
14019W        W30493  12.576   4.257  13.484  0.1552 -0.0392  0.0848
14020W        W30494   2.326  15.663   3.234  0.0810  0.1372  0.1425
14021W        W30495   7.334   3.109   0.622 -0.3208 -0.0667 -0.2457
14022W        W30496   2.774   4.168  13.334 -0.1028 -0.0704  0.2525
14023W        W30497  11.516   1.355   1.814  0.0467  0.0087  0.0645
14024W        W30498   8.996  15.191   1.239 -0.1161  0.0494 -0.2952
14025W        W30499   6.702   3.521   3.048  0.2053  0.0972 -0.2077
14026W        W30500  13.807   8.118   0.143  0.2103  0.1101 -0.1536
14027W        W30501   9.838   4.395  13.868  0.1573  0.0451 -0.0977
14028W        W30502   5.870  13.916   4.932  0.2158 -0.3186 -0.0449
14029W        W30503   0.759  10.674   1.234  0.0347  0.1189  0.0971
14030W        W30504  18.562  16.553   4.623  0.3392 -0.1626 -0.0271
14031W        W30505  19.282  16.749  13.372 -0.1746  0.0870  0.2757
14032W        W30506  18.146  11.496  11.850  0.5956  0.1326  0.0191
14033W        W30507   2.536   2.501  11.875 -0.1130  0.1179 -0.4042
14034W        W30508   8.145  18.812   4.110  0.0350  0.4317  0.1397
14035W        W30509   2.431   2.189  10.201 -0.1910  0.0585 -0.1626
14036W        W30510   8.367   5.490  12.579  0.2212  0.0202  0.0425
14037W        W30511   8.230  18.134  11.199  0.1249  0.1718 -0.0599
14038W        W30512   9.220   6.383  10.935  0.1503 -0.0478  0.0888
14039W        W30513   8.842  11.385   3.030  0.1840  0.0335 -0.0752
14040W        W30514   2.216  16.535   4.719  0.3774  0.0853  0.2402
14041W        W30515  15.914  11.947  11.290  0.0729  0.2410 -0.0055
14042W        W30516   5.643  13.035  10.367 -0.0922 -0.1368 -0.1303
14043W        W30517  12.890   3.709   5.366 -0.2071 -0.2407  0.3171
14044W        W30518  15.517  10.519   2.612 -0.0221  0.0787 -0.1617
14045W        W30519   6.370   9.345  13.027 -0.1268 -0.0819  0.1563
14046W        W30520  14.340  15.520   0.270 -0.0619 -0.1906  0.1569
14047W        W30521  18.693   9.185   3.608 -0.0488 -0.1847 -0.0952
14048W        W30522  19.271  13.186  11.282 -0.0299 -0.0850 -0.1288
14049W        W30523  15.898  18.050  10.770 -0.0222 -0.1520  0.1869
14050W        W30524   3.089   2.217  12.647 -0.0249  0.3900  0.0995
14051W        W30525   6.331   5.947  13.708  0.0312  0.1026 -0.1113
14052W        W30526   7.187   3.491  14.671  0.0771  0.1144  0.0442
14053W        W30527  10.304   0.186  13.682 -0.2014 -0.1277  0.1528
14054W        W30528  10.045   4.369   0.857 -0.3217  0.4014  0.0111
14055W        W30529  10.394  11.419  13.393  0.0024 -0.0726  0.1093
14056W        W30530   8.877  14.693  12.224 -0.2981  0.0597  0.1156
14057W        W30531   5.904   7.491   4.144 -0.1029  0.1776 -0.3805
14058W        W30532  15.405  15.885   3.275 -0.1447  0.0866  0.4441
14059W        W30533   6.465   2.772  13.957  0.1891 -0.0516 -0.2323
14060W        W30534  11.545   9.357  11.680 -0.2289 -0.2963 -0.0341
14061W        W30535   6.981   4.298  13.612 -0.0833  0.1821  0.0657
14062W        W30536  14.873  18.978   4.959 -0.2327 -0.1598 -0.1098
14063W        W30537  14.900  12.408  11.778 -0.0756 -0.0511 -0.0489
14064W        W30538   3.441   8.952   0.760 -0.1966  0.1819  0.2891
14065W        W30539   8.471  11.590   2.766  0.1663  0.0620  0.4559
14066W        W30540   0.446  18.794   4.161 -0.0151 -0.0541  0.0723
14067W        W30541   0.772  11.712   2.162 -0.1944  0.0876 -0.0927
14068W        W30542   9.735   8.646  10.851  0.2417 -0.1418  0.1465
14069W        W30543   6.489   2.784   2.620  0.0484 -0.1044  0.0758
14070W        W30544   5.660  11.551  13.863 -0.0744 -0.1988  0.5447
14071W        W30545   8.716  15.156  11.611 -0.0788  0.0952 -0.0456
14072W        W30546   2.398   5.137  10.795  0.0063 -0.1836 -0.2430
14073W        W30547   8.915   7.543   2.328  0.0301 -0.0818  0.3081
14074W        W30548   2.366   6.774   3.712 -0.1962  0.0417 -0.2296
14075W        W30549   1.830  14.968  14.862  0.1495  0.2946 -0.1356
14076W        W30550   1.482   7.338  12.112 -0.2013 -0.0645 -0.1053
14077W        W30551  16.934   3.856   3.325  0.1122  0.0838 -0.4215
14078W        W30552  16.646  16.135  14.186 -0.5499  0.1761 -0.1131
14079W        W30553  16.755   5.806   4.232 -0.0047  0.1473 -0.2029
14080W        W30554  12.469  15.780   4.855  0.2216  0.1924  0.0028
14081W        W30555   3.253   2.561  11.520  0.3178 -0.1457 -0.0140
14082W        W30556   2.840  19.110  13.933 -0.0100 -0.2083  0.0658
14083W        W30557  19.301  10.644  11.143 -0.2125  0.2244 -0.1145
14084W        W30558   6.027  17.042   1.806  0.2768 -0.1364  0.2974
14085W        W30559  18.068   3.411   2.667 -0.1021 -0.0479  0.3060
14086W        W30560  14.102   8.035  11.789 -0.0498  0.0357 -0.0287
14087W        W30561  13.939  14.677   0.295 -0.0228  0.0061  0.0082
14088W        W30562   1.897   3.921  14.415 -0.2409  0.1472 -0.0068
14089W        W30563  17.667  16.759  14.437  0.2362  0.1330 -0.0452
14090W        W30564   7.544   4.620  13.898  0.0544 -0.0429  0.0811
14091W        W30565  18.018   5.033  14.855  0.3929  0.0862 -0.0113
14092W        W30566  12.610  18.975  12.326  0.3117  0.4308 -0.0792
14093W        W30567   6.329  15.679  10.439 -0.0330  0.1161  0.0993
14094W        W30568  11.668   5.890   1.413  0.6041  0.2498 -0.1707
14095W        W30569   4.188  18.759   4.817 -0.0016  0.1551  0.1587
14096W        W30570   3.389  19.251   0.283 -0.2858  0.1616  0.0969
14097W        W30571   6.874   0.673  12.626  0.1605 -0.2133  0.0086
14098W        W30572  16.805   5.126  11.047  0.0154  0.0894  0.1097
14099W        W30573  14.323  12.493   9.713 -0.0676 -0.0378  0.0624
14100W        W30574  13.633   1.656   5.140  0.2325 -0.1196  0.0980
14101W        W30575   5.837   1.548   1.505 -0.4009  0.0431 -0.2334
14102W        W30576  10.503   0.686   0.317 -0.1767 -0.1240 -0.0410
14103W        W30577  16.670   4.947  14.786 -0.2242  0.3222 -0.1466
14104W        W30578  12.266  12.133   5.345 -0.1636 -0.4044 -0.1136
14105W        W30579   0.066  14.064   0.134  0.2680  0.3109  0.0900
14106W        W30580  10.861   7.819  13.865 -0.2526 -0.0984  0.1553
14107W        W30581   4.417   1.365   0.391 -0.0798 -0.0474 -0.1228
14108W        W30582   8.467   6.933  13.492  0.0266 -0.3719 -0.2256
14109W        W30583  11.144  12.421   0.986  0.0498 -0.0557 -0.1359
14110W        W30584  18.989   4.740   0.920 -0.1803 -0.1614 -0.0310
14111W        W30585   2.151  13.720   4.625 -0.4096 -0.2724 -0.0406
14112W        W30586   3.529  13.757  13.731  0.0664 -0.0417 -0.1641
14113W        W30587  10.506  18.440   3.744 -0.0942 -0.0627 -0.1660
14114W        W30588  12.301  17.369   3.755 -0.1971  0.1554 -0.2833
14115W        W30589  19.359   0.941  11.347 -0.1377 -0.0362 -0.1508
14116W        W30590   5.146   8.315  13.145  0.0453 -0.1471 -0.2702
14117W        W30591  12.406   8.412   2.473 -0.3084 -0.1257  0.0063
14118W        W30592  13.989   2.161  14.440 -0.0823 -0.1911  0.2358
14119W        W30593  15.602  17.657  10.659 -0.0782  0.1554  0.0663
14120W        W30594  12.745   4.653   0.315  0.2155 -0.0555  0.3239
14121W        W30595  14.307  15.493   3.834  0.0084  0.3345  0.1108
14122W        W30596   0.328   6.423  13.470 -0.0550  0.1866  0.0190
14123W        W30597   1.423  13.275   3.233 -0.0818  0.1449 -0.0126
14124W        W30598  12.409   7.832  11.204 -0.0275  0.0368 -0.0007
14125W        W30599   1.517   3.117   0.183  0.1482 -0.0470 -0.0334
14126W        W30600  10.950  12.095  13.529 -0.4629  0.1880  0.0806
14127W        W30601   1.512  15.945   4.234  0.0435 -0.0099 -0.0055
14128W        W30602   8.506   1.634   0.414  0.0010  0.1744 -0.3047
14129W        W30603  15.501  17.093  11.690  0.2337  0.1799 -0.1373
14130W        W30604  13.980   0.467   2.869  0.1071 -0.2663 -0.1289
14131W        W30605   0.832   9.601  11.252  0.0293  0.1363  0.0641
14132W        W30606  10.548  17.408   5.412 -0.3245 -0.3336  0.1039
14133W        W30607  12.293   2.140  13.557  0.0492 -0.1634  0.3219
14134W        W30608   9.410   6.829  10.919 -0.1769  0.0402  0.1953
14135W        W30609   0.782   5.909  13.032  0.0568  0.0631  0.0990
14136W        W30610   0.552   4.822   4.229  0.3384  0.0388  0.1680
14137W        W30611  17.662  12.114   2.899  0.0702  0.1208 -0.1449
14138W        W30612   7.679   6.613  11.380  0.1282 -0.2999  0.2099
14139W        W30613  14.997  16.339  13.610  0.1548 -0.1192 -0.0730
14140W        W30614   4.882   6.808   4.518  0.0547 -0.0701  0.2156
14141W        W30615   1.645  11.883  12.400 -0.1108  0.3760 -0.0300
14142W        W30616  18.594   6.012   1.513 -0.0107 -0.1304 -0.3389
14143W        W30617   5.454   3.656   2.924  0.1463  0.0878  0.3227
14144W        W30618  18.121  18.625   3.841 -0.0045  0.0221  0.1951
14145W        W30619   9.265   4.831   3.184 -0.0359 -0.1965 -0.3336
14146W        W30620  17.534  16.717   0.954 -0.0031 -0.1814  0.1942
14147W        W30621   5.961   1.455   1.028 -0.2936  0.1267  0.1698
14148W        W30622   6.915   8.905  11.778  0.1284 -0.2921  0.1426
14149W        W30623  16.371  16.153   4.208  0.2566 -0.2310  0.2168
14150W        W30624   8.536  12.623   3.055  0.0689 -0.0452  0.1657
14151W        W30625  13.271  18.944  11.257  0.1557 -0.2841  0.0530
14152W        W30626  11.773   0.722  11.558 -0.3685 -0.1632 -0.3941
14153W        W30627  16.376   7.706   3.180 -0.0454 -0.2984  0.5266
14154W        W30628  15.933  16.165   0.469  0.0736 -0.2483 -0.0180
14155W        W30629  10.312   6.276  13.165  0.0491 -0.0566  0.0589
14156W        W30630   4.786  13.205   0.550 -0.0621 -0.0945  0.0870
14157W        W30631   1.924   3.693   1.506 -0.1464  0.3433 -0.3450
14158W        W30632  12.447  14.035   0.486  0.3536  0.0570  0.4165
14159W        W30633   8.082   1.756   1.221  0.0111  0.0197 -0.0947
14160W        W30634  12.428   1.254   4.742 -0.0247  0.2692 -0.0057
14161W        W30635   4.236  13.846  14.470 -0.1275 -0.0845  0.1982
14162W        W30636  11.550   6.789  14.764 -0.0153 -0.0421  0.0597
14163W        W30637  15.825  19.288   0.947 -0.2436 -0.2083  0.3394
14164W        W30638   8.465   4.134  10.823 -0.2161  0.1091 -0.3474
14165W        W30639  13.217  15.335  11.091  0.0886  0.3510 -0.1851
14166W        W30640  15.946  13.094  12.891 -0.3489  0.1768 -0.0086
14167W        W30641   0.432   2.116   0.234 -0.0764 -0.2342 -0.0120
14168W        W30642  16.876   1.564   0.941  0.0194 -0.0765 -0.1164
14169W        W30643  17.879   7.077   2.152  0.3830 -0.3058 -0.1176
14170W        W30644  18.918   3.024  11.037  0.1718 -0.0986  0.4179
14171W        W30645  10.835   3.549  13.637 -0.1572  0.0774 -0.1319
14172W        W30646   1.448  14.121   2.920  0.0167 -0.1986 -0.0360
14173W        W30647   1.378  14.696  14.633 -0.0923 -0.0921  0.0982
14174W        W30648   2.093   2.406  11.688  0.0420  0.2656  0.4811
14175W        W30649  18.343  13.974   1.788  0.1290 -0.1584 -0.0887
14176W        W30650   7.591  10.362  12.749  0.2788  0.3839  0.0576
14177W        W30651   9.047  12.414   1.700 -0.4124  0.0395  0.0959
14178W        W30652   6.427  14.162   0.980 -0.3254  0.1585  0.2607
14179W        W30653   1.549   2.989   3.658 -0.1536  0.0262  0.0571
14180W        W30654  10.301  17.336  13.569 -0.1999  0.1017  0.0610
14181W        W30655   9.417  10.267  10.322 -0.0348  0.0689 -0.1155
14182W        W30656  12.337   3.344  11.546 -0.3228  0.1533  0.1348
14183W        W30657  13.322   6.806   3.476 -0.0834 -0.0776 -0.0270
14184W        W30658   9.698   8.790  14.211  0.1293  0.1124  0.1071
14185W        W30659   9.529  12.856  13.823 -0.1478  0.1728 -0.1720
14186W        W30660  12.539  10.892  13.182 -0.2857 -0.1486 -0.2574
14187W        W30661   2.181   5.417   2.874  0.0306 -0.1282 -0.1727
14188W        W30662   8.751   0.478  12.184 -0.2883  0.1948 -0.1585
14189W        W30663  16.721   3.350  12.820 -0.1885  0.1819 -0.1856
14190W        W30664   7.084  15.380  10.754  0.1570  0.0225  0.0696
14191W        W30665  10.020  14.450  11.769  0.0495 -0.1709 -0.5178
14192W        W30666   8.621  12.601  13.263  0.0260 -0.4276  0.3586
14193W        W30667  18.928   3.526   3.768  0.2463 -0.2630  0.1304
14194W        W30668   6.908   3.358   1.218  0.0043 -0.2463  0.0017
14195W        W30669   0.674  12.961  12.464 -0.2111  0.1800  0.0726
14196W        W30670  12.535   6.552  11.563  0.0423 -0.0651  0.0751
14197W        W30671   6.046   9.055  12.081  0.0563 -0.3803  0.2578
14198W        W30672   9.784   5.111  13.765  0.0705  0.0080 -0.1859
14199W        W30673   1.923  17.454   4.127 -0.1983 -0.1391 -0.0514
14200W        W30674   9.308   8.534   2.703  0.1927 -0.0303 -0.1825
14201W        W30675  18.579  11.008   3.084 -0.3242 -0.0304  0.2535
14202W        W30676  11.043  16.109   1.256  0.3951 -0.2835  0.1947
14203W        W30677  10.105   9.628   0.632  0.0961 -0.0092 -0.1103
14204W        W30678   8.950  11.578  13.386 -0.0254 -0.0545 -0.0340
14205W        W30679   6.407  10.403  12.688  0.0624 -0.2880  0.2362
14206W        W30680  11.858   5.628  12.524  0.3031 -0.2323 -0.0187
14207W        W30681   5.066  14.195  11.446 -0.3573 -0.0077  0.3024
14208W        W30682   1.562   6.659   1.243 -0.3965  0.0537  0.3081
14209W        W30683  10.793   9.631  10.652 -0.1828  0.2727  0.0050
14210W        W30684   5.979   1.401  12.028  0.0917 -0.1582 -0.1696
14211W        W30685  18.586   4.694   4.851  0.1509  0.1271  0.0426
14212W        W30686   1.747   5.567   9.677  0.1114  0.2115  0.1748
14213W        W30687   9.661   8.070   9.001 -0.3104  0.1828  0.0106
14214W        W30688  12.724   9.635   1.266  0.1297  0.0212 -0.3804
14215W        W30689  15.619   7.927  14.523  0.0238 -0.0957 -0.2312
14216W        W30690   2.494   7.581   5.107  0.0550 -0.3558 -0.0914
14217W        W30691   9.578  19.260   2.437 -0.2273  0.1348  0.2096
14218W        W30692   9.028  11.611   0.129  0.2288  0.3378  0.3161
14219W        W30693   8.808   0.683   2.918 -0.0821  0.2649  0.3857
14220W        W30694   0.981  17.272   1.828 -0.2720  0.0980 -0.0543
14221W        W30695  15.450   0.152  12.158 -0.1154 -0.1871  0.0792
14222W        W30696   1.688  16.693   4.729 -0.1337  0.0586 -0.0125
14223W        W30697  18.467   2.672   4.035  0.1921 -0.0021 -0.3002
14224W        W30698   2.448  17.676   0.910  0.1142  0.1153  0.0199
14225W        W30699   0.317  10.815  14.275  0.2332 -0.1699  0.0041
14226W        W30700  11.424   6.829   3.618 -0.0701  0.0058  0.0544
14227W        W30701   6.358   1.108   2.348  0.2468 -0.1321  0.2955
14228W        W30702   5.915   4.698   4.210  0.0019 -0.0517 -0.2027
14229W        W30703   2.226   8.393   3.515 -0.0886 -0.0620 -0.1641
14230W        W30704   9.275   0.725   0.745 -0.3429 -0.1152  0.1170
14231W        W30705   5.517   9.196  10.855 -0.0218 -0.0087  0.2353
14232W        W30706  12.184  15.642   3.786  0.2095  0.0346  0.2856
14233W        W30707   8.838  11.830  11.321 -0.4429 -0.0255 -0.0359
14234W        W30708  17.677  19.109   0.452  0.0715 -0.0274  0.4211
14235W        W30709  13.543   3.294   1.763 -0.2714 -0.2633 -0.2528
14236W        W30710  19.246  15.871   0.825  0.1081  0.0634 -0.1991
14237W        W30711  14.355   0.699   9.585 -0.3355 -0.0389 -0.0274
14238W        W30712   4.269  13.911  10.806 -0.2956  0.1767 -0.2553
14239W        W30713  12.903  17.376  12.629 -0.1328 -0.2922 -0.3300
14240W        W30714  11.044   0.078   4.560 -0.0898 -0.1801 -0.0958
14241W        W30715   1.534   7.511  10.336  0.0521 -0.1637  0.0062
14242W        W30716   2.267  17.873   4.167  0.1759 -0.1505 -0.1384
14243W        W30717   1.501  17.544   5.426 -0.0597  0.4974 -0.3168
14244W        W30718   2.248   3.707   0.409  0.1963  0.0526  0.2097
14245W        W30719  10.264  15.950   1.647  0.0687 -0.1216  0.0042
14246W        W30720   0.914  10.431   3.142 -0.1476  0.1691  0.2494
14247W        W30721   3.066   9.534   2.521  0.5015  0.0613  0.2748
14248W        W30722   0.258  14.087   0.988 -0.2245  0.1596  0.2079
14249W        W30723   5.680  17.528   5.547 -0.2948  0.0251 -0.0869
14250W        W30724  11.177   2.581   3.829  0.0238 -0.0224 -0.3535
14251W        W30725  16.110  17.089   3.707  0.2024  0.0217  0.1603
14252W        W30726  14.582  10.742  10.613 -0.1224 -0.0589  0.0321
14253W        W30727  12.797  14.310  14.534 -0.0227  0.0368 -0.0874
14254W        W30728   3.733  11.067   2.054  0.1016 -0.1055  0.1142
14255W        W30729  17.288   4.133   1.611 -0.0215  0.3806  0.1185
14256W        W30730   9.922  13.632   4.305 -0.0951 -0.1208 -0.0083
14257W        W30731   5.332   2.962  10.489  0.0050  0.0314 -0.2124
14258W        W30732   1.629   2.975  10.427 -0.0461 -0.0897 -0.1830
14259W        W30733   3.195   3.008  13.843 -0.0026  0.0689 -0.0913
14260W        W30734  17.172  15.578  11.750 -0.0091  0.3192  0.0795
14261W        W30735  19.029  14.554  12.035 -0.0219 -0.1536 -0.1006
14262W        W30736  16.045   3.130   0.789 -0.0814  0.3370  0.1555
14263W        W30737   3.261  13.871  11.458  0.3101 -0.2816 -0.3754
14264W        W30738   4.433   9.933   1.399 -0.1830 -0.1374  0.0228
14265W        W30739  19.382   7.059   4.426  0.0859 -0.0242  0.1959
14266W        W30740  15.256   7.452  11.084 -0.1014 -0.0615  0.0848
14267W        W30741  14.396   3.247   2.709 -0.1315 -0.1632  0.0535
14268W        W30742  13.816  10.901  13.910  0.2167  0.1070  0.2376
14269W        W30743   5.929   4.959   0.215  0.0446  0.1732  0.1712
14270W        W30744  18.304   1.969   5.056 -0.0464  0.0944  0.0961
14271W        W30745  10.324  13.821   2.225 -0.0244  0.0058  0.0575
14272W        W30746   8.519  13.427   2.323 -0.2015  0.1021 -0.1541
14273W        W30747  17.884   9.182  14.580 -0.2607 -0.0464 -0.0631
14274W        W30748  18.395  17.285  13.233  0.0090 -0.0481 -0.1656
14275W        W30749  11.203  17.939  13.327 -0.0016  0.0704 -0.0424
14276W        W30750   5.270  14.545   3.729 -0.1294 -0.0242 -0.0099
14277W        W30751  10.061  18.357  10.508 -0.2109 -0.0972 -0.2384
14278W        W30752  17.992   5.771  12.896 -0.1754  0.0118  0.1336
14279W        W30753  11.175  15.313  12.518  0.2789 -0.0972 -0.3652
14280W        W30754   3.844   8.249  10.475 -0.1602  0.0412 -0.1674
14281W        W30755   7.088   3.609   4.603  0.0120  0.0809 -0.1864
14282W        W30756   5.225   2.148   2.888  0.0390  0.0268 -0.4363
14283W        W30757  14.847   4.613  12.533  0.1086 -0.1728  0.4476
14284W        W30758  18.285   4.186   1.168  0.1770  0.0219 -0.4363
14285W        W30759   8.452   5.671  14.269 -0.1421  0.2856 -0.0681
14286W        W30760   8.651   1.361   4.205  0.0739 -0.0139  0.3104
14287W        W30761  19.378  15.816  13.818 -0.2123  0.2477 -0.1555
14288W        W30762  18.822   6.895  13.180  0.2375 -0.1127  0.1472
14289W        W30763   7.470   5.568  13.462 -0.2384  0.0152 -0.0755
14290W        W30764  17.891   8.140  14.876  0.0327 -0.0475  0.0637
14291W        W30765   4.765   7.124   2.212 -0.1213 -0.1447 -0.1712
14292W        W30766   5.101  18.455  10.963 -0.1180 -0.1339 -0.0613
14293W        W30767   6.179  11.546   1.244 -0.0727 -0.2521 -0.1512
14294W        W30768   2.027  18.059  11.016 -0.0549  0.1895  0.0023
14295W        W30769   6.143   2.459  11.817  0.1762 -0.1591 -0.2432
14296W        W30770   7.457   2.398  10.474  0.0391  0.0283  0.2384
14297W        W30771   2.617  11.425   1.007  0.0113  0.2975  0.1704
14298W        W30772   7.551  18.923  11.314 -0.0096  0.0290 -0.0646
14299W        W30773   0.147   0.374  12.110  0.0864  0.1078 -0.0891
14300W        W30774   6.989   8.646   0.119  0.0164  0.0912  0.0748
14301W        W30775   6.946  14.268  10.919 -0.1092  0.0992  0.1462
14302W        W30776   1.681   1.993   1.405  0.1101 -0.1614  0.1174
14303W        W30777   4.449   3.140  12.810 -0.1882  0.0688 -0.4925
14304W        W30778  16.376  13.412   1.352  0.0854 -0.2311 -0.1963
14305W        W30779  16.261   4.136  13.011 -0.3381 -0.0241 -0.0667
14306W        W30780  13.788   8.189  14.250  0.0514 -0.0505  0.0639
14307W        W30781  16.539  17.610  10.833  0.0684 -0.0110  0.0531
14308W        W30782   1.463  16.155   3.141 -0.3096 -0.0833  0.0711
14309W        W30783  18.048   2.677   1.914 -0.0714  0.3094 -0.0810
14310W        W30784  15.711   2.202  11.446  0.1405  0.1629 -0.0075
14311W        W30785  17.894  10.163   9.903  0.2745  0.0690 -0.0126
14312W        W30786  14.493  16.665   4.230 -0.1623  0.1494  0.0534
14313W        W30787  11.041  13.913   3.017  0.3104  0.0641 -0.0631
14314W        W30788   1.271  14.519  11.837 -0.1646 -0.1031 -0.0951
14315W        W30789  13.412   7.825   4.999 -0.2060 -0.2153  0.2306
14316W        W30790  15.848  17.324  13.012 -0.0906 -0.1775 -0.0131
14317W        W30791  16.884  15.786   5.106 -0.0000  0.0721 -0.0260
14318W        W30792  16.755   2.730   4.530 -0.1552 -0.3199 -0.0183
14319W        W30793   6.095  10.404   2.180 -0.0960  0.0104 -0.0167
14320W        W30794   3.576   4.524   0.418  0.0341 -0.1351 -0.3300
14321W        W30795  15.292  10.210   0.513 -0.0170  0.2883 -0.0740
14322W        W30796  10.315  11.132   0.926 -0.0953 -0.3119  0.2048
14323W        W30797  13.737  17.156  11.312 -0.0242 -0.1125  0.0759
14324W        W30798  12.303  11.330  13.278  0.2454  0.2075  0.0031
14325W        W30799  15.603   7.251  11.440 -0.0561  0.4810 -0.1566
14326W        W30800  10.983   6.541   4.420  0.0738 -0.1456  0.2055
14327W        W30801   5.287   1.544  11.528  0.0379  0.0041 -0.0180
14328W        W30802   2.404  10.769  13.116 -0.2304  0.0233 -0.4403
14329W        W30803   0.538  12.133   0.567 -0.1239 -0.0460  0.0028
14330W        W30804  13.639  16.904   3.243 -0.0847  0.0989 -0.0467
14331W        W30805  14.792   0.453  14.216 -0.3253  0.0087 -0.1762
14332W        W30806   1.374  15.327  11.087  0.3124 -0.2066 -0.1655
14333W        W30807  10.725  10.841  13.246 -0.0745 -0.0035  0.1294
14334W        W30808  14.945   3.995  14.653 -0.0575 -0.0022 -0.2690
14335W        W30809  18.632  18.315  13.143  0.1075 -0.1936 -0.2924
14336W        W30810   7.341  11.535   0.289  0.1535  0.0285  0.4741
14337W        W30811   8.146  16.669  12.715  0.0296 -0.2781 -0.1000
14338W        W30812   3.959  13.517  14.761 -0.3389 -0.0282  0.1334
14339W        W30813  11.776   5.374   3.624  0.0715 -0.1324 -0.2412
14340W        W30814   6.674   1.748   2.897  0.1656  0.0992 -0.1329
14341W        W30815  10.849  11.241   4.325  0.1643 -0.1280 -0.1023
14342W        W30816   7.906   4.849  14.649 -0.1014 -0.1837 -0.2650
14343W        W30817  16.727  10.909   3.833 -0.0322  0.2202 -0.2220
14344W        W30818   7.505   0.635   4.850  0.4327 -0.3029  0.1125
14345W        W30819  18.991  17.818  12.098  0.0475 -0.0758  0.0716
14346W        W30820   6.285  10.528  13.206 -0.4282  0.3209 -0.0887
14347W        W30821  11.073   3.027  11.152  0.0136 -0.1176 -0.0405
14348W        W30822  17.563   8.082  12.671 -0.0758 -0.0113 -0.1608
14349W        W30823   2.810   5.638  12.071  0.4390 -0.2750 -0.1234
14350W        W30824  15.220   7.658  12.820 -0.0765  0.0028  0.0886
14351W        W30825   8.308   6.886  13.040 -0.1695 -0.0846  0.0095
14352W        W30826   6.256   7.566  11.474  0.0058  0.0021  0.2473
14353W        W30827  10.151  17.036   0.999 -0.2071 -0.0009  0.0085
14354W        W30828   0.855  15.809  11.465 -0.1310 -0.0848  0.2130
14355W        W30829   8.037  12.385   3.239  0.2057  0.0205  0.0014
14356W        W30830  10.193  13.506  13.053  0.0366  0.1901 -0.2113
14357W        W30831   1.214   3.348   3.589  0.0181 -0.3578 -0.3024
14358W        W30832  18.262  18.411   5.927 -0.1017  0.1077 -0.0279
14359W        W30833  13.220  10.318   1.988 -0.0068  0.1566  0.2247
14360W        W30834  17.811   1.842   3.485 -0.3562 -0.3293  0.2101
14361W        W30835   9.009   2.389   9.609 -0.0382  0.0078  0.0300
14362W        W30836  10.398   3.668  11.259  0.0231  0.1333 -0.2849
14363W        W30837  11.962  18.186   1.557 -0.2094 -0.3010  0.2468
14364W        W30838   4.261   8.458  14.654 -0.4653 -0.1838  0.1499
14365W        W30839   6.418   1.156   0.905  0.0817 -0.0341 -0.0346
14366W        W30840  19.367  18.544  11.368 -0.0506 -0.0552  0.3644
14367W        W30841  14.094   7.648  13.511  0.1767 -0.2006 -0.1609
14368W        W30842  18.435  14.312   9.879  0.1504  0.1175  0.0920
14369W        W30843  18.651  12.105   6.124 -0.0654  0.1083 -0.2538
14370W        W30844  14.138  18.873  13.083 -0.2627 -0.0511  0.1771
14371W        W30845   1.164  14.610   5.868  0.0317 -0.0159  0.3031
14372W        W30846  11.530   5.338  14.281 -0.0317 -0.2086 -0.2038
14373W        W30847   2.653  18.506   1.236  0.2001 -0.1426 -0.0201
14374W        W30848  17.939  13.804  12.343 -0.0290 -0.1039  0.3838
14375W        W30849   7.551  13.891   4.430  0.5255  0.3104 -0.5824
14376W        W30850   6.489  15.343  11.334 -0.0502  0.1821  0.2262
14377W        W30851  18.473  13.268  11.779  0.3863 -0.1415 -0.3664
14378W        W30852   4.499   5.338   2.482  0.1464  0.0329  0.0966
14379W        W30853   0.080  13.757   6.151  0.1827  0.0017  0.1052
14380W        W30854   0.867   9.081  13.689 -0.1177 -0.1639  0.2749
14381W        W30855  12.853   7.829   3.826  0.1386 -0.2043  0.2566
14382W        W30856  16.563   5.709   1.154  0.2144 -0.1465  0.2626
14383W        W30857  10.677  13.677   3.334 -0.0167  0.0388  0.0323
14384W        W30858  10.897   9.169  12.348  0.0085 -0.2749 -0.1072
14385W        W30859   7.601   8.662   4.259  0.0921 -0.2306 -0.2277
14386W        W30860  16.639  11.726  14.709  0.0726  0.1076  0.2212
14387W        W30861  11.489   1.013   4.275 -0.0347  0.1924  0.1488
14388W        W30862  17.244  16.520  11.679 -0.0679 -0.1826  0.2577
14389W        W30863   3.870   2.347   2.273  0.1520  0.0556 -0.0942
14390W        W30864   7.638   3.972   0.293 -0.2155 -0.2832 -0.0261
14391W        W30865  14.074   4.732   4.488 -0.3804  0.1570  0.1020
14392W        W30866   3.270   0.297  11.685  0.1702 -0.3343  0.0884
14393W        W30867  16.977   7.845   1.037  0.2130 -0.2529  0.0556
14394W        W30868   4.036  17.133   1.131 -0.2279 -0.2409 -0.2311
14395W        W30869   8.612   0.909   0.147  0.0110  0.1463 -0.0992
14396W        W30870   6.412   9.049  14.076 -0.0651  0.1425 -0.1638
14397W        W30871  12.152   2.796   2.476  0.2575 -0.0901  0.0318
14398W        W30872   6.495   8.581  14.006  0.2559  0.2376  0.1113
14399W        W30873   6.153  13.130   0.044 -0.1217  0.0014 -0.1253
14400W        W30874   0.898  11.149   4.932 -0.2795 -0.1044 -0.0682
14401W        W30875   5.129  14.592  11.728 -0.2155 -0.0267  0.1717
14402W        W30876   4.995   4.816   2.619 -0.3389 -0.0068 -0.0793
14403W        W30877   4.167   2.197  10.265 -0.3176 -0.2456 -0.1441
14404W        W30878  14.388   5.338   3.672 -0.1396  0.0365 -0.3472
14405W        W30879   9.594  16.046   0.079  0.1571 -0.0111  0.0325
14406W        W30880   2.217  18.999   2.492 -0.2348  0.0152  0.0017
14407W        W30881   7.522   7.589  12.594  0.0601 -0.0728 -0.0051
14408W        W30882  15.619   9.934   1.420  0.1091 -0.0321  0.1148
14409W        W30883  17.070  17.982   4.392  0.2829 -0.1919 -0.1145
14410W        W30884   8.065   8.133  12.697 -0.1195  0.0801  0.2086
14411W        W30885   8.777  16.353   1.670  0.2012  0.1000  0.0291
14412W        W30886   6.228   6.720  11.133  0.1177  0.2222 -0.1305
14413W        W30887  19.228   5.645  11.904  0.0330  0.1759  0.1811
14414W        W30888  12.173  12.640  12.734 -0.0146 -0.3459  0.4109
14415W        W30889  18.834   4.868   2.766 -0.0912 -0.0741  0.2816
14416W        W30890   5.965   9.184  12.728  0.0652  0.0109 -0.2728
14417W        W30891   4.661   7.383   3.060 -0.0861  0.2554  0.3069
14418W        W30892   2.409   5.634  13.282 -0.0628 -0.0195 -0.0637
14419W        W30893   7.493  11.345  12.481 -0.0323  0.3303 -0.1015
14420W        W30894   5.227   0.227   1.136 -0.2751 -0.0431  0.0710
14421W        W30895  18.157  11.325  14.337 -0.0107  0.1102  0.0437
14422W        W30896   3.817  10.424   0.866 -0.1367  0.2530  0.1149
14423W        W30897   1.939   5.547  13.460  0.0251 -0.2121  0.2372
14424W        W30898  10.718   0.049  13.345 -0.0325  0.0985  0.1367
14425W        W30899  11.213   4.012   4.744 -0.0846 -0.0650  0.3324
14426W        W30900   2.256  13.691  12.511  0.0845 -0.3835  0.1350
14427W        W30901   7.464  18.575  14.141  0.2149 -0.2337 -0.3348
14428W        W30902   7.665   0.629   2.214  0.3244 -0.1343  0.1078
14429W        W30903   7.127   8.387   1.527  0.2720 -0.1585 -0.1515
14430W        W30904   5.015  14.823  14.138 -0.0528 -0.1460  0.1704
14431W        W30905  10.030   2.963   3.715 -0.0863  0.0199  0.3190
14432W        W30906   8.383  12.560  14.656 -0.1294 -0.1541 -0.2948
14433W        W30907  15.857  10.317   1.661 -0.0752 -0.0316 -0.3165
14434W        W30908   4.505  16.993   4.722 -0.0354 -0.3616  0.0169
14435W        W30909   8.289  14.464  11.110  0.0573 -0.1380 -0.1542
14436W        W30910  16.562   5.383   0.291  0.2517  0.0590  0.0535
14437W        W30911  16.065  14.211  14.415  0.1180  0.4539  0.4327
14438W        W30912   5.326   0.469   4.013  0.0744 -0.1483  0.1521
14439W        W30913  12.581   7.430  14.406  0.0183 -0.1325 -0.2116
14440W        W30914  17.339  14.047  11.412 -0.1443 -0.0843  0.1749
14441W        W30915  17.272  13.252   3.774  0.0742 -0.0874  0.0036
14442W        W30916   9.639  17.787  14.329  0.1024 -0.0010  0.2455
14443W        W30917  18.331   6.470   5.546 -0.2814  0.3665 -0.0017
14444W        W30918  13.878  15.245   5.043 -0.0077  0.1357  0.1564
14445W        W30919   6.186  19.322   1.495  0.0495 -0.1052 -0.1567
14446W        W30920  11.094  18.432   2.225  0.1308  0.1099  0.0855
14447W        W30921   7.955   3.846   4.787  0.0130 -0.3589  0.3726
14448W        W30922  10.225  17.381  12.289  0.0392  0.1406 -0.0314
14449W        W30923   2.396   3.729  11.564 -0.0045 -0.2160 -0.1620
14450W        W30924   9.348   9.156  12.162 -0.0691 -0.1665 -0.3309
14451W        W30925   0.716  10.244   4.783 -0.0265 -0.5949  0.0929
14452W        W30926  11.390  17.350   4.870 -0.1978 -0.3348 -0.2157
14453W        W30927  13.638  15.393  10.777  0.1616  0.1434 -0.1114
14454W        W30928   3.629  14.370   0.545 -0.3978 -0.2519 -0.1389
14455W        W30929  18.218   6.419   1.039  0.2407  0.2028 -0.0545
14456W        W30930  13.614  10.569  10.825 -0.2055  0.0707  0.1717
14457W        W30931  15.122   4.120  10.864  0.0526 -0.0316 -0.0578
14458W        W30932   5.203   7.966   2.385  0.0041 -0.1165  0.2855
14459W        W30933  12.364   2.566  12.202 -0.0104 -0.4383 -0.2281
14460W        W30934   2.938   5.498   3.694 -0.0578  0.2542  0.0588
14461W        W30935   6.117   6.276  13.384 -0.5152  0.1355 -0.0863
14462W        W30936   6.675   5.031   3.570 -0.3389  0.2390 -0.0919
14463W        W30937   2.761   0.148   1.020 -0.0967 -0.0254 -0.0485
14464W        W30938   9.480   7.769   4.497 -0.0857  0.1579  0.0421
14465W        W30939   7.310   7.474  11.754  0.1717  0.0522  0.1933
14466W        W30940  10.105   2.141  10.463 -0.1246  0.1704 -0.3591
14467W        W30941  14.307  14.924  11.430  0.1359  0.0681  0.2358
14468W        W30942  16.633   7.738  10.777  0.0191  0.2098  0.1436
14469W        W30943   5.748  13.460   3.804  0.0954  0.0973 -0.1513
14470W        W30944  17.950   6.098  14.165 -0.0481  0.4084 -0.3648
14471W        W30945  13.687   7.285   9.581  0.1306 -0.0543  0.0127
14472W        W30946   9.953  12.304  13.393  0.2966  0.0139  0.0199
14473W        W30947  18.739   7.979  11.301  0.1493 -0.0923  0.2419
14474W        W30948  15.259   4.805   1.834 -0.0300  0.0214 -0.1121
14475W        W30949   0.051  19.057  11.417  0.2450 -0.1451  0.0851
14476W        W30950   5.121   9.624  14.849 -0.2147  0.1043  0.2831
14477W        W30951   7.238  18.865   3.898 -0.3414 -0.3767  0.1378
14478W        W30952  14.763  10.042  14.034  0.1660 -0.0902 -0.3251
14479W        W30953  14.227   0.671  14.314  0.2287  0.2931 -0.2650
14480W        W30954   9.218  18.400  13.993  0.0311 -0.3327  0.1007
14481W        W30955  11.899  18.898   4.592 -0.2823  0.0354  0.0971
14482W        W30956   2.862   3.941  11.117  0.0443 -0.3057 -0.0853
14483W        W30957  18.472  11.012   1.688  0.1738 -0.3279  0.0264
14484W        W30958   3.977   8.738  11.335 -0.0061 -0.1558  0.3382
14485W        W30959   7.112  17.019  12.668  0.0740  0.0790 -0.2006
14486W        W30960   1.294   2.395   3.030 -0.2212 -0.2287  0.1554
14487W        W30961  14.861   6.721   4.162 -0.1112 -0.1232  0.1406
14488W        W30962   8.593   2.872   2.207  0.1906  0.2343  0.0231
14489W        W30963   5.895   9.220  14.266  0.5435  0.2364 -0.2248
14490W        W30964  16.780   8.770  13.698  0.0859  0.1621 -0.5413
14491W        W30965   0.361   6.854   1.016  0.4164  0.2764 -0.0002
14492W        W30966  18.217  10.419   4.462  0.0775  0.3058 -0.0300
14493W        W30967   3.780  12.387  10.206  0.1690  0.1090  0.1249
14494W        W30968  15.693  13.749   4.902  0.3759  0.1951  0.1047
14495W        W30969   2.638  10.671   2.645  0.1464  0.1737  0.1967
14496W        W30970  11.180  17.925  11.019  0.2275 -0.3665 -0.3835
14497W        W30971  16.895   3.869  11.765 -0.1160  0.1889  0.0638
14498W        W30972   1.874   1.062  13.196 -0.1219 -0.1495  0.1089
14499W        W30973   8.135   9.796   2.187  0.3978 -0.0345  0.1666
14500W        W30974  17.106   4.373   0.398  0.2235 -0.0396 -0.0413
14501W        W30975   3.264   3.908  10.702 -0.1559 -0.3068  0.0146
14502W        W30976  10.313   1.148   0.809  0.0981 -0.1736 -0.0465
14503W        W30977  16.431   5.897   3.787 -0.2036 -0.4234  0.0266
14504W        W30978  12.212  10.143  10.851  0.3654  0.0518 -0.1705
14505W        W30979   6.657   5.608  13.841  0.0290  0.0373  0.0614
14506W        W30980  14.291  18.767  12.591  0.0438  0.1117 -0.0634
14507W        W30981  13.906  19.306  14.233  0.1493  0.0290  0.2826
14508W        W30982  14.341  15.162   4.773  0.2855  0.0791  0.0355
14509W        W30983   0.374   4.637  13.446 -0.3978 -0.3673  0.0898
14510W        W30984   1.894  10.924  13.413 -0.1298 -0.1874 -0.0701
14511W        W30985   6.324   7.969  10.460  0.2232  0.3930 -0.1758
14512W        W30986   3.917   0.450  14.781 -0.1945  0.0068 -0.0631
14513W        W30987  10.394  10.957  10.588 -0.2167  0.1815  0.0842
14514W        W30988  15.329   7.857   2.460 -0.0538 -0.0246  0.1038
14515W        W30989  16.378   2.843  11.796  0.1240 -0.0604 -0.2214
14516W        W30990  14.675   3.766   2.694  0.0986  0.1731  0.0079
14517W        W30991  16.605   1.002   4.508  0.2886  0.1646 -0.1662
14518W        W30992   4.755   6.903   3.163 -0.0320  0.0896 -0.0286
14519W        W30993   8.816  10.795   9.935 -0.1909 -0.1805  0.0420
14520W        W30994   4.050  11.916  10.837  0.0769  0.1831  0.1391
14521W        W30995   0.794   8.239  10.227 -0.1233  0.2610 -0.2675
14522W        W30996   1.170   6.094  11.287  0.3039 -0.1988 -0.0679
14523W        W30997  12.678  11.687   0.627 -0.2211  0.0677  0.1012
14524W        W30998  15.527   0.120   4.652 -0.0179 -0.0119  0.0599
14525W        W30999   9.272  13.013   4.066 -0.3021 -0.1995  0.3605
14526W        W31000   8.968   2.763  12.173 -0.0043  0.3014  0.0461
14527W        W31001   8.249   9.021  12.836 -0.0437 -0.0286  0.2343
14528W        W31002  11.854   3.442   1.698  0.0108  0.1663 -0.2613
14529W        W31003   9.060   7.713   1.198 -0.1482 -0.1686 -0.2847
14530W        W31004  15.606   3.629   5.626 -0.3168  0.0225  0.0718
14531W        W31005   0.386   7.372   1.595  0.1212 -0.1003  0.0997
14532W        W31006   1.430  18.629  13.209  0.0424 -0.1950 -0.0485
14533W        W31007   0.701   7.281   0.147  0.0836 -0.1412 -0.1480
14534W        W31008  16.210  18.092  11.619  0.2982  0.0420  0.1601
14535W        W31009  12.260  19.241   2.238 -0.1362 -0.3019 -0.1683
14536W        W31010  14.063   2.857   2.564 -0.0148  0.3084  0.2255
14537W        W31011   9.179  16.422   0.991 -0.1522  0.5343  0.1891
14538W        W31012  11.839  14.708  14.700 -0.1728 -0.1351  0.2552
14539W        W31013  17.813  19.031  13.986  0.1718  0.0719  0.1574
14540W        W31014  16.982   2.495   3.471  0.0427 -0.2183  0.1482
14541W        W31015   6.818   2.103  13.034 -0.1055 -0.4111  0.2450
14542W        W31016  19.302   9.816  10.354 -0.1914 -0.3053  0.2253
14543W        W31017  14.373  15.445  11.293  0.0457 -0.0901  0.1179
14544W        W31018   8.872   8.725   1.427  0.2351  0.0499  0.3828
14545W        W31019  11.163  15.614  13.688 -0.1582  0.0722 -0.1274
14546W        W31020   8.941   2.254   1.635 -0.0181  0.1047  0.1956
14547W        W31021   6.990   1.971  11.792 -0.0394 -0.2375 -0.1070
14548W        W31022  18.937  18.311   3.697  0.4621  0.2856 -0.2505
14549W        W31023  10.859  16.634   2.660  0.1674 -0.0127 -0.0480
14550W        W31024  11.229   3.352  13.376  0.2770 -0.1637 -0.1374
14551W        W31025   4.622   9.776   0.255  0.1342  0.3270 -0.2744
14552W        W31026  15.314  15.173  10.951 -0.1938  0.1622 -0.3752
14553W        W31027   5.673   0.920   3.988  0.1432 -0.2225 -0.0160
14554W        W31028   2.178  15.959  12.833  0.1110  0.3148 -0.1573
14555W        W31029  15.931   2.049   1.454  0.0477  0.0697 -0.2342
14556W        W31030  17.821   7.982   0.943 -0.1271 -0.0960  0.0723
14557W        W31031   2.127  14.633   4.730 -0.0973 -0.3465 -0.3966
14558W        W31032   3.045  15.242   3.239 -0.2159  0.1409  0.0783
14559W        W31033   4.283   5.017   0.217  0.0686 -0.4932  0.2758
14560W        W31034   9.936   8.690   3.055 -0.0035 -0.0072 -0.2448
14561W        W31035   6.178   7.517   0.331  0.1529  0.1475  0.1443
14562W        W31036  12.222   2.464   3.690 -0.1748  0.0705  0.0884
14563W        W31037  12.127  12.503   2.316  0.1739  0.1104  0.0153
14564W        W31038  17.208  12.129   0.856 -0.2284 -0.1190 -0.0556
14565W        W31039   9.723  16.402   2.465 -0.2765 -0.1125 -0.1842
14566W        W31040  17.613   9.553   4.353 -0.1042  0.1014  0.1665
14567W        W31041  17.694   3.780   1.702  0.0389  0.2538 -0.1216
14568W        W31042   8.854  16.966  13.606  0.4169 -0.3966  0.0264
14569W        W31043   3.708   0.313   0.431 -0.2065 -0.1576 -0.0160
14570W        W31044   3.146   5.949   3.887 -0.1605  0.0830  0.2910
14571W        W31045   0.529  19.124  13.733 -0.0615 -0.1820 -0.4923
14572W        W31046   0.854  16.301  12.439 -0.0001 -0.1508  0.0235
14573W        W31047   9.659  10.977  13.441 -0.1808  0.1440 -0.1725
14574W        W31048  12.375  11.051   2.855 -0.0029  0.3510  0.2723
14575W        W31049  19.035   7.392  11.957 -0.1928 -0.2001 -0.0368
14576W        W31050   7.976  17.918   3.091 -0.0205  0.3812 -0.0777
14577W        W31051   4.022   3.473   0.904  0.1487 -0.0375  0.0515
14578W        W31052   2.869   7.922  14.815  0.4808  0.2420  0.0874
14579W        W31053  19.329   5.251   4.958  0.1005  0.2811 -0.0404
14580W        W31054   4.993   2.622   2.916  0.0675 -0.1354  0.2961
14581W        W31055   3.605   1.964  13.973 -0.1313  0.7279 -0.1127
14582W        W31056   6.960  11.914  13.884 -0.3446 -0.1995  0.0125
14583W        W31057   7.741  12.093  10.235  0.2313 -0.1931 -0.1200
14584W        W31058  11.039   2.200  14.089 -0.0940  0.4096 -0.2480
14585W        W31059  12.233   4.642   4.288  0.1570 -0.2670  0.1252
14586W        W31060  17.863   1.629  14.410  0.3897 -0.2134 -0.1302
14587W        W31061  17.093   4.715  13.384  0.2014 -0.0896  0.3875
14588W        W31062  15.122   2.853  14.067  0.1994  0.2286 -0.0129
14589W        W31063  11.354   4.948  12.263  0.1420  0.0004 -0.0409
14590W        W31064   3.709   2.407  14.162 -0.2340 -0.0263  0.3044
14591W        W31065  14.979  17.288   0.393  0.0388  0.0368 -0.2941
14592W        W31066   2.525  13.654   5.021  0.1847 -0.1839 -0.2775
14593W        W31067   8.888   1.323  13.965  0.2899 -0.0731  0.2880
14594W        W31068  17.291  16.643   3.071  0.1392  0.1023 -0.4149
14595W        W31069   3.474  10.103   3.205 -0.2375  0.0354 -0.1219
14596W        W31070   0.149   5.608  12.328 -0.1349 -0.0799  0.2507
14597W        W31071  17.929  10.929  13.021 -0.1902 -0.0185 -0.2750
14598W        W31072   7.744  12.513   1.983  0.3653 -0.0796 -0.0187
14599W        W31073  13.871   5.072  10.953 -0.1445 -0.1446 -0.0885
14600W        W31074  17.706   9.260   1.782 -0.0540  0.0850 -0.1441
14601W        W31075   7.391   6.978   9.274 -0.2852  0.2503 -0.3678
14602W        W31076  12.582   5.007  14.560  0.4297 -0.1990 -0.3329
14603W        W31077   3.764   3.918  12.156 -0.1114 -0.2920  0.4284
14604W        W31078  11.497   7.604   4.074 -0.0474  0.0650  0.2813
14605W        W31079   7.461  19.211   0.145 -0.1618  0.1342 -0.1408
14606W        W31080   9.975   8.370   2.692  0.2840 -0.1930  0.0158
14607W        W31081   8.752  13.267  12.018 -0.1724 -0.1021  0.1460
14608W        W31082  10.700   8.034  10.320 -0.0912  0.2772 -0.1254
14609W        W31083  12.767  13.914  13.074 -0.0086  0.0811  0.2547
14610W        W31084  13.553  16.126   3.859  0.4024  0.2026  0.0337
14611W        W31085   1.059  13.455  12.211  0.1346  0.2090 -0.1441
14612W        W31086   4.491   7.704   3.929  0.0072  0.1469  0.1599
14613W        W31087   0.507  17.594  12.927 -0.0481 -0.1588  0.0708
14614W        W31088  19.192  10.065  12.460 -0.2070  0.0865 -0.0422
14615W        W31089   2.157   8.811  14.127  0.2840  0.1929 -0.2025
14616W        W31090   5.290  11.766   3.030  0.1059  0.2302  0.1357
14617W        W31091   2.140  16.750   0.242 -0.1056 -0.1685  0.0091
14618W        W31092  19.033  18.602   4.165  0.1260  0.2391  0.2220
14619W        W31093   7.275   5.898  11.292  0.2584 -0.1061 -0.1782
14620W        W31094   9.981   9.243   2.973  0.0429 -0.1850  0.2741
14621W        W31095   5.077  16.264  11.326  0.0981 -0.4411  0.0253
14622W        W31096  17.532  10.295   3.154  0.3454 -0.3048 -0.1084
14623W        W31097  14.413  17.453  12.508  0.1293  0.1099  0.0626
14624W        W31098  13.098   3.884  14.419 -0.0547  0.1297  0.1572
14625W        W31099  16.737   7.909   4.161 -0.1069  0.1569  0.5786
14626W        W31100   4.481  16.766   9.175 -0.0680  0.3584 -0.3318
14627W        W31101   9.219  11.866   0.547  0.2836  0.0185 -0.2551
14628W        W31102   9.491   9.443   3.212 -0.3086 -0.1103  0.0620
14629W        W31103  15.279  13.951   5.156  0.1711  0.1194 -0.1312
14630W        W31104  15.319  12.501  10.056  0.3540 -0.2092  0.3159
14631W        W31105  12.782  19.374   0.238 -0.0964 -0.1682 -0.2264
14632W        W31106  15.984  10.526  13.311  0.1054 -0.0732 -0.1058
14633W        W31107  14.548   8.508  13.890  0.1690  0.1957 -0.2245
14634W        W31108   3.483  18.658  10.583 -0.1821 -0.0263  0.0876
14635W        W31109   4.063  12.679  11.115  0.0162 -0.1264  0.1447
14636W        W31110  13.550   2.205   5.421  0.0531  0.1447 -0.1037
14637W        W31111  13.377  10.568  14.056  0.1520  0.0708 -0.1616
14638W        W31112   0.183  17.461  13.860 -0.0589 -0.0838  0.5534
14639W        W31113  18.126   6.255   5.142 -0.1468 -0.0613 -0.2037
14640W        W31114  15.268  18.137   3.350  0.1734 -0.0039  0.1190
14641W        W31115  14.769  16.722  11.099 -0.0577 -0.0105 -0.1071
14642W        W31116   4.818   1.787  12.584 -0.2041  0.1045 -0.0967
14643W        W31117  16.175   2.107  12.309  0.0091  0.1487 -0.1420
14644W        W31118  16.957  14.415   5.362  0.1844 -0.1691 -0.1439
14645W        W31119  12.704  18.191   3.698 -0.1063 -0.1661 -0.1245
14646W        W31120   2.964  10.082   3.204  0.2953  0.1818  0.3738
14647W        W31121  16.024   5.174   5.147 -0.3452  0.3024  0.0666
14648W        W31122  17.283   6.497   2.957 -0.0741 -0.0729  0.3700
14649W        W31123   8.826  16.053  13.848  0.0816 -0.0980  0.1554
14650W        W31124   8.859   3.025   0.461 -0.2608 -0.0376  0.1208
14651W        W31125  18.328   5.880   2.335 -0.0675 -0.1189 -0.1163
14652W        W31126  12.697  12.473  12.890  0.2429  0.0400  0.1427
14653W        W31127   0.420   2.862  13.012  0.1894  0.0482  0.0916
14654W        W31128   1.987   1.674   1.796 -0.0550 -0.1513  0.0557
14655W        W31129  17.980  18.575   1.447  0.1916 -0.1708 -0.1628
14656W        W31130   5.082   7.633  13.855 -0.2432  0.0012  0.1661
14657W        W31131  10.551  10.238   2.002 -0.0052 -0.0489 -0.1060
14658W        W31132  11.574  12.150  13.270  0.0695  0.3257  0.0618
14659W        W31133  16.177  15.221  10.664  0.0989  0.2628 -0.1644
14660W        W31134   8.826  10.562  11.798  0.1290 -0.0446  0.1427
14661W        W31135  12.307  11.105   9.952 -0.2735 -0.0117 -0.0767
14662W        W31136  15.811   3.391  14.284  0.2296  0.2068 -0.1810
14663W        W31137  15.222   6.800   3.080 -0.1927 -0.0015 -0.1836
14664W        W31138  18.161  15.236  10.831 -0.3944  0.0849 -0.1179
14665W        W31139   4.988   9.709  13.508 -0.0223 -0.1869 -0.0664
14666W        W31140   7.455  14.450   2.914 -0.1462  0.1990  0.0771
14667W        W31141   1.541   7.244   5.168 -0.1654  0.3956 -0.0161
14668W        W31142  16.348   2.315  13.756 -0.2625  0.3848  0.1822
14669W        W31143  12.967  15.111   2.393  0.1210 -0.2616  0.0710
14670W        W31144   7.152   8.416  12.282 -0.3647  0.2281 -0.1381
14671W        W31145  16.552   3.969  14.002  0.0069  0.1714  0.2341
14672W        W31146  18.355   8.988  12.668  0.2830  0.1393  0.1367
14673W        W31147  12.020  13.035  13.016  0.0588  0.2061 -0.0835
14674W        W31148  10.552  14.001  12.839  0.1168  0.1340  0.0236
14675W        W31149  12.606  14.999   1.228 -0.1976 -0.3392  0.0849
14676W        W31150   6.221  16.787   1.347  0.0330 -0.5326  0.2083
14677W        W31151   3.115   2.388   4.304  0.0561  0.0269 -0.1117
14678W        W31152  12.550  19.047   2.730  0.1408 -0.0642  0.1931
14679W        W31153   5.502   3.926  13.210 -0.0543 -0.0270 -0.1123
14680W        W31154  11.641   6.251   1.860  0.1421 -0.1807  0.2989
14681W        W31155   7.956   3.144   9.927 -0.1361  0.1768 -0.3223
14682W        W31156  12.168  17.413   3.255  0.3276 -0.1587  0.1118
14683W        W31157   2.659   3.971   0.466 -0.0565  0.2244 -0.0164
14684W        W31158  17.047  10.684  13.606 -0.2688 -0.4043  0.1889
14685W        W31159  15.339   6.254   2.964 -0.1551  0.0660  0.3008
14686W        W31160   1.288   3.374  10.988  0.0798 -0.1345 -0.2498
14687W        W31161  10.692   5.448  14.400  0.1125 -0.0402 -0.0481
14688W        W31162  16.329   6.065  12.053 -0.2032 -0.3573  0.1509
14689W        W31163   1.547   4.192  12.301  0.0506  0.1668  0.0795
14690W        W31164  17.424   7.255   4.205 -0.2612 -0.1488  0.2226
14691W        W31165  12.441   0.201   9.642  0.2046 -0.0264 -0.2908
14692W        W31166  17.090   1.931   5.117  0.0352 -0.1628 -0.0787
14693W        W31167   9.587  16.666  12.423 -0.0237 -0.2606  0.0330
14694W        W31168  12.860   4.052  13.949  0.1379  0.1487 -0.2115
14695W        W31169  10.748  18.528  11.621 -0.0226  0.3070 -0.0965
14696W        W31170   8.421  14.727   2.033  0.0521 -0.0335 -0.0680
14697W        W31171   5.315   6.823  11.023 -0.0835 -0.0548 -0.0465
14698W        W31172  13.119   7.044   4.408  0.1858  0.1508 -0.0781
14699W        W31173  13.344   6.944   1.231 -0.0305 -0.1334  0.1228
14700W        W31174   3.829  13.637   1.676 -0.2718  0.1375 -0.0007
14701W        W31175   4.904  11.349   0.184 -0.1665  0.0000  0.1513
14702W        W31176  11.456   1.723   2.794 -0.0026 -0.2489  0.2681
14703W        W31177   4.567  16.034   3.190  0.1131  0.0302  0.0517
14704W        W31178  10.064   0.423  10.338  0.0755 -0.2051 -0.2547
14705W        W31179  10.166  17.947   1.953 -0.1600  0.1316  0.1298
14706W        W31180  19.262   5.087   0.594  0.2410 -0.3644 -0.2765
14707W        W31181   5.765   9.586   0.416  0.2859  0.1270 -0.0354
14708W        W31182   7.984  13.886   4.769  0.4319 -0.2291 -0.0648
14709W        W31183   1.146   4.559   3.960 -0.0713  0.1122  0.0509
14710W        W31184   7.217  10.773  10.725  0.1972  0.1880  0.0470
14711W        W31185   8.252   5.249   1.338  0.1316 -0.0311 -0.1003
14712W        W31186  17.985   8.309   2.895  0.1887 -0.2504  0.0446
14713W        W31187   0.501  11.851  11.268  0.0647  0.0199  0.1828
14714W        W31188   2.876  19.373   4.090  0.0422  0.3070 -0.2160
14715W        W31189  15.329   9.330   3.366 -0.0288  0.3502  0.0371
14716W        W31190  11.925   5.054  12.379  0.0124 -0.0484 -0.0908
14717W        W31191  15.771  14.437   4.321 -0.3727  0.2480  0.2204
14718W        W31192  18.393   5.410   2.541 -0.1441 -0.1557 -0.0743
14719W        W31193  15.113   8.043   3.008  0.2204 -0.0362 -0.1448
14720W        W31194   2.535   6.359   9.987 -0.0564 -0.2086  0.0332
14721W        W31195   6.914  14.935   1.656 -0.0555  0.3050 -0.1841
14722W        W31196  18.593  14.583  14.410  0.0009 -0.0264 -0.1533
14723W        W31197  13.236  14.806  12.001  0.1787  0.1154 -0.1963
14724W        W31198   7.690  16.061  11.168  0.1444  0.2177 -0.0339
14725W        W31199  16.564  15.559  10.547 -0.2327  0.0236  0.0584
14726W        W31200   1.331  17.864  11.436  0.1243 -0.0265 -0.2713
14727W        W31201   3.156   3.242  14.345  0.0296 -0.1858 -0.1954
14728W        W31202   1.224   4.546   0.404 -0.1270 -0.1573 -0.1053
14729W        W31203  17.519  13.067  11.924  0.1177 -0.4989  0.0801
14730W        W31204   5.315   9.794   3.144  0.2285  0.0942 -0.0335
14731W        W31205  17.293   6.420  13.495  0.1221  0.3935 -0.0253
14732W        W31206  17.840   6.564   4.897  0.3369 -0.2198  0.2580
14733W        W31207  18.152  15.525  11.741  0.0625 -0.2810 -0.1061
14734W        W31208   8.105   0.776   2.321 -0.0655  0.0672  0.0370
14735W        W31209   1.491  13.591   2.772 -0.0312  0.2607 -0.0953
14736W        W31210   0.811  16.775  14.271 -0.0218  0.1320  0.0545
14737W        W31211   3.772   5.047   1.241 -0.0155 -0.0899  0.4210
14738W        W31212  14.615   7.557  14.801  0.1087 -0.1839 -0.3400
14739W        W31213   6.049   5.298  11.402  0.1739 -0.3670  0.0071
14740W        W31214   0.559  12.017   4.301  0.1280  0.1479  0.0687
14741W        W31215  16.891  11.364   1.703 -0.0180 -0.0901  0.1700
14742W        W31216   7.174  13.766  10.762  0.0275  0.0801  0.0964
14743W        W31217   8.791  16.314   2.908 -0.0422  0.0582  0.2150
14744W        W31218  10.452  19.236   0.990 -0.3222 -0.1026  0.0016
14745W        W31219  15.123  17.654   3.474 -0.1064 -0.2986  0.1280
14746W        W31220   8.969  12.842   3.242 -0.1326 -0.0982 -0.3427
14747W        W31221   7.601   7.248  10.100  0.2172 -0.2546  0.0726
14748W        W31222  15.455   7.970   0.696  0.0770  0.1080  0.3441
14749W        W31223   1.214   3.528   0.278 -0.3004  0.2608  0.0007
14750W        W31224  14.031   6.745  10.858 -0.0370  0.2133  0.4318
14751W        W31225   9.772   9.718   2.827  0.1127 -0.1244  0.0114
14752W        W31226   9.349  13.994   0.036  0.2446  0.1402  0.1000
14753W        W31227   3.097   2.733  10.557  0.4669  0.2156  0.1277
14754W        W31228   7.920  17.244   3.860 -0.2278  0.0756  0.1142
14755W        W31229   9.387   8.984   4.005  0.2222 -0.3236  0.1203
14756W        W31230  12.230   6.725   0.316  0.1655 -0.2358  0.0628
14757W        W31231   0.873   9.972  13.037  0.1883  0.5066  0.2004
14758W        W31232  18.157   6.362   0.409  0.1584 -0.1558 -0.2593
14759W        W31233   1.351  19.238   1.003  0.3025 -0.1794 -0.1390
14760W        W31234  15.626   2.323   5.183  0.2861  0.3427  0.3046
14761W        W31235  16.149   5.221  14.771 -0.0677 -0.4550  0.2823
14762W        W31236   8.935   3.210   1.407  0.2904 -0.3946 -0.1173
14763W        W31237  18.175  15.630   5.139 -0.0935 -0.0042  0.1069
14764W        W31238  13.149   7.143   2.673 -0.1215  0.1987 -0.2738
14765W        W31239   4.183   1.242  13.788 -0.1319 -0.1712  0.0435
14766W        W31240   9.962   6.388   3.047  0.0525 -0.2672 -0.3489
14767W        W31241  13.005  18.354   1.147  0.0861  0.3202 -0.1342
14768W        W31242  16.487  10.468  10.697  0.4114 -0.1791  0.2422
14769W        W31243  11.459   5.552   0.757  0.0991 -0.0009  0.1169
14770W        W31244  10.115  19.019  11.172 -0.1305 -0.1176 -0.1963
14771W        W31245   3.540  14.200   1.108 -0.4559 -0.1017 -0.0732
14772W        W31246   0.567  14.723   3.246 -0.3304 -0.1733  0.0604
14773W        W31247   5.504  17.974   3.852  0.3481  0.0446 -0.1863
14774W        W31248  12.607  12.688   0.736  0.0864 -0.0690 -0.2351
14775W        W31249  14.501   0.361  12.850 -0.2025 -0.2688 -0.3256
14776W        W31250   5.853  12.336   5.175  0.1046  0.0542 -0.1281
14777W        W31251   9.656  12.615  10.531  0.2911  0.1642 -0.2436
14778W        W31252  18.276   3.141   1.910 -0.1837  0.3241 -0.3272
14779W        W31253  16.767  12.912  13.984  0.0721 -0.1794  0.0861
14780W        W31254   3.965  17.273  11.302 -0.0023  0.3910 -0.0564
14781W        W31255   2.072  17.296  14.684  0.0796  0.3290 -0.3099
14782W        W31256   2.671   1.934  12.710  0.2640 -0.2327 -0.1710
14783W        W31257   4.174  17.160   2.199 -0.3262 -0.1071  0.2455
14784W        W31258  12.066   7.622   0.462 -0.0960 -0.0667  0.0095
14785W        W31259  12.427  10.878  10.440 -0.0842  0.1316 -0.0993
14786W        W31260   9.407  11.373   2.219 -0.2095  0.1948  0.0566
14787W        W31261   3.314  15.963   3.789 -0.0207 -0.0835  0.1214
14788W        W31262  15.523  11.826  12.406  0.0507  0.1156 -0.2645
14789W        W31263  14.117  17.963   2.073  0.4359  0.2572 -0.1533
14790W        W31264  17.697  18.832   0.899  0.1652 -0.2933  0.0073
14791W        W31265   0.467   6.376   4.401  0.1578 -0.1118 -0.0831
14792W        W31266   2.517  14.729  13.281  0.2457 -0.1163 -0.3604
14793W        W31267  16.311   4.392   3.641 -0.1954 -0.0495 -0.3335
14794W        W31268  18.578   7.698   0.043  0.1665 -0.1879 -0.1564
14795W        W31269   1.685  18.466  10.776 -0.1291  0.2495  0.2426
14796W        W31270   2.765  18.167  10.050 -0.0092  0.1180 -0.1645
14797W        W31271   1.868   1.172   4.559  0.2368 -0.0394 -0.3767
14798W        W31272   9.780  16.539  14.786 -0.1053  0.0986  0.2641
14799W        W31273  15.986   6.574   9.592  0.0053  0.2417  0.0813
14800W        W31274  10.848   5.992   2.018  0.2534 -0.2109 -0.1666
14801W        W31275   2.258   4.446  13.159  0.0419 -0.0570  0.0837
14802W        W31276   0.463   9.702  12.880 -0.0995 -0.2359 -0.2487
14803W        W31277   7.786   1.133  12.300 -0.0904  0.2246 -0.2003
14804W        W31278   7.573  10.064  13.567  0.4651 -0.0892 -0.3246
14805W        W31279   8.997  11.217   1.972  0.2595  0.2216  0.0915
14806W        W31280  14.976  14.509  13.870 -0.0707 -0.0766 -0.0354
14807W        W31281   9.570  12.320   3.693  0.3484  0.1954 -0.2184
14808W        W31282   6.896  15.380   1.462  0.0258  0.0387 -0.2057
14809W        W31283   0.943   8.575   1.326 -0.2909 -0.2140 -0.1725
14810W        W31284  12.752   8.121   2.132  0.1095 -0.2058 -0.1580
14811W        W31285  18.674   6.988  11.835  0.0470  0.0227  0.0760
14812W        W31286  12.347   6.888   3.107 -0.2071 -0.2454 -0.1724
14813W        W31287   9.032   8.298   0.446 -0.1787  0.0869  0.1945
14814W        W31288  11.014  16.961  13.617  0.0927 -0.0519 -0.1048
14815W        W31289   8.070   1.550   0.113 -0.0500 -0.0450 -0.1069
14816W        W31290  11.197  15.782  14.185  0.2416  0.0510  0.0086
14817W        W31291   4.861   7.638   2.212 -0.2088 -0.1494 -0.4432
14818W        W31292  14.202  13.498   1.123  0.1426  0.1397  0.2471
14819W        W31293   8.844  19.139  11.487 -0.0617 -0.0994 -0.1054
14820W        W31294  12.842   6.145  13.986  0.2457  0.0550 -0.0788
14821W        W31295  13.579   6.608  11.633  0.0487 -0.2097  0.3882
14822W        W31296   9.154   5.940  10.046  0.0714  0.0989  0.0709
14823W        W31297   8.074  11.475   4.676  0.1516  0.0935  0.1727
14824W        W31298  11.812   1.331   2.578  0.0823  0.0705 -0.2861
14825W        W31299  16.240   0.721   1.321  0.0849  0.1173  0.0252
14826W        W31300   8.752   1.222  11.309  0.0176 -0.0847  0.2137
14827W        W31301   2.457   4.612   2.832  0.0782 -0.4493  0.0590
14828W        W31302   9.194   3.270  13.061  0.0185 -0.0063 -0.1098
14829W        W31303   8.420  10.792  11.584  0.0319  0.0288  0.4123
14830W        W31304   7.284   2.035  10.764  0.0382 -0.1306  0.0532
14831W        W31305   7.388  17.735   4.714 -0.1555  0.2471  0.0990
14832W        W31306   0.058  10.920  12.473  0.1999 -0.0928 -0.0041
14833W        W31307  15.039   3.671   5.767 -0.1282 -0.2018 -0.0150
14834W        W31308   7.100  19.139   1.545 -0.3929  0.1584  0.2314
14835W        W31309   1.938  10.650  11.970 -0.1800  0.3529 -0.0372
14836W        W31310   4.133   8.247  11.269  0.0995  0.0952 -0.1597
14837W        W31311   6.372   9.064  11.520  0.0010 -0.1508  0.2873
14838W        W31312  18.340   4.801  13.987 -0.0308 -0.1184 -0.1163
14839W        W31313  16.831   9.036  12.081  0.1291  0.0112 -0.1234
14840W        W31314   5.058  12.304   1.370 -0.0599 -0.2130 -0.1315
14841W        W31315   1.938   5.369   3.437 -0.1129  0.2119  0.1289
14842W        W31316   3.563   8.427  14.561  0.1941 -0.0781 -0.0734
14843W        W31317   4.531  16.953  14.573  0.2034  0.2381  0.1629
14844W        W31318   5.310   5.554  10.990  0.1542 -0.3989 -0.1308
14845W        W31319  14.496   5.594   9.919  0.0138  0.0985 -0.1233
14846W        W31320  18.280  13.678  14.458  0.1065 -0.2041 -0.0069
14847W        W31321   6.440   6.133  10.654  0.1963 -0.0115 -0.1151
14848W        W31322  13.843   3.030  12.368 -0.0443  0.1435 -0.1080
14849W        W31323   1.931  18.530   5.379 -0.3168  0.1035 -0.0077
14850W        W31324  15.528  12.081  14.630  0.1047  0.0685  0.2021
14851W        W31325  15.287   6.455   3.450 -0.2827  0.0247 -0.3451
14852W        W31326  19.119   3.877   4.036  0.0277  0.1631  0.1303
14853W        W31327   4.065   2.226   0.123 -0.2500  0.1111  0.3015
14854W        W31328  10.372   2.484   2.140  0.3729 -0.1927  0.0247
14855W        W31329  17.549  11.371  14.299  0.0097 -0.0107  0.0468
14856W        W31330  11.208  18.776   3.725  0.2140  0.1145 -0.1321
14857W        W31331  12.070   1.006  12.202  0.2059 -0.1290  0.1121
14858W        W31332   7.904   4.683  13.202  0.4021  0.1476 -0.0741
14859W        W31333   5.641   3.322   1.013  0.3837 -0.2608  0.6981
14860W        W31334  18.724  15.978   1.187 -0.5788 -0.2883 -0.0883
14861W        W31335   7.827  17.800  11.201  0.1160  0.0520  0.1124
14862W        W31336  13.449  12.000   2.740 -0.0461 -0.0059  0.1523
14863W        W31337   2.386  16.660   2.294 -0.0535  0.1208 -0.0041
14864W        W31338   1.696  12.323  14.328 -0.4206 -0.2076  0.0309
14865W        W31339   9.329  16.809   4.036  0.2749  0.1299  0.0241
14866W        W31340   2.961  10.770  12.360 -0.1135 -0.1801  0.0680
14867W        W31341  15.087  13.924  11.460 -0.1434 -0.0287 -0.1693
14868W        W31342  13.719  18.512  12.964  0.1608 -0.2570  0.3658
14869W        W31343   1.672  19.379   0.499  0.0557 -0.0412  0.1139
14870W        W31344   3.126  15.764   3.360 -0.0235  0.0819  0.2121
14871W        W31345   5.074   3.458  13.988  0.2045  0.0854 -0.0050
14872W        W31346   6.363   0.471   4.251  0.2064 -0.1163  0.5498
14873W        W31347   2.625  12.938   0.917  0.0522 -0.0733 -0.1639
14874W        W31348   9.792  16.995  13.744 -0.0860  0.3044 -0.3417
14875W        W31349   7.215  19.054   2.927  0.3211  0.3832  0.0933
14876W        W31350  17.516  10.894   9.497  0.3241 -0.0027  0.0792
14877W        W31351   3.386  10.254   0.576 -0.2895  0.2165  0.1348
14878W        W31352   6.634   2.996   9.748  0.0343  0.3239  0.3832
14879W        W31353  16.734   2.148  12.499  0.0892  0.3436 -0.1770
14880W        W31354   1.300  17.008   0.014 -0.2816 -0.0778  0.1575
14881W        W31355  18.568   0.177  14.372  0.0028  0.1090 -0.0970
14882W        W31356   4.096  15.839   2.035  0.1088  0.2963  0.3003
14883W        W31357   3.635  12.714   2.923 -0.2386 -0.1310  0.2000
14884W        W31358   7.925   5.873   3.087  0.0567 -0.0634 -0.3569
14885W        W31359   7.334   6.387   1.609  0.0171 -0.2018  0.1395
14886W        W31360   7.609   7.547   9.620 -0.1674 -0.0536  0.0896
14887W        W31361  15.656   1.539   4.323  0.1317  0.0976  0.0949
14888W        W31362   9.538   0.681   3.291 -0.1898 -0.1650 -0.0593
14889W        W31363   3.472   4.991   0.803  0.0785  0.0008  0.1185
14890W        W31364  13.859   2.223   4.612  0.0723 -0.0554 -0.1404
14891W        W31365  17.974  13.656   5.951 -0.0084  0.1872  0.1913
14892W        W31366  17.795  13.577   3.042  0.1512 -0.5048 -0.2044
14893W        W31367   6.780   8.785   1.598  0.1492 -0.1592  0.1982
14894W        W31368   7.754  15.979   4.148  0.1116  0.0169 -0.0488
14895W        W31369   1.507  16.830  13.018  0.2734 -0.1741  0.2628
14896W        W31370  17.687  12.165  11.891  0.2091 -0.0303  0.2017
14897W        W31371  16.164   4.932  13.803  0.0414  0.1881 -0.0788
14898W        W31372   8.638   9.060   0.628  0.0194 -0.2389  0.0986
14899W        W31373  18.023  11.084   2.526  0.0735  0.1280 -0.2972
14900W        W31374  18.670   1.460   4.469  0.0507 -0.1248 -0.3875
14901W        W31375   8.578   8.171  11.865 -0.0914  0.0433 -0.0061
14902W        W31376  12.816   2.628   9.871  0.0578  0.1937 -0.3362
14903W        W31377  15.842   9.877   3.628  0.6343  0.2345  0.1565
14904W        W31378   7.376   1.371  12.039 -0.0236 -0.0545  0.1420
14905W        W31379  18.777  12.105   4.672 -0.0215 -0.1502 -0.2506
14906W        W31380  18.080   8.254   2.131  0.0888 -0.3295 -0.0815
14907W        W31381  16.760   1.619  12.792 -0.2922 -0.3530 -0.1172
14908W        W31382   1.062   6.345   1.035 -0.0545 -0.4577  0.1030
14909W        W31383   3.224  14.831   3.824 -0.0460 -0.1805  0.1758
14910W        W31384  15.327   6.767  10.005  0.1534 -0.0838  0.3511
14911W        W31385   7.117  15.534   9.949 -0.2109 -0.0813  0.1865
14912W        W31386   7.751   6.908   2.239 -0.1362  0.0435  0.0909
14913W        W31387   9.209   5.690  14.797 -0.1802 -0.1102  0.5311
14914W        W31388  10.720   1.444  11.397 -0.2202  0.1825  0.2826
14915W        W31389  19.329   0.529   2.735  0.1205 -0.0707  0.2481
14916W        W31390   2.110  11.660  12.039 -0.0187 -0.1007 -0.2041
14917W        W31391   8.478  12.681  11.656 -0.1281 -0.0737 -0.0989
14918W        W31392  11.209   9.842  13.521  0.0067  0.3768 -0.0974
14919W        W31393   9.067   2.691   9.190  0.1277  0.0448 -0.1403
14920W        W31394  11.959   7.167   0.289 -0.1046 -0.1708  0.0971
14921W        W31395   6.339   6.077  12.572 -0.0595 -0.0065  0.0750
14922W        W31396   8.864   9.468  11.374 -0.1239  0.3113  0.0390
14923W        W31397   8.882   0.705   1.121 -0.3787  0.2626 -0.0894
14924W        W31398  11.455  18.150  10.678 -0.2406  0.1744  0.1562
14925W        W31399   2.355   5.905   3.087 -0.1184  0.4161  0.0125
14926W        W31400  18.756  16.977  13.594 -0.0922 -0.2053  0.0187
14927W        W31401  14.610  17.717  13.555  0.0729 -0.1600 -0.1013
14928W        W31402  16.963   6.235  14.556 -0.2309  0.0365 -0.1121
14929W        W31403   2.676  14.751   0.316 -0.0205  0.0629  0.0716
14930W        W31404  18.473   8.167   0.226 -0.1521 -0.2056  0.4606
14931W        W31405  17.333  11.462   5.767  0.0460  0.0361  0.0860
14932W        W31406   9.312  16.007   3.225 -0.1480  0.0663  0.0678
14933W        W31407   1.531   3.033  14.491 -0.2647 -0.2561  0.1421
14934W        W31408  18.105   4.286  13.208 -0.0477 -0.1689  0.0122
14935W        W31409  10.597  18.395   1.054  0.1333 -0.0217  0.0186
14936W        W31410   0.985   5.358  10.699  0.0512  0.0617  0.1698
14937W        W31411  16.105  19.311   5.428 -0.1557  0.2714  0.2133
14938W        W31412  18.960  14.864  11.188 -0.0256 -0.2004 -0.2681
14939W        W31413   3.623   3.233  13.654 -0.2071  0.0350 -0.3005
14940W        W31414   2.765  15.825  11.491 -0.1673  0.1668  0.0132
14941W        W31415   4.627  14.114  13.768 -0.1268 -0.1546 -0.1538
14942W        W31416   6.938   9.150  12.268  0.1111  0.0261  0.1317
14943W        W31417   9.291   2.260  11.182  0.1881  0.2293  0.1093
14944W        W31418   6.931   4.570   1.364 -0.3283  0.4191 -0.0117
14945W        W31419  13.949   8.953   4.221  0.1314 -0.1068 -0.2315
14946W        W31420   5.754   9.678  10.965  0.1088 -0.2546 -0.1738
14947W        W31421  18.885   9.407  12.232 -0.1181 -0.1880  0.0953
14948W        W31422   7.297   4.674   3.949  0.1629 -0.0895 -0.0501
14949W        W31423  14.924   4.869   1.004 -0.3376 -0.1758  0.0252
14950W        W31424  15.276   5.927  12.303 -0.0315  0.2520  0.2253
14951W        W31425   4.120   0.872   3.754  0.1453 -0.1385 -0.0625
14952W        W31426   1.112  10.853   4.020  0.3386 -0.0661 -0.2241
14953W        W31427  15.901   6.568   2.097  0.0773  0.1688  0.0726
14954W        W31428  10.689   2.527   5.316  0.0349  0.0232  0.1580
14955W        W31429  17.385   0.591   2.411  0.2358  0.0477  0.0681
14956W        W31430   7.329   4.032   3.059  0.0439  0.4638  0.2690
14957W        W31431  12.480   1.457   0.959  0.0005 -0.2035  0.2862
14958W        W31432  12.388  19.097  14.237  0.2555 -0.3872 -0.0130
14959W        W31433  10.340  13.972  11.006 -0.3064 -0.3065  0.0915
14960W        W31434   9.770  16.458  10.774  0.0944  0.2436 -0.1796
14961W        W31435  19.069   0.240   3.503 -0.0781 -0.4426  0.1267
14962W        W31436  18.467  12.048   3.526 -0.0293  0.1924  0.5282
14963W        W31437   2.564  14.967  11.557  0.0860  0.1502  0.3233
14964W        W31438   0.434   6.440  12.145  0.3529  0.5030  0.1659
14965W        W31439   6.821   3.605  12.272  0.1018  0.4818 -0.1033
14966W        W31440  10.856  16.669  13.949  0.2141 -0.0313 -0.2133
14967W        W31441  15.610   7.412  14.693 -0.1678 -0.3546 -0.2291
14968W        W31442   1.103  13.727   3.056  0.0003 -0.0486  0.1215
14969W        W31443   2.979  15.043  11.858 -0.1327 -0.0676 -0.1084
14970W        W31444   1.172  17.799   1.890 -0.5515 -0.2754  0.3731
14971W        W31445   8.073   1.845  11.044 -0.0820 -0.3171 -0.2743
14972W        W31446   1.642   8.831   3.624 -0.5149  0.1035  0.0151
14973W        W31447  11.698  14.576   3.385  0.2296  0.0206 -0.1153
14974W        W31448  18.540   6.036  10.743 -0.0619 -0.0020 -0.1184
14975W        W31449   4.095   2.244  13.952 -0.3093 -0.1609 -0.0258
14976W        W31450   9.612   7.508   1.774  0.0936  0.2318  0.0597
14977W        W31451  14.446   4.359   3.771 -0.2184 -0.0377 -0.0080
14978W        W31452  13.671   9.621  12.738 -0.2418 -0.1045 -0.1320
14979W        W31453  15.591   5.289  10.348 -0.0321  0.1208 -0.0363
14980W        W31454   2.647  17.276  14.474 -0.2232 -0.0848 -0.2873
14981W        W31455   7.246   3.504   3.101  0.0434  0.0098 -0.0072
14982W        W31456   8.452  12.569   5.254 -0.2200 -0.0848 -0.4488
14983W        W31457   4.306   7.266  13.322  0.4368  0.0495  0.4132
14984W        W31458  10.187   0.073   0.648  0.1467 -0.2117  0.0041
14985W        W31459  15.949   5.171  10.898 -0.1597 -0.1145 -0.2451
14986W        W31460  15.238   6.116   0.419  0.0508 -0.0004  0.2702
14987W        W31461  16.056  15.176   4.877 -0.0546  0.2195  0.1358
14988W        W31462   8.380   9.623  10.406 -0.1018  0.2085 -0.1478
14989W        W31463  11.957   0.046   4.770  0.0456 -0.1188  0.2348
14990W        W31464   3.932  14.462   2.691  0.1939  0.1554 -0.1977
14991W        W31465  16.633   0.869   2.343  0.0521  0.2035 -0.1517
14992W        W31466  18.976   2.271  13.299  0.0280 -0.1575  0.0239
14993W        W31467   6.478   0.992  13.389 -0.3953 -0.1410  0.3753
14994W        W31468  15.502   6.315  11.653  0.1252 -0.0640 -0.1345
14995W        W31469   7.173  11.474  13.953  0.2083  0.2953 -0.0996
14996W        W31470   2.684   9.694   0.179 -0.0916 -0.1059  0.0668
14997W        W31471  12.990   7.670  11.162  0.3334  0.2974 -0.2119
14998W        W31472   1.432  16.354  13.012 -0.2517 -0.2276 -0.4756
14999W        W31473  18.890  11.613   5.057 -0.3415 -0.2362 -0.1462
15000W        W31474   3.253   2.202  11.195  0.0220  0.1266 -0.3255
15001W        W31475  13.848   9.088  12.801  0.0508  0.4549  0.5064
15002W        W31476  14.835  11.398  11.814 -0.0920 -0.1039  0.0837
15003W        W31477   5.770   1.800   3.740  0.0580  0.3574 -0.0495
15004W        W31478   6.817   3.077   1.603  0.2050  0.2341  0.0825
15005W        W31479  17.347  19.129  10.509  0.2075  0.1019 -0.3492
15006W        W31480   5.855  16.623   3.631 -0.1438 -0.2811  0.2465
15007W        W31481  16.736  14.255   3.978  0.1581 -0.2231  0.1062
15008W        W31482  13.953   4.255   4.419 -0.1111 -0.4054 -0.1014
15009W        W31483  14.427   7.902  12.590 -0.0191  0.1975  0.4561
15010W        W31484   8.593   9.549   4.180  0.2640  0.0352 -0.1117
15011W        W31485   9.986  14.927  13.088 -0.3847  0.2863 -0.1687
15012W        W31486   6.546   9.478   0.599 -0.0702  0.2044 -0.0426
15013W        W31487   6.599   0.671  13.811  0.0238  0.0654 -0.3868
15014W        W31488  18.832  17.003  13.086 -0.0365 -0.0372 -0.0071
15015W        W31489  14.356  10.710   0.012 -0.0727  0.0571 -0.1074
15016W        W31490   4.919  15.482   5.086  0.0354 -0.0838 -0.0724
15017W        W31491  18.429  12.826   4.870  0.1354 -0.0239 -0.0280
15018W        W31492   2.094   6.227  14.371  0.0920  0.0450  0.0685
15019W        W31493   2.514  12.432   0.927  0.2248  0.1361  0.1700
15020W        W31494  11.306  10.664   0.411 -0.0397 -0.0281 -0.3584
15021W        W31495   6.197  12.439   4.831  0.0658 -0.0324  0.0058
15022W        W31496  14.916   8.783  12.084 -0.1781 -0.0721 -0.0578
15023W        W31497   5.060   1.601  12.101  0.4437 -0.0270  0.0862
15024W        W31498   1.825  10.867  10.972 -0.2006 -0.0753  0.0628
15025W        W31499  13.834   7.869  14.600  0.0935  0.0215  0.0654
15026W        W31500  18.547  11.026  13.315 -0.1117  0.1468 -0.1459
15027W        W31501  16.261  18.853   0.779 -0.0513  0.0772 -0.0449
15028W        W31502   2.524  10.479   4.095  0.0829 -0.1448 -0.1416
15029W        W31503  14.262  13.503   4.679  0.1365 -0.1164 -0.2132
15030W        W31504   9.874   8.653   0.150  0.0603  0.0938  0.4371
15031W        W31505   2.039  11.629   4.774  0.2364  0.2348  0.0087
15032W        W31506   4.766  13.828   9.820  0.0205  0.3744  0.1759
15033W        W31507  17.369  13.999   1.721  0.2840  0.0919 -0.0321
15034W        W31508  13.864   3.640   1.862 -0.3086  0.1376  0.0393
15035W        W31509   6.515   8.145   1.526  0.1961 -0.2068  0.0759
15036W        W31510  11.157   8.750  12.420 -0.3324  0.0256  0.0001
15037W        W31511   9.154  18.803   5.186  0.0021 -0.0166  0.1541
15038W        W31512  14.564  12.891  13.964  0.0345 -0.1607  0.0803
15039W        W31513   7.030   7.719   2.656 -0.3622 -0.1532  0.5194
15040W        W31514  14.142  11.228   1.386 -0.3725  0.1252  0.2126
15041W        W31515  18.033  14.838   5.715  0.1246 -0.1969 -0.0979
15042W        W31516   7.857   1.131   3.241 -0.1578  0.2252  0.1751
15043W        W31517  17.715  16.954  10.580 -0.1781  0.0275  0.1213
15044W        W31518  13.920   1.525   3.072 -0.0910  0.0930  0.1491
15045W        W31519   0.048  16.162   3.009  0.1258 -0.0890  0.3202
15046W        W31520  12.828  17.980  14.784 -0.0790 -0.1964 -0.0054
15047W        W31521   1.539  14.257   2.442 -0.2085  0.2489  0.0748
15048W        W31522  12.350  18.752   2.264 -0.1094 -0.2107 -0.0814
15049W        W31523   8.395   7.265   1.146 -0.1373  0.1108 -0.0592
15050W        W31524  17.739  10.393  12.175  0.1922 -0.0604 -0.0493
15051W        W31525   9.612  15.777   4.916 -0.0005 -0.0356 -0.1817
15052W        W31526  12.182   9.253  12.248  0.0871 -0.0226 -0.1876
15053W        W31527   4.442  13.739   2.224 -0.0284  0.1151 -0.0020
15054W        W31528  17.861  17.680   3.727  0.0816  0.2368 -0.0929
15055W        W31529  14.981  18.379   4.241  0.0788  0.3327 -0.3614
15056W        W31530  12.468   1.106  11.032 -0.3289 -0.1705  0.0573
15057W        W31531  18.638  10.232  11.699 -0.1377 -0.2485 -0.1727
15058W        W31532   6.104  17.969  11.713  0.3921 -0.0593 -0.4827
15059W        W31533  18.260   8.147  11.371  0.0772 -0.1392 -0.0525
15060W        W31534  12.229  18.912   3.940  0.3197 -0.0184  0.2374
15061W        W31535  10.988  16.969   4.072  0.1649  0.2638 -0.1193
15062W        W31536   9.484  15.161  12.937  0.5491  0.0680 -0.1505
15063W        W31537   3.171   0.575  14.502 -0.0150  0.2120  0.1618
15064W        W31538  18.995  10.500   4.053 -0.4955  0.1607  0.2813
15065W        W31539   5.673  17.752  13.733  0.0828  0.0938 -0.0312
15066W        W31540   4.770   4.108  12.866  0.0474  0.1532  0.2958
15067W        W31541  16.708   5.595   2.813  0.1986 -0.1393 -0.0033
15068W        W31542   5.529   9.355  12.443 -0.1028 -0.0228 -0.0498
15069W        W31543   4.464   4.201   0.806  0.2880 -0.0842  0.0647
15070W        W31544   5.490  10.669  12.444 -0.3284 -0.1377 -0.2616
15071W        W31545   5.696   5.681  14.202 -0.1166 -0.0559  0.1622
15072W        W31546  12.586  10.533  13.851 -0.1400 -0.1626  0.1644
15073W        W31547   2.020   9.675  10.624 -0.0989 -0.0139 -0.6190
15074W        W31548   6.495  14.403  14.760 -0.0135  0.0808 -0.0094
15075W        W31549   8.073  14.570  12.823 -0.0784 -0.3329  0.2007
15076W        W31550   2.920   7.527  10.578  0.0550 -0.3370  0.1956
15077W        W31551   9.583  14.806  14.293  0.1459  0.2642 -0.0109
15078W        W31552  15.373  11.028  10.060  0.1087 -0.0897  0.2419
15079W        W31553   0.945   0.358   2.566 -0.2803 -0.2421  0.0068
15080W        W31554   2.197   8.145   0.041  0.0533 -0.2166 -0.1177
15081W        W31555  19.082   1.549   3.119 -0.1942 -0.2894 -0.0738
15082W        W31556  11.928   3.437  10.211  0.0832 -0.1968  0.3071
15083W        W31557  18.899  18.292  13.939 -0.2666 -0.0937 -0.0516
15084W        W31558  15.080  10.562  12.298  0.2756  0.1097  0.0296
15085W        W31559  14.974   8.428   1.249 -0.2371  0.0297 -0.1691
15086W        W31560   7.874   6.499  10.257  0.0896 -0.0801 -0.0584
15087W        W31561   6.283   4.739  14.098 -0.5909 -0.2337 -0.1783
15088W        W31562   5.181  18.132  12.171  0.0840 -0.2780  0.0745
15089W        W31563  14.123   5.252   3.223 -0.2777  0.1707 -0.0619
15090W        W31564  17.290   2.371  13.057  0.0442  0.2335 -0.2057
15091W        W31565  16.150   7.663  10.568  0.1081 -0.1681  0.0867
15092W        W31566   3.118   2.534   3.086  0.1154 -0.1330  0.0527
15093W        W31567   1.166   1.534  14.318  0.3471 -0.1050 -0.1513
15094W        W31568   5.170  15.790   4.037  0.1272 -0.1068  0.1785
15095W        W31569   7.952   4.069   0.781  0.4410  0.2368 -0.2060
15096W        W31570  16.825  17.560  14.499 -0.2445  0.0983 -0.0743
15097W        W31571   5.920  10.419   1.592  0.0906 -0.0782 -0.0997
15098W        W31572   8.198  12.900   0.117 -0.0513  0.3080  0.2070
15099W        W31573  17.573   5.479  13.825 -0.1524 -0.1867 -0.1288
15100W        W31574  14.000  13.016   2.927 -0.0178 -0.2407 -0.1498
15101W        W31575  15.478   8.908   4.873 -0.0750 -0.0549 -0.1161
15102W        W31576   5.808  18.396   1.872 -0.0752 -0.1126 -0.2409
15103W        W31577   1.740  17.770  14.567 -0.0503 -0.2296 -0.2541
15104W        W31578  15.367  19.238   9.573 -0.1745  0.0334 -0.0660
15105W        W31579   9.202   3.301  14.579  0.5129 -0.1759 -0.0287
15106W        W31580  15.758  15.511  11.801  0.1113 -0.0980  0.5635
15107W        W31581  18.564   5.968  12.299 -0.1412 -0.1227  0.0263
15108W        W31582   5.124  14.840  13.381  0.0593  0.0385 -0.0464
15109W        W31583   5.303  13.067   4.166 -0.0362  0.2095  0.0460
15110W        W31584  13.770  16.394   2.324  0.2783 -0.1333  0.1268
15111W        W31585   4.154   9.926  11.770 -0.2309  0.3991  0.1506
15112W        W31586  12.285  10.680  12.562  0.5986 -0.1677  0.1107
15113W        W31587  12.584   4.472   2.402 -0.1146 -0.1625 -0.2461
15114W        W31588   2.218   4.367   3.252  0.1910 -0.2470  0.1134
15115W        W31589   0.805  11.220  10.334 -0.0841  0.1888 -0.0177
15116W        W31590   1.681  16.070   2.268 -0.0673  0.1926  0.2506
15117W        W31591  16.233  12.933   3.476  0.0533 -0.0770 -0.2484
15118W        W31592   7.245  14.248  13.865 -0.1978  0.0013  0.2756
15119W        W31593   2.386  15.752  14.254  0.0136 -0.1838 -0.0582
15120W        W31594   4.197   6.000  13.805  0.2571  0.3982  0.0606
15121W        W31595   4.839   4.963  13.319  0.1585  0.1957  0.0815
15122W        W31596   6.236   5.789   0.824  0.2328 -0.1082  0.0640
15123W        W31597   0.174  15.273   4.466 -0.2419  0.1452 -0.2437
15124W        W31598   4.717   1.050   2.504  0.0428 -0.0399 -0.2365
15125W        W31599   3.870  13.894  12.307 -0.3504 -0.1411 -0.1960
15126W        W31600   3.362  17.692  11.758 -0.2557  0.1707  0.1438
15127W        W31601   2.049   5.216   0.687 -0.1400 -0.1730 -0.1578
15128W        W31602  14.239   4.250  13.919 -0.3114  0.0772 -0.3332
15129W        W31603   2.985   4.240  10.306  0.1461  0.0868  0.0646
15130W        W31604   7.394   6.792   8.806 -0.1503 -0.0536 -0.0994
15131W        W31605  15.757   4.145  13.655 -0.3620 -0.2413 -0.0569
15132W        W31606  14.699  13.799   3.756  0.1161 -0.0233 -0.1955
15133W        W31607   2.531  18.110  11.811  0.0383 -0.1276 -0.1154
15134W        W31608   3.759   8.350   2.213 -0.0272 -0.0876  0.0304
15135W        W31609  11.361  13.889  10.474  0.0312  0.1396  0.4436
15136W        W31610  11.845   7.663  12.197  0.1626  0.2756 -0.2391
15137W        W31611  14.306  12.906   0.327  0.0139  0.0569  0.1097
15138W        W31612  18.062   3.441  12.417  0.2681  0.2736  0.0624
15139W        W31613   5.662  17.836  11.993  0.1750 -0.1118  0.1490
15140W        W31614   7.190   4.796  11.615 -0.1416 -0.3302 -0.0400
15141W        W31615  14.955  13.031  12.445  0.5190 -0.0700  0.0558
15142W        W31616  16.692  13.798  11.149 -0.0741 -0.1613 -0.3212
15143W        W31617   7.811  12.986   4.480  0.0256 -0.3155  0.3604
15144W        W31618   1.579  12.938   4.446 -0.2047 -0.2668 -0.3169
15145W        W31619  12.236   9.074   3.163  0.2564 -0.0644 -0.0945
15146W        W31620  18.777  14.111   4.232 -0.2203 -0.1082  0.1207
15147W        W31621   7.133   1.674  13.166  0.0632 -0.3358  0.0067
15148W        W31622   5.434   0.480   3.112  0.0364  0.1234 -0.2217
15149W        W31623  17.359   7.896   4.006 -0.0156  0.1813  0.0243
15150W        W31624  15.514  18.158  12.720 -0.1398 -0.4308  0.1806
15151W        W31625  18.110  11.754  10.822  0.1829  0.0022 -0.2385
15152W        W31626   1.497  11.626   3.473  0.0450 -0.2311 -0.0860
15153W        W31627  16.143  15.416   2.211  0.0045  0.1174 -0.2677
15154W        W31628   4.705   3.552  14.887 -0.1131  0.1626  0.3318
15155W        W31629  18.700  18.016  13.558  0.3036 -0.2404 -0.0320
15156W        W31630   8.205  13.042   1.671  0.0694  0.1692  0.0400
15157W        W31631   1.003  17.206  14.508 -0.1844  0.3691 -0.0192
15158W        W31632  15.002  15.835   0.921 -0.3044 -0.2771  0.1230
15159W        W31633   1.948   4.414  14.175 -0.2055  0.0456  0.0060
15160W        W31634   1.268   8.341   4.320  0.0039  0.0213 -0.2426
15161W        W31635  13.183   2.221   0.319  0.0884 -0.2666 -0.1973
15162W        W31636  12.269   0.855   3.052  0.1581  0.4771 -0.2534
15163W        W31637  17.855   6.939  12.934  0.0482  0.0471 -0.1129
15164W        W31638   1.188  12.068   1.246 -0.0725 -0.0559 -0.0791
15165W        W31639   1.534   7.887   3.471 -0.0814  0.1714  0.0653
15166W        W31640   2.808  17.335   1.526 -0.4298 -0.0773  0.3390
15167W        W31641  18.969  12.811   2.145  0.1932 -0.1117 -0.4590
15168W        W31642   5.053   3.195  12.225  0.2260  0.0593 -0.0461
15169W        W31643  13.746   1.493  14.126  0.0176 -0.2252 -0.1911
15170W        W31644   7.229   5.743  10.789  0.0129  0.0429  0.0941
15171W        W31645   0.189   6.178  12.589  0.1961 -0.0539 -0.0822
15172W        W31646   7.975   6.178  11.523 -0.2759  0.0811 -0.0995
15173W        W31647   6.168  10.726  12.345 -0.1740  0.2534 -0.0754
15174W        W31648  12.811  10.151   3.681 -0.0110 -0.1177  0.2629
15175W        W31649   1.437   5.127   2.495  0.0938 -0.0839 -0.0715
15176W        W31650  10.344  10.025  12.730  0.0899 -0.0382 -0.3707
15177W        W31651   8.028   7.552   9.872  0.1002 -0.3422  0.2993
15178W        W31652   3.004   7.713   2.054  0.1546  0.0207  0.0745
15179W        W31653  17.419   0.861   0.955 -0.1154  0.2321  0.0348
15180W        W31654  12.653   3.931  11.165  0.6357 -0.2066  0.0018
15181W        W31655  13.188  14.574  14.343  0.0298  0.4274 -0.0476
15182W        W31656   0.086   3.869   0.991 -0.0460 -0.1395  0.1129
15183W        W31657  12.931   2.745   0.929 -0.1329  0.0668  0.0289
15184W        W31658  11.277  16.708   2.433  0.5595 -0.0858  0.0568
15185W        W31659  13.325   8.071   2.673 -0.0779 -0.2948  0.0011
15186W        W31660  14.327   3.850   1.795 -0.1232  0.3098 -0.0351
15187W        W31661   9.777  16.835   1.773  0.0999 -0.0412  0.1806
15188W        W31662  19.149   1.919   1.720  0.0463  0.2047 -0.3374
15189W        W31663  17.583   1.383   3.392 -0.0524  0.0658 -0.1120
15190W        W31664  18.476  14.019   2.486  0.1439  0.1725  0.1772
15191W        W31665   8.867   2.782  10.987  0.4723  0.1901 -0.3873
15192W        W31666  18.549   3.881   4.712  0.1926 -0.2014  0.1658
15193W        W31667  18.820  17.847   2.260 -0.2669  0.0754 -0.0382
15194W        W31668   6.742   3.070  10.806  0.0206 -0.1488 -0.0373
15195W        W31669  14.657   6.755   3.633  0.1581  0.0414  0.0166
15196W        W31670  17.212   4.790   3.291 -0.0823  0.0202  0.0990
15197W        W31671  11.715  19.089  12.012  0.1627 -0.2875  0.1102
15198W        W31672  16.985  11.106   2.659 -0.3707 -0.3380  0.1867
15199W        W31673  18.155   3.088  11.002 -0.0705  0.1822  0.1023
15200W        W31674   9.389   7.303   4.824 -0.0537 -0.4160  0.0845
15201W        W31675   0.059   1.810  12.011  0.0215 -0.1601 -0.1465
15202W        W31676  12.190  12.039  10.880  0.2376 -0.0622  0.1380
15203W        W31677   4.897  15.167   3.321 -0.0443  0.2219 -0.0058
15204W        W31678   4.604  12.451   0.996  0.0831 -0.1949 -0.3007
15205W        W31679  14.200  17.012  12.443  0.0986  0.2572  0.1459
15206W        W31680  10.222  10.047   0.926  0.0873  0.1767 -0.0576
15207W        W31681  10.305  17.660  10.619  0.0752  0.1979  0.2532
15208W        W31682  14.938  14.609  14.477  0.1189 -0.1757 -0.2634
15209W        W31683  19.037   7.250   4.097  0.1609 -0.0442 -0.2601
15210W        W31684   3.276  12.463   0.041 -0.0144  0.1117  0.3525
15211W        W31685  11.454   3.663   3.251 -0.0789  0.2196 -0.2263
15212W        W31686  18.933  10.774   4.806  0.0620 -0.2569 -0.2340
15213W        W31687  16.638   6.933   5.839 -0.0256 -0.2040 -0.2927
15214W        W31688  17.012   7.478   4.083  0.0116 -0.2414 -0.1422
15215W        W31689  17.880  14.141   1.727 -0.2140 -0.1347  0.1793
15216W        W31690   8.536  11.505   2.012  0.0856 -0.0541 -0.1500
15217W        W31691   0.547  14.236   4.106 -0.0030  0.5018 -0.1203
15218W        W31692  13.924   4.255  13.514 -0.2714 -0.3682 -0.1711
15219W        W31693  15.701   8.621  10.637  0.0229 -0.2061  0.0005
15220W        W31694  11.846   9.341   1.429  0.1489  0.2160  0.0257
15221W        W31695  15.354  18.196  13.264 -0.2310  0.0116 -0.1552
15222W        W31696   3.687   1.181   4.955 -0.2116  0.1095  0.2515
15223W        W31697   0.316   6.538   3.016  0.0869 -0.3468 -0.1366
15224W        W31698  16.156  15.986   3.627 -0.0419  0.0971  0.2311
15225W        W31699   0.638   4.240   2.520  0.3024  0.3057 -0.1577
15226W        W31700   8.161   1.906  13.523 -0.1634  0.1628  0.0151
15227W        W31701   6.789   0.580   1.058 -0.0850 -0.2677 -0.2999
15228W        W31702  13.431   0.669  13.764  0.0049  0.0271 -0.2749
15229W        W31703   7.904   8.905   4.635 -0.0638 -0.0969 -0.0089
15230W        W31704   5.565  14.872  11.725 -0.1258  0.0288  0.1940
15231W        W31705   0.164  18.044   3.044  0.1268 -0.1067 -0.0539
15232W        W31706  11.670   2.477  12.767 -0.0082 -0.2852  0.1338
15233W        W31707   4.534   8.395   5.140 -0.0041  0.1353 -0.1784
15234W        W31708   1.583   9.449  10.403 -0.0353  0.0614  0.2864
15235W        W31709   0.355  17.736   2.558  0.1567  0.3885  0.1283
15236W        W31710   5.253   7.880  12.103  0.0535  0.0129 -0.3420
15237W        W31711  18.251   6.783   5.136 -0.1273  0.2448 -0.0039
15238W        W31712  15.975  12.728   0.238 -0.0715  0.0281  0.0795
15239W        W31713  17.303   4.977   0.725  0.5904 -0.0160 -0.0445
15240W        W31714   5.179  11.092  14.679 -0.0391 -0.0221 -0.3474
15241W        W31715  19.104  13.318   5.246 -0.2351 -0.0151  0.1510
15242W        W31716  18.361   3.612  14.450  0.0808  0.1590 -0.3735
15243W        W31717  16.319  18.969   1.284 -0.0720 -0.1016  0.0151
15244W        W31718   1.916  10.973   1.444  0.2615 -0.1088  0.1293
15245W        W31719   1.295  14.262  12.848 -0.0019  0.2132 -0.0598
15246W        W31720  17.985   9.134  12.359 -0.0173  0.0319  0.0420
15247W        W31721   3.554  18.978   4.483  0.1108 -0.0830  0.1908
15248W        W31722  15.080  16.789   0.450 -0.2207  0.1424  0.2169
15249W        W31723   4.736   5.842  12.931 -0.0300 -0.1624  0.1961
15250W        W31724  19.115  18.227   1.998 -0.1964 -0.1140  0.0877
15251W        W31725  14.304  13.268  11.284  0.3071  0.2836  0.1430
15252W        W31726  16.987   3.203   0.645  0.0997  0.0712 -0.1777
15253W        W31727   2.918   3.171   3.870 -0.2169  0.0258 -0.0009
15254W        W31728  17.028  13.170   1.099  0.0095  0.0670 -0.2029
15255W        W31729  10.365   8.000   0.836  0.0197  0.0034  0.0845
15256W        W31730  14.248   3.148   3.627  0.3015  0.2293 -0.3326
15257W        W31731   0.174  18.608  13.148 -0.3466 -0.0174 -0.3168
15258W        W31732  17.124   7.895  10.696 -0.0667 -0.0312  0.0992
15259W        W31733  14.772  14.777   4.384  0.0219  0.2742 -0.0677
15260W        W31734   7.054   7.907  11.926 -0.1202 -0.0855  0.1225
15261W        W31735   3.175  11.776   0.339  0.3293 -0.1315  0.1958
15262W        W31736  16.132  15.707  10.869 -0.0410  0.0164  0.1441
15263W        W31737   5.638   1.524  14.095 -0.2250  0.1942 -0.0111
15264W        W31738   3.309   6.577   1.414 -0.0971  0.2496  0.1982
15265W        W31739  16.457   3.404  14.193 -0.1324  0.4495  0.1777
15266W        W31740   6.727   2.885  13.523 -0.1007 -0.5318  0.1915
15267W        W31741  10.940  10.241  14.377 -0.4076 -0.2195 -0.0007
15268W        W31742  18.464  18.485   4.717 -0.2025 -0.3700  0.0391
15269W        W31743   1.803   8.434  14.787  0.4830 -0.1532 -0.1357
15270W        W31744  15.200  10.820  13.834  0.0666 -0.4206  0.2197
15271W        W31745   2.313  18.960  10.965  0.1218 -0.2089 -0.1968
15272W        W31746   4.798   8.325  10.422 -0.0301 -0.3523  0.1644
15273W        W31747   8.323   7.627   0.030  0.0067  0.0493  0.0534
15274W        W31748  13.053   9.078  10.615 -0.4360  0.0542 -0.0494
15275W        W31749   8.808   9.678   9.782  0.2173  0.1798 -0.1053
15276W        W31750  15.728   1.908   2.909  0.2747  0.1241 -0.0370
15277W        W31751  10.623   9.086   3.717  0.1716  0.0411  0.0190
15278W        W31752   8.956   9.905   4.317  0.1389 -0.0481  0.0799
15279W        W31753  16.307   7.170   1.957  0.1588 -0.0719 -0.0278
15280W        W31754  13.591  18.053  14.132  0.0980  0.0791  0.6932
15281W        W31755  14.232   2.467   9.384 -0.0136  0.1040  0.0327
15282W        W31756  17.194  11.632   2.424  0.0556  0.1994  0.2035
15283W        W31757   7.501  14.720   2.446 -0.3661 -0.2392  0.0447
15284W        W31758   9.630  14.447   0.987  0.1687 -0.0069 -0.0510
15285W        W31759   7.701   9.277   9.388 -0.1276  0.2064 -0.2869
15286W        W31760   3.055  16.930   0.684 -0.0968 -0.0131 -0.0250
15287W        W31761  13.749   7.089   4.770 -0.0431  0.1155  0.3089
15288W        W31762   6.474  16.998  14.633  0.2315  0.1077 -0.1146
15289W        W31763   1.663  11.566  14.513 -0.0252 -0.0933 -0.0486
15290W        W31764   2.088   6.675   0.994 -0.1551  0.0617  0.2275
15291W        W31765  10.655  14.368   0.085  0.0966  0.2307  0.0245
15292W        W31766   0.512  10.838  12.328  0.1945 -0.1028  0.0581
15293W        W31767   4.654  18.538   3.680  0.1867  0.0153 -0.2584
15294W        W31768  18.480   4.959  12.403 -0.1108 -0.1028  0.1852
15295W        W31769  10.378  16.767   9.683  0.0605 -0.4795 -0.0793
15296W        W31770   1.667   5.424  14.837  0.1537 -0.0614 -0.1405
15297W        W31771  13.098   2.237  12.702 -0.1257  0.2114 -0.1616
15298W        W31772   3.342  16.190   0.500  0.0632  0.0576 -0.1833
15299W        W31773   3.095   4.022   2.034  0.1233  0.1182 -0.1127
15300W        W31774   5.726   4.693   3.735 -0.0097 -0.1713 -0.1288
15301W        W31775  16.751  15.949   1.360  0.1749 -0.3408 -0.3123
15302W        W31776  18.343  15.236  12.952  0.1706 -0.0317 -0.0801
15303W        W31777  11.288   5.513  12.264  0.1939 -0.2850 -0.1131
15304W        W31778   7.680   1.726  10.741 -0.1110 -0.1336 -0.0589
15305W        W31779   0.038   2.227   2.455  0.0953  0.1752 -0.1295
15306W        W31780   8.737   8.329  14.622  0.0337  0.0379 -0.2788
15307W        W31781   5.271   9.607  11.083  0.0618  0.1212 -0.1888
15308W        W31782  15.761   7.501  11.002 -0.0153 -0.1006 -0.1094
15309W        W31783  17.690  14.590   4.148  0.2832  0.0837 -0.1462
15310W        W31784   8.744  16.416  14.842  0.4016  0.0402  0.1227
15311W        W31785   3.831   3.430   0.312 -0.3462 -0.0177  0.3432
15312W        W31786  14.750  10.020   5.082 -0.0262  0.1883  0.2211
15313W        W31787   7.580   5.560   2.920 -0.1106 -0.1214 -0.0155
15314W        W31788   0.579  11.650   3.823  0.1231  0.2023 -0.1142
15315W        W31789  13.969   4.141   2.588  0.0859  0.0730 -0.3917
15316W        W31790  17.785   3.869   1.185  0.0498 -0.0464  0.1780
15317W        W31791  16.438   5.047   2.841  0.3147 -0.0556 -0.3676
15318W        W31792  18.274   1.568  10.429 -0.0980  0.2975 -0.1721
15319W        W31793  11.309  15.358   0.970 -0.0057 -0.3158 -0.0070
15320W        W31794  11.121  13.872  11.010  0.1523  0.2581 -0.5321
15321W        W31795   2.605  19.121   2.873 -0.0582 -0.4562  0.1440
15322W        W31796  16.359  11.905   0.173 -0.0106  0.3058  0.0439
15323W        W31797   7.420  12.644  12.817  0.0576  0.1089 -0.2946
15324W        W31798  16.404  14.235  13.944 -0.0289  0.1213  0.1937
15325W        W31799  17.061   5.023  12.460  0.3180 -0.2280  0.5504
15326W        W31800  10.596  17.981  13.457  0.1598 -0.0687 -0.1171
15327W        W31801  16.004  17.605  13.481 -0.0696  0.0979 -0.2817
15328W        W31802   5.300   8.675  12.745 -0.0539 -0.2143 -0.4909
15329W        W31803   2.220   4.959   1.113 -0.3135 -0.2010  0.0262
15330W        W31804   1.862  15.546  10.984 -0.2468  0.5756  0.0154
15331W        W31805   3.973  13.326   5.151  0.0900  0.3231  0.0187
15332W        W31806   8.123   2.507   2.937 -0.1623 -0.1553 -0.1379
15333W        W31807   9.184   3.066  11.832  0.1289  0.2155  0.0767
15334W        W31808  18.187  15.374   2.426  0.1163  0.3008  0.0096
15335W        W31809   7.822   9.834   1.794  0.0033  0.2238 -0.0824
15336W        W31810  11.827  16.790  11.579 -0.2300  0.1173  0.2283
15337W        W31811  18.617   7.052  10.831  0.0487 -0.1853  0.0505
15338W        W31812  14.510  14.994   2.672  0.2210  0.0016  0.2960
15339W        W31813   6.363  14.929  12.829  0.0914 -0.0179 -0.1517
15340W        W31814   9.704  15.884  10.852  0.1581 -0.0291 -0.2861
15341W        W31815  14.523  14.307  14.317  0.1442 -0.1821 -0.0532
15342W        W31816   8.718  16.104  11.200 -0.0894  0.0551 -0.2532
15343W        W31817  15.536  15.389   2.982  0.1128  0.0810 -0.1592
15344W        W31818  10.047   1.334   1.265 -0.0959 -0.1472 -0.2993
15345W        W31819  16.946   4.854   0.303 -0.2866  0.2717  0.0457
15346W        W31820   7.968   1.544  12.698  0.1994 -0.1271 -0.2610
15347W        W31821   7.178   2.799  10.099 -0.0865 -0.1052  0.4295
15348W        W31822   6.904  11.155   1.106 -0.0364 -0.0294 -0.1952
15349W        W31823  16.042  11.128   0.413 -0.0244  0.2333  0.3493
15350W        W31824  14.535   7.016   1.987  0.3008 -0.0502  0.0554
15351W        W31825   8.532   1.140  10.623 -0.2586 -0.0982  0.0803
15352W        W31826  10.908  10.210  11.557 -0.0300  0.2120  0.0259
15353W        W31827  13.739  14.277  13.991  0.0334 -0.0007 -0.2851
15354W        W31828   5.770  18.050  14.142  0.3033  0.1665  0.3605
15355W        W31829   9.860  14.881   4.229 -0.0542  0.3707 -0.0246
15356W        W31830  11.116  13.436   5.620  0.1230 -0.3600  0.1673
15357W        W31831   6.326   9.425  13.575 -0.0084  0.1008  0.2673
15358W        W31832  15.489   6.612   9.608  0.0780  0.1026 -0.1367
15359W        W31833  12.718   2.566  12.820 -0.1543 -0.3819  0.2391
15360W        W31834  12.207  18.213   3.705  0.1804  0.4485  0.0032
15361W        W31835  14.514  13.111   1.118 -0.0904  0.1383 -0.0598
15362W        W31836   0.550  15.435   0.997 -0.1491  0.2065  0.0383
15363W        W31837   1.084  18.711   9.837 -0.0619 -0.0937 -0.0237
15364W        W31838  14.322  18.691   4.367  0.3540  0.1343 -0.3307
15365W        W31839   6.923   7.067  14.371  0.1156 -0.3744  0.2506
15366W        W31840  13.673  14.410   4.533  0.0921 -0.0899  0.0922
15367W        W31841  13.988  17.247   5.262 -0.0180 -0.0105  0.0178
15368W        W31842   3.895  14.343  12.060  0.1866 -0.0570  0.2283
15369W        W31843  16.155   3.710  11.196  0.1867 -0.0476  0.0726
15370W        W31844   4.777  18.090  11.190  0.0438  0.2556 -0.0321
15371W        W31845   8.459   7.686  13.253  0.2791 -0.3071 -0.1287
15372W        W31846  13.710   2.996   1.405  0.2075  0.0210  0.2165
15373W        W31847  17.926  16.912   9.759  0.0429 -0.0000  0.0720
15374W        W31848   7.966   6.465  12.836  0.0450  0.1379 -0.3508
15375W        W31849   2.780   5.841   5.088 -0.1908 -0.2653  0.1416
15376W        W31850  13.894   5.525   0.276  0.3301 -0.1387  0.2860
15377W        W31851   6.100  17.973   2.134 -0.1286  0.1760 -0.0096
15378W        W31852   5.772   2.504   9.900 -0.1333  0.0427  0.3287
15379W        W31853  15.360   7.653  12.226  0.3532 -0.2211 -0.1409
15380W        W31854  10.762  15.513  13.252 -0.1047  0.0393 -0.1079
15381W        W31855  18.992   2.152  10.364  0.2159 -0.0783  0.1588
15382W        W31856   4.641  16.167  12.649 -0.1716  0.3598 -0.1771
15383W        W31857   0.221   8.323  11.659  0.3516 -0.2978  0.1571
15384W        W31858  18.231   4.779   9.754  0.1505  0.1876  0.0752
15385W        W31859  15.175  13.873   0.823  0.3454  0.2054  0.3910
15386W        W31860   3.288  11.435  11.229 -0.3925 -0.0753  0.0556
15387W        W31861  15.017  15.642  11.791  0.2081  0.1094 -0.0027
15388W        W31862   4.957   7.326   1.162  0.1243 -0.3494  0.1571
15389W        W31863  12.392   7.414   1.427 -0.0768  0.1447  0.1843
15390W        W31864   3.429   3.136  11.209 -0.2292  0.2828  0.0514
15391W        W31865  17.747  13.857   2.651  0.0074 -0.0399 -0.1145
15392W        W31866   2.686  18.278  11.358  0.4092 -0.0670 -0.2314
15393W        W31867   4.334   2.153  11.617  0.1978 -0.1635 -0.5236
15394W        W31868   9.286  17.447  13.086  0.5303  0.4034 -0.2341
15395W        W31869  12.452   8.095   3.938  0.0150  0.0501  0.3063
15396W        W31870  13.799  15.719   0.261  0.1836  0.1702  0.1789
15397W        W31871   5.857  18.769   0.859  0.0353  0.0233  0.0853
15398W        W31872  11.648  14.393  10.365  0.0704 -0.3820 -0.1904
15399W        W31873   1.960   9.288   3.842  0.2189  0.2380  0.0082
15400W        W31874   0.113   4.322  14.344 -0.3948 -0.1428 -0.3887
15401W        W31875   0.163  10.502  14.643  0.2459  0.1901  0.1275
15402W        W31876  13.696   5.922  14.652  0.0574 -0.1345  0.1051
15403W        W31877   8.798  18.962   2.066 -0.2134 -0.4286  0.1427
15404W        W31878  14.714  15.609   4.138 -0.3060 -0.1971  0.1255
15405W        W31879  16.535   8.672  10.901  0.0060  0.2347 -0.1066
15406W        W31880   0.880   3.682  10.929 -0.3330 -0.1044 -0.1431
15407W        W31881   8.999  12.785  11.754 -0.2568 -0.1890  0.0135
15408W        W31882  13.921  14.212   2.119 -0.0215  0.2398 -0.3576
15409W        W31883   6.500   9.731   3.568 -0.1069 -0.2199  0.0900
15410W        W31884   9.074   6.929   3.064  0.1401 -0.3091  0.1167
15411W        W31885  13.774   0.901   1.689  0.0695  0.0898  0.2525
15412W        W31886  17.475  12.208  13.825  0.2421 -0.3555  0.0944
15413W        W31887  15.708   4.076  13.114  0.3316  0.0816  0.0004
15414W        W31888  13.729   4.576  10.854 -0.0743  0.1735 -0.1993
15415W        W31889   3.999  12.158   4.385 -0.0939 -0.1276  0.2477
15416W        W31890  14.211   9.302   4.542 -0.2291 -0.1555  0.0562
15417W        W31891  14.914   4.245   2.984  0.3424 -0.1133  0.4152
15418W        W31892   9.441   5.859   1.154  0.3598 -0.3528 -0.2121
15419W        W31893  19.126  11.357  14.491  0.2083  0.0722  0.0981
15420W        W31894  12.321  10.084  13.066 -0.1926 -0.2029  0.0262
15421W        W31895  15.571   2.656   3.078 -0.1249 -0.1338 -0.1378
15422W        W31896   5.640   6.508  14.240  0.2110 -0.1795 -0.2164
15423W        W31897  18.654  13.658  13.079  0.5186  0.1828 -0.0429
15424W        W31898  10.339   0.980   2.897  0.3246 -0.2932  0.3402
15425W        W31899  13.556  12.124  11.814  0.2388  0.2020  0.0417
15426W        W31900  11.291  18.811   1.901  0.0451 -0.1168 -0.3305
15427W        W31901  16.934  16.507   3.641  0.2146 -0.0269  0.0270
15428W        W31902  13.451   7.359   0.477 -0.0897  0.1841 -0.2005
15429W        W31903  13.467   6.548  14.281  0.1159  0.1609 -0.2941
15430W        W31904  13.553   8.767   4.494 -0.1930  0.1377 -0.0700
15431W        W31905   1.927   5.304  11.533 -0.3096 -0.3054 -0.4442
15432W        W31906   1.853  12.419  12.410 -0.3018  0.0124 -0.2469
15433W        W31907   7.405   7.809   4.588 -0.0664  0.1084  0.2516
15434W        W31908   1.850  16.212  13.684 -0.5201 -0.3886  0.2822
15435W        W31909  15.581  14.754  11.229 -0.0814  0.1588  0.0726
15436W        W31910  15.899  13.741   3.723  0.0909 -0.3340  0.0464
15437W        W31911  15.775  17.125  13.461  0.0470  0.3656  0.0269
15438W        W31912  10.452  15.982   0.916  0.0829 -0.0575 -0.0681
15439W        W31913   8.323  16.372   1.981 -0.0009 -0.3157  0.2886
15440W        W31914   1.162  18.198  12.144  0.0317 -0.1319 -0.1202
15441W        W31915  10.148  13.807   3.013  0.0339 -0.0537  0.0615
15442W        W31916   2.005   5.499  12.397  0.0517  0.1853 -0.0844
15443W        W31917   4.280  14.937  11.519 -0.0629 -0.2090  0.3054
15444W        W31918   7.023  18.288   1.746  0.0266  0.1285  0.0218
15445W        W31919   2.550   2.420   9.554 -0.0083  0.0441  0.0130
15446W        W31920   3.466   0.444   3.366 -0.2627 -0.0483 -0.0836
15447W        W31921  14.964  13.144   4.794 -0.0793 -0.2040 -0.2262
15448W        W31922   4.762   2.714  14.612 -0.1536  0.3417 -0.0760
15449W        W31923   3.015   4.636   3.264 -0.2307  0.2534  0.2948
15450W        W31924   4.775  15.145   0.512  0.3153  0.3664 -0.2099
15451W        W31925  17.355   4.665  11.699 -0.0672 -0.2178 -0.1133
15452W        W31926  15.140  15.533  14.051 -0.1886  0.1419  0.2230
15453W        W31927   3.422  15.206   4.567 -0.0484 -0.0155 -0.1651
15454W        W31928  15.953   2.000  14.066  0.0827 -0.0498 -0.3471
15455W        W31929   9.529  17.368  11.745  0.2407  0.2025  0.1996
15456W        W31930  18.636  14.510   2.465 -0.0300  0.0254  0.2222
15457W        W31931   8.656  19.334  13.172 -0.0390  0.1061  0.0551
15458W        W31932  16.117   5.497  13.202 -0.0429  0.1333 -0.1371
15459W        W31933  16.147  15.287   0.200  0.1252  0.2360 -0.2516
15460W        W31934  18.586   1.419   2.333 -0.0044  0.0514 -0.3794
15461W        W31935   0.273   2.836   1.817  0.2325  0.3995 -0.0174
15462W        W31936  18.628  10.678  12.270 -0.4164 -0.0962 -0.4172
15463W        W31937  15.832   1.881  11.023  0.6188  0.0524  0.0489
15464W        W31938  13.381   6.765   2.957 -0.0692  0.2326 -0.0043
15465W        W31939   8.464  18.500   3.066 -0.0250 -0.1730  0.3011
15466W        W31940  16.125  17.018   4.811  0.0681 -0.1628  0.3108
15467W        W31941  10.741   1.276   3.494 -0.1493 -0.1560 -0.0200
15468W        W31942  19.357   1.195  10.469 -0.2108 -0.0961  0.3035
15469W        W31943  16.529  17.441   4.039  0.3365 -0.2342 -0.1448
15470W        W31944  15.536  12.225   3.671 -0.1012 -0.1795 -0.1007
15471W        W31945   1.275   6.292  13.599  0.2806  0.0880 -0.0246
15472W        W31946   0.467   1.972   2.663  0.2491  0.1290 -0.2889
15473W        W31947   8.934   7.103   4.432 -0.2063 -0.1441  0.3049
15474W        W31948   5.191   3.743   0.000 -0.2848  0.3044 -0.0764
15475W        W31949   7.514   2.807  13.969  0.0949 -0.0881  0.2193
15476W        W31950  13.983  10.947   3.659  0.3004  0.0720  0.2184
15477W        W31951   7.263   4.377  10.811 -0.3512 -0.1781 -0.2416
15478W        W31952  12.388   7.391  10.312  0.1466 -0.1268 -0.1799
15479W        W31953  14.233   5.259   4.793  0.3868  0.0935  0.0925
15480W        W31954  13.471  14.938  11.527  0.1939 -0.3894 -0.1779
15481W        W31955  10.603   0.400   4.533  0.0526 -0.5379  0.0939
15482W        W31956   0.883  15.669   0.721 -0.2954 -0.3555 -0.3344
15483W        W31957   0.047   1.406  14.433 -0.2953  0.0969 -0.2362
15484W        W31958   7.248   1.227   2.383  0.1966  0.0683 -0.2993
15485W        W31959  10.407  16.823  12.786 -0.0809  0.1508  0.2073
15486W        W31960   3.645   3.793  13.482  0.1291 -0.1900 -0.2353
15487W        W31961   4.264  10.974  12.885 -0.0859  0.0601  0.1199
15488W        W31962   5.012  15.015   2.131  0.0629 -0.0764 -0.2245
15489W        W31963   9.041   8.876   0.887  0.0258  0.1026  0.1477
15490W        W31964   9.555   6.290   4.544  0.0186  0.0835  0.0326
15491W        W31965   0.777  16.513   3.772 -0.0317  0.1668  0.0362
15492W        W31966   2.759   5.404  13.018  0.1474  0.3686  0.0844
15493W        W31967   4.979   5.280  10.437  0.1345 -0.1940  0.0280
15494W        W31968   0.252   6.354   2.110  0.1165 -0.2500  0.2554
15495W        W31969   0.872  13.188   3.299 -0.0360  0.0270 -0.0157
15496W        W31970  14.854  10.770   3.350 -0.1441 -0.3731 -0.1756
15497W        W31971  17.202  14.304   2.192 -0.2294  0.1197 -0.1711
15498W        W31972  16.860  18.250   2.488  0.3630 -0.0890  0.1429
15499W        W31973  14.195   8.191  10.872 -0.2018 -0.1343  0.0067
15500W        W31974  10.258  18.522   3.048 -0.1432 -0.0005 -0.2701
15501W        W31975  18.253  16.161   1.216 -0.0899  0.2082 -0.2356
15502W        W31976  15.025  10.704   0.638 -0.0048  0.1832  0.1149
15503W        W31977   2.412  12.008   0.647 -0.2813 -0.2316  0.1200
15504W        W31978  16.908   2.923   3.220 -0.4706  0.1368  0.0381
15505W        W31979   7.830   7.635  14.672  0.1087  0.0664  0.3653
15506W        W31980  16.513   5.135   1.646 -0.1004 -0.1948  0.2633
15507W        W31981   1.801   1.311  10.547  0.3927  0.1681  0.0921
15508W        W31982  17.570  12.638  10.975  0.2269  0.0745 -0.0418
15509W        W31983  12.175   9.012  14.257 -0.3161 -0.0891 -0.2034
15510W        W31984   4.103   9.528   1.468  0.1326 -0.0137  0.0071
15511W        W31985  16.960   8.004  14.704 -0.4157  0.0428 -0.0222
15512W        W31986   0.734  11.698   9.886 -0.2513  0.2861 -0.2218
15513W        W31987   8.864  14.185  11.049 -0.4900 -0.1512 -0.2796
15514W        W31988  13.914  19.220   5.223  0.2083  0.2649  0.0371
15515W        W31989   5.563  14.256   2.811  0.0832 -0.4505 -0.2140
15516W        W31990   6.247   9.190   0.280  0.1283 -0.2439 -0.4811
15517W        W31991   4.539  18.215  14.469 -0.0397  0.1588  0.1039
15518W        W31992  15.698   4.976  14.139  0.1812  0.2450 -0.0526
15519W        W31993  11.882  12.742   1.595 -0.1481  0.1389 -0.0396
15520W        W31994  15.142   2.868  12.753 -0.3879 -0.1836 -0.2877
15521W        W31995  14.870  12.903   1.480 -0.1090 -0.1281  0.1423
15522W        W31996  12.660   9.121   4.991  0.0943 -0.0547 -0.0309
15523W        W31997   4.721   5.509   0.137 -0.0066  0.1062  0.1639
15524W        W31998  19.178   0.510   2.204  0.1882  0.2983 -0.0973
15525W        W31999  14.428  11.427  11.481 -0.0948  0.0783  0.3794
15526W        W32000   9.984   5.049   3.371  0.0378  0.1249 -0.0825
15527W        W32001  14.422   8.483   5.791  0.0391  0.1874 -0.0888
15528W        W32002   5.338   5.456   3.487 -0.0807  0.0843 -0.0660
15529W        W32003   5.077   2.411   3.342  0.0304  0.1400 -0.1230
15530W        W32004   1.461  15.620   1.471  0.0377  0.0980  0.0990
15531W        W32005   2.023   4.457   0.977 -0.0128 -0.3566  0.1482
15532W        W32006  15.319   6.827  12.449  0.1168  0.1860 -0.0035
15533W        W32007   8.453   7.751   1.019 -0.0057  0.2714 -0.0881
15534W        W32008   2.664   0.895  14.609  0.4534 -0.1339 -0.3309
15535W        W32009  10.671  18.736   1.390  0.1751  0.0280 -0.1648
15536W        W32010  18.322  15.109   5.349  0.3414  0.1241  0.2622
15537W        W32011   7.510   7.254   2.501 -0.0983 -0.1310 -0.1595
15538W        W32012   6.068  19.251  10.896 -0.0784 -0.0654  0.1891
15539W        W32013   4.333   9.398  14.848 -0.1997  0.2459 -0.1267
15540W        W32014   0.563   2.943  11.415 -0.1277 -0.1930  0.1953
15541W        W32015  19.378   6.135   4.045 -0.1060 -0.0953  0.2678
15542W        W32016   6.125  15.820   1.460 -0.0902  0.0324 -0.1752
15543W        W32017   8.757  15.971  12.732 -0.2833  0.4324 -0.1654
15544W        W32018   3.288   6.860  13.004  0.1178 -0.0147  0.0377
15545W        W32019   6.144   8.497   1.794  0.0686 -0.1050  0.3211
15546W        W32020  13.908  16.834   0.397  0.2680  0.0646  0.0152
15547W        W32021   5.059  16.912   0.906 -0.1317 -0.2034 -0.0448
15548W        W32022   7.165   6.839   3.466 -0.1734 -0.0925 -0.0727
15549W        W32023  17.033  17.792  10.779  0.2864  0.0881 -0.0568
15550W        W32024   3.969  18.424  13.147 -0.4420  0.1405 -0.0629
15551W        W32025   7.264  14.335   5.073 -0.1003 -0.1606 -0.1457
15552W        W32026   1.786  17.818   4.463 -0.2217 -0.2022  0.0092
15553W        W32027  13.624   3.391   3.114  0.0681 -0.0662  0.0560
15554W        W32028   9.016  19.305   3.094 -0.2452 -0.0530 -0.3020
15555W        W32029   0.566  12.936   4.341  0.0508 -0.0968 -0.1944
15556W        W32030   5.226   9.412  13.854 -0.0794  0.0445 -0.3050
15557W        W32031  14.031  16.539   3.234 -0.1064  0.3245 -0.1330
15558W        W32032  19.317   7.815  12.070  0.4444  0.1619 -0.1404
15559W        W32033  16.946   8.595   2.036 -0.0317  0.1160  0.0846
15560W        W32034  15.647   1.774  13.716  0.4377  0.3156  0.1206
15561W        W32035   2.700  14.534  13.900  0.0562 -0.1923 -0.0593
15562W        W32036  18.533  14.363  11.149  0.0064 -0.0243 -0.6344
15563W        W32037   3.669   6.364   3.335  0.0151  0.0744 -0.1520
15564W        W32038   2.919   0.262   2.017 -0.3134  0.2295 -0.2162
15565W        W32039  16.755  13.263  14.369  0.3038 -0.0006 -0.0644
15566W        W32040  15.156   7.662   5.105  0.3664 -0.1623  0.1928
15567W        W32041  13.118  17.877   0.317  0.0561 -0.0354 -0.1079
15568W        W32042   1.136   9.039  12.240 -0.0327  0.4079 -0.0513
15569W        W32043  13.390  12.751   1.347 -0.0028  0.0795  0.0331
15570W        W32044  16.662   7.335  14.605  0.1907 -0.3679  0.1371
15571W        W32045   7.019  11.188  12.181 -0.2037 -0.3611 -0.2669
15572W        W32046  13.812   8.032   2.360  0.2155 -0.0568  0.2189
15573W        W32047   1.391  13.870   0.068  0.1237  0.1950 -0.0612
15574W        W32048   6.549  19.156  11.028 -0.0617 -0.0778 -0.0413
15575W        W32049  16.628   6.056  11.599  0.1109 -0.0952  0.0211
15576W        W32050   5.245   3.729   4.099 -0.0415  0.0073 -0.2141
15577W        W32051   1.819   8.310   2.659  0.1105  0.1170  0.0366
15578W        W32052  10.978  10.091   4.277 -0.1179 -0.0495 -0.1132
15579W        W32053  17.542   1.592   9.987 -0.3148  0.2445 -0.0556
15580W        W32054  15.364   9.021  11.688 -0.0941 -0.2976  0.2664
15581W        W32055  15.273  17.445   2.599  0.0410 -0.3651 -0.1456
15582W        W32056  11.125   8.808   2.187 -0.0003  0.2803 -0.2450
15583W        W32057  13.936  13.075   3.427  0.1029 -0.0383 -0.1766
15584W        W32058  17.196   5.939  13.722  0.2160 -0.1117  0.2847
15585W        W32059  12.224   2.233  11.487 -0.0167  0.2963 -0.5613
15586W        W32060   0.556  12.828  12.942  0.0679  0.0133  0.0478
15587W        W32061  17.218  16.176  13.371  0.4153  0.1719 -0.4079
15588W        W32062   6.904   0.739  14.861 -0.2880 -0.0769  0.0349
15589W        W32063   2.329   9.896  14.420  0.0202  0.1053  0.1415
15590W        W32064   0.950  10.237   9.454 -0.2332 -0.0377  0.2470
15591W        W32065   0.108  14.603   2.493 -0.0647  0.3378 -0.4725
15592W        W32066  18.257   1.656   2.052  0.5104  0.0291  0.2859
15593W        W32067  18.549   5.547  13.753  0.1645 -0.3194 -0.1093
15594W        W32068   0.006  10.755   4.627 -0.4974  0.0351 -0.0284
15595W        W32069   3.468   6.552  10.400 -0.4744  0.1462 -0.1398
15596W        W32070  13.870  10.253   9.228  0.2200 -0.0420  0.1093
15597W        W32071  11.620   8.914  14.343 -0.3291  0.0706  0.1549
15598W        W32072  13.602  18.986  14.732 -0.0473 -0.4152  0.0744
15599W        W32073   9.936  10.224   1.335  0.5795  0.1761  0.1014
15600W        W32074  14.652  11.041   2.969 -0.1379 -0.0515  0.0025
15601W        W32075   8.909   6.006  10.607  0.1366  0.0555 -0.1005
15602W        W32076   9.880   3.735   0.901  0.2338 -0.1258 -0.5034
15603W        W32077  15.103  17.981   5.032 -0.1423  0.0918  0.0709
15604W        W32078   6.358   9.947   2.110 -0.1952  0.0548  0.2120
15605W        W32079  10.322  13.346   3.156 -0.0618 -0.1045 -0.2795
15606W        W32080   8.771  14.041  13.933 -0.1476  0.0773  0.2661
15607W        W32081   9.048  13.102   4.690  0.1540 -0.1102 -0.0086
15608W        W32082   9.052  19.261   1.235 -0.0649  0.1761  0.2010
15609W        W32083   0.132   4.140  12.658  0.0385  0.0683  0.0089
15610W        W32084  14.510  16.917   0.398  0.1323  0.1121 -0.0827
15611W        W32085  11.329   3.963   0.019  0.1168  0.1118 -0.1639
15612W        W32086  17.182  13.489  14.673 -0.0691 -0.3072  0.1876
15613W        W32087   6.163   0.974   4.168  0.2090 -0.2176 -0.0375
15614W        W32088  18.392   2.897  13.088  0.0603  0.1861  0.0232
15615W        W32089  16.920  13.970  12.466  0.2241 -0.0627 -0.0868
15616W        W32090  17.198  13.650  10.565 -0.0856  0.0174  0.1623
15617W        W32091  13.833  18.339   2.025  0.0698  0.2639  0.2508
15618W        W32092  11.648   1.515  12.495  0.0280 -0.1526 -0.0847
15619W        W32093  14.367  11.242  14.350  0.2382 -0.0632  0.3216
15620W        W32094   8.615  16.865   1.713 -0.0241  0.0857 -0.2946
15621W        W32095  18.010  11.402   3.893  0.0805  0.1440 -0.1643
15622W        W32096  13.733   5.956   4.427 -0.4169 -0.1331 -0.2482
15623W        W32097  18.894   7.709   0.863  0.0230 -0.0835 -0.1278
15624W        W32098   2.255  18.700   3.678 -0.1592  0.0079  0.0660
15625W        W32099   0.890  15.031   1.197  0.1673  0.1353 -0.0419
15626W        W32100  11.473   9.110  13.285  0.0775  0.1728  0.0157
15627W        W32101   7.210   1.684  14.879 -0.2441 -0.1011 -0.0810
15628W        W32102  18.116  10.732  13.708  0.0857 -0.1364  0.0709
15629W        W32103  16.434  14.345  11.617  0.0331  0.2915 -0.0294
15630W        W32104   7.711  16.245   2.108 -0.2727  0.0146  0.1567
15631W        W32105   5.632   8.010   1.000 -0.0856 -0.1966  0.2310
15632W        W32106  13.121  17.071   0.040  0.1375 -0.1913 -0.3492
15633W        W32107   5.700  11.235   3.060  0.5602 -0.0890  0.0313
15634W        W32108  13.531   1.727   2.119 -0.3175  0.1410  0.1063
15635W        W32109   7.521  11.871   1.696  0.2825  0.0640 -0.0776
15636W        W32110  13.084  16.909   4.428 -0.1041  0.2695 -0.0139
15637W        W32111   2.612   8.526  14.064 -0.0941  0.2275 -0.1127
15638W        W32112  12.883   6.445   1.729  0.0897 -0.3596 -0.4871
15639W        W32113  13.449   0.078   3.888 -0.0485 -0.0432 -0.0699
15640W        W32114  11.258  15.077  13.455 -0.0662  0.1341  0.2003
15641W        W32115  17.549  16.149   3.356  0.0173 -0.0349 -0.2304
15642W        W32116   5.759  15.218   3.541 -0.0849  0.2683  0.3008
15643W        W32117  13.116   2.095  10.459 -0.1351  0.3247 -0.1112
15644W        W32118   4.769  10.639  12.722  0.0214 -0.1776 -0.0388
15645W        W32119  12.354  12.434   4.137 -0.1519  0.0282 -0.0991
15646W        W32120  12.435  13.115   0.605  0.2346 -0.0573 -0.0853
15647W        W32121  19.373   3.677   1.449  0.0534 -0.1557 -0.3298
15648W        W32122  18.928   1.031  12.133  0.0308  0.4133 -0.1212
15649W        W32123  16.622  16.466  11.587  0.2626  0.3960  0.0560
15650W        W32124   8.487   0.083   4.753  0.0829  0.2443  0.0455
15651W        W32125   3.005  11.901   5.398 -0.1597  0.0075 -0.1347
15652W        W32126  18.844   6.366  12.379 -0.0746  0.2625 -0.2718
15653W        W32127   9.993   1.154   0.408 -0.1133  0.2894 -0.1518
15654W        W32128   5.083  18.506   4.304  0.1937  0.1952  0.0019
15655W        W32129  12.820  14.802  12.519  0.2219 -0.0243 -0.0757
15656W        W32130  14.891  15.308   2.659  0.1709  0.1656  0.2928
15657W        W32131  17.118  16.230   4.802  0.1357 -0.0053 -0.0321
15658W        W32132   1.881  10.063   0.376  0.3743 -0.0145 -0.1735
15659W        W32133   0.194   7.698   4.583  0.0535  0.1091  0.1364
15660W        W32134  10.817   8.435  14.055 -0.3581  0.3459 -0.1044
15661W        W32135  17.183  13.668   5.283  0.1319 -0.0706  0.1629
15662W        W32136   7.613   2.775   9.757 -0.0110 -0.1746 -0.2926
15663W        W32137   6.021  15.190   1.756 -0.1524 -0.3201 -0.0495
15664W        W32138  19.075   2.301  14.819 -0.0739  0.1464 -0.0620
15665W        W32139  15.827   7.855  12.287  0.2511 -0.0844  0.0910
15666W        W32140  19.059   6.447   3.546  0.2456 -0.2405 -0.2726
15667W        W32141  15.689  12.152  13.121 -0.0283  0.1945  0.1578
15668W        W32142   1.082  17.294   1.332  0.1741  0.2423  0.1182
15669W        W32143  17.817  12.735   0.720  0.1538 -0.0366 -0.2461
15670W        W32144  14.316   7.827  13.078 -0.1780 -0.2203 -0.0569
15671W        W32145  17.780  10.933   5.679  0.2455  0.0067  0.0637
15672W        W32146  19.226  12.532  10.801  0.0876  0.3500 -0.0384
15673W        W32147  15.080   7.514   3.010  0.3862 -0.0081 -0.1189
15674W        W32148  13.670  16.214   1.756  0.3111 -0.0843  0.2298
15675W        W32149  11.875  17.407   2.673  0.1110  0.2936 -0.1958
15676W        W32150  14.079  12.236   3.550  0.3564  0.2010 -0.1130
15677W        W32151  16.672   5.933  11.017 -0.2366  0.1542  0.1568
15678W        W32152  15.857   9.993  13.321  0.1075 -0.0525  0.1161
15679W        W32153  15.484  16.428   3.227  0.1138 -0.0625 -0.2365
15680W        W32154   1.289  16.285   5.658 -0.0813 -0.2091 -0.3534
15681W        W32155  14.040  14.154  10.816  0.1033 -0.2863 -0.0233
15682W        W32156  12.279   7.316   2.514  0.0773 -0.1599  0.1569
15683W        W32157  15.631  11.638  13.334 -0.0242  0.0369  0.0519
15684W        W32158   5.296   8.610  14.472  0.1159 -0.1618  0.0877
15685W        W32159  15.699  10.158   4.962 -0.0105  0.0705  0.0567
15686W        W32160  12.903   6.814   3.014  0.0256  0.1418  0.0356
15687W        W32161   0.564   0.342  14.549  0.1709  0.0648  0.0119
15688W        W32162  18.882   3.550   5.607 -0.1918  0.1714  0.3036
15689W        W32163  11.673  14.533   2.471 -0.2731 -0.1490 -0.1080
15690W        W32164   0.131  19.218  12.747  0.0104  0.0364  0.1514
15691W        W32165  11.217   6.965  10.901  0.1299  0.0666 -0.0110
15692W        W32166   4.250  16.297   2.398 -0.0042  0.1697  0.2094
15693W        W32167   0.051  12.431   5.120  0.0388  0.2798  0.5100
15694W        W32168  17.058   8.223   4.323 -0.3554  0.1563 -0.1504
15695W        W32169   3.261   8.142  10.298  0.1500 -0.3292 -0.0378
15696W        W32170   9.353  14.819  12.074 -0.1039 -0.1591 -0.0641
15697W        W32171   9.424  10.133   0.186 -0.0416  0.0222 -0.3969
15698W        W32172  15.351   6.267   4.855  0.3567  0.1133  0.3005
15699W        W32173  13.700   9.544   1.092  0.2438  0.0705 -0.0742
15700W        W32174   1.999   0.496  14.306 -0.1136 -0.0245 -0.1849
15701W        W32175   4.020   1.865   2.117 -0.1875 -0.0987  0.1715
15702W        W32176  12.335   6.144   0.388 -0.2221 -0.1819  0.0132
15703W        W32177  18.159  18.514  12.974  0.0101 -0.1983  0.0082
15704W        W32178   2.899  14.204  12.206 -0.1035  0.1824 -0.0445
15705W        W32179   5.710  18.229  13.415  0.2627  0.1498 -0.2848
15706W        W32180  13.658  13.164   1.564  0.1965 -0.1055  0.0684
15707W        W32181   5.519  12.061   5.516 -0.3651 -0.0815 -0.2012
15708W        W32182  17.512  17.909  10.736  0.1906 -0.1493  0.4487
15709W        W32183   7.427  15.773   0.864  0.0651 -0.1464 -0.0158
15710W        W32184  12.981  16.852   1.866 -0.4067  0.2055  0.0311
15711W        W32185  18.945   4.237   1.744  0.0714  0.0282  0.0864
15712W        W32186  15.616   1.109  11.478  0.2767  0.4705  0.2022
15713W        W32187  10.400   3.476   9.603  0.0826 -0.0154  0.4359
15714W        W32188   0.840   1.785  12.678  0.1865  0.1541 -0.0798
15715W        W32189  18.502  18.836  11.165 -0.0388 -0.1371 -0.0493
15716W        W32190  15.015  12.300   4.014 -0.0101 -0.0559  0.0600
15717W        W32191   7.301  13.935  11.200  0.1515 -0.1184  0.1802
15718W        W32192   1.433   1.708   4.897 -0.3012 -0.3956 -0.0605
15719W        W32193  16.301   1.524  13.209  0.2203 -0.1470  0.4596
15720W        W32194   5.620  13.913  11.986 -0.0832  0.0429 -0.1562
15721W        W32195   3.303  15.007   2.910 -0.0163  0.1458 -0.0869
15722W        W32196   0.536   6.389  12.900 -0.0991  0.4300  0.2452
15723W        W32197  12.744  13.888   1.877  0.2369  0.0695  0.2280
15724W        W32198   1.012   8.955  12.729 -0.1968 -0.3041 -0.0007
15725W        W32199  12.655  10.270   5.083  0.2728  0.4482  0.0303
15726W        W32200  12.095   2.482   3.078  0.0359  0.0092  0.0154
15727W        W32201   8.533  13.493  11.106 -0.2709  0.0990 -0.2279
15728W        W32202   1.444   4.283   2.992 -0.0592  0.0242  0.1068
15729W        W32203   7.227  11.445  13.401  0.1172  0.0470  0.5208
15730W        W32204   1.166   6.980   5.359 -0.2963  0.1100 -0.3239
15731W        W32205  14.976   0.544   2.576 -0.1478  0.1401 -0.2307
15732W        W32206   4.161   5.482   0.367  0.0690  0.0582 -0.1736
15733W        W32207   8.940  12.192   0.174 -0.2386  0.1708 -0.0017
15734W        W32208   0.702   1.527   2.506  0.2532  0.1796 -0.2467
15735W        W32209   2.847  13.006  14.359  0.1566 -0.5389  0.0667
15736W        W32210  10.759   2.033   4.001 -0.1369  0.1491 -0.1961
15737W        W32211  13.398   4.295  11.697  0.2074  0.1506 -0.1242
15738W        W32212   4.165   3.084  12.406  0.4617 -0.1260  0.1249
15739W        W32213   2.523   0.864   0.834  0.1455 -0.0643 -0.1594
15740W        W32214   3.695   1.101  13.871 -0.1319  0.1472  0.1558
15741W        W32215  11.696   4.858  10.269  0.0705  0.0270  0.2230
15742W        W32216  17.108  17.773   5.855  0.1006 -0.2451 -0.2644
15743W        W32217  13.781  12.900   2.335 -0.0568  0.3419 -0.3302
15744W        W32218   1.816  17.659   0.153 -0.0961 -0.0002 -0.5634
15745W        W32219  19.191  15.049  13.299  0.0567 -0.5972 -0.0936
15746W        W32220  15.177   4.945  12.365  0.0474  0.0596 -0.0332
15747W        W32221   3.476  17.951   1.413  0.2470  0.1889 -0.2648
15748W        W32222  15.970   0.707  13.455 -0.1835 -0.0725  0.1083
15749W        W32223  14.120   4.639  13.063 -0.0239 -0.0113 -0.1618
15750W        W32224  12.035   6.974   3.544  0.0439 -0.1677 -0.2273
15751W        W32225   3.357  13.543   4.061  0.0253  0.0198  0.2447
15752W        W32226   1.212   8.161  11.431  0.0481 -0.1067  0.1336
15753W        W32227  10.727  15.259   0.968  0.0801 -0.2292 -0.2579
15754W        W32228   7.976   0.237  11.118  0.1544  0.0934  0.0693
15755W        W32229  11.509  13.766   0.944 -0.3304  0.2202 -0.1594
15756W        W32230   7.678   8.724  12.468 -0.0824 -0.4157  0.0290
15757W        W32231   5.277   8.385  12.140 -0.0899 -0.2221  0.1634
15758W        W32232   5.863   6.985  13.894  0.3509 -0.0031  0.2458
15759W        W32233  12.213  10.988   1.868 -0.1770 -0.0335 -0.0190
15760W        W32234  17.495   3.109   0.927  0.1285  0.0564  0.2894
15761W        W32235   5.118   1.106  10.984 -0.1459  0.2140 -0.1371
15762W        W32236  13.696   6.002   5.025  0.2688  0.1445  0.0054
15763W        W32237   1.444   2.555  14.371 -0.1404  0.1056  0.1946
15764W        W32238   2.319   5.711  14.368 -0.0356 -0.0505 -0.1801
15765W        W32239   2.143   2.002  14.467  0.0268  0.1874  0.2781
15766W        W32240  11.088   0.928  12.072 -0.2094  0.1672 -0.3317
15767W        W32241  15.083   8.547  13.023 -0.1887 -0.3338 -0.0329
15768W        W32242   4.060  16.572   3.945  0.3103  0.1484 -0.1938
15769W        W32243   1.919   3.602   0.946 -0.2435 -0.1064  0.0258
15770W        W32244   4.122   5.747  11.696  0.1504  0.1620  0.0816
15771W        W32245  11.719   5.160   2.551  0.4914 -0.3970 -0.0154
15772W        W32246  12.790  18.791   5.064  0.3348  0.0488  0.2058
15773W        W32247  12.419  14.182   1.727  0.1137  0.0723  0.1457
15774W        W32248   2.061  16.990   4.488 -0.3143  0.1706 -0.2195
15775W        W32249   7.411   1.806   4.883 -0.1818  0.0589  0.1747
15776W        W32250   5.633  17.641   0.168 -0.0092  0.1621  0.1342
15777W        W32251   8.316  15.528   4.706  0.1224 -0.2816  0.3556
15778W        W32252  12.477  17.413   2.777  0.0650  0.4251 -0.0679
15779W        W32253   7.682   9.577   2.170  0.0253  0.1254 -0.0914
15780W        W32254   6.445   1.484  13.029 -0.1963  0.2271 -0.0131
15781W        W32255   7.180   7.161  11.299 -0.1539  0.2146  0.2081
15782W        W32256   7.497  14.361  10.747 -0.0358  0.0208 -0.1402
15783W        W32257   2.845  13.374  12.759 -0.0798  0.0348 -0.1066
15784W        W32258  11.906   3.691   1.199  0.0300 -0.1761 -0.3841
15785W        W32259  18.549  16.956   3.837  0.1109 -0.4895  0.0040
15786W        W32260   4.701   6.402   1.144  0.0268  0.1980 -0.2737
15787W        W32261   1.334   3.819  13.610 -0.0323 -0.0311  0.0959
15788W        W32262  10.044  11.005   2.476  0.1158 -0.0966  0.5118
15789W        W32263   4.657   3.793   2.138  0.0012 -0.0652 -0.3164
15790W        W32264  14.849   0.533   3.061 -0.0644 -0.3389 -0.0691
15791W        W32265  19.111   2.806   1.806  0.1341  0.2912 -0.0798
15792W        W32266  12.399   0.232  14.300 -0.0229 -0.0340  0.0659
15793W        W32267   1.642  14.575  12.776  0.1912 -0.0011  0.1772
15794W        W32268   2.822   2.564   0.362  0.0535 -0.0509 -0.3163
15795W        W32269   7.903  12.251   5.314  0.0393 -0.3330  0.0240
15796W        W32270   5.193   4.425   2.247 -0.2566 -0.0609 -0.2373
15797W        W32271  17.085   1.108  14.343 -0.0393  0.0226  0.1195
15798W        W32272  18.974   1.387   1.870  0.1540  0.2395 -0.0821
15799W        W32273  13.671   6.807   9.852  0.2104 -0.1312 -0.0154
15800W        W32274   9.728   1.322  11.271 -0.0130  0.1317  0.1693
15801W        W32275  15.969  12.428   0.685  0.1486  0.1151  0.1070
15802W        W32276  13.754  13.199  12.846 -0.2707 -0.0321 -0.3069
15803W        W32277   4.142  15.985  10.632 -0.2142 -0.0208  0.1843
15804W        W32278   4.514   9.416  14.260 -0.0925  0.0061 -0.2738
15805W        W32279   8.648   9.345  12.605 -0.2767  0.3099  0.3202
15806W        W32280   4.609   7.729   1.362 -0.1641  0.1965  0.2250
15807W        W32281  14.349  15.453   1.605 -0.1900  0.0911  0.2629
15808W        W32282   4.867   0.520  14.786 -0.2216 -0.0153  0.1573
15809W        W32283   4.321  10.370  10.820  0.2037  0.0819  0.1358
15810W        W32284   0.893   5.176  14.201  0.2504  0.1395 -0.0113
15811W        W32285  17.461  10.831  13.382  0.1224  0.2629 -0.0407
15812W        W32286  15.484   5.146   2.791  0.0929  0.2052 -0.2197
15813W        W32287   0.810   6.962  14.569  0.1524  0.0591 -0.0315
15814W        W32288   9.835   8.782  13.109  0.5923  0.0673  0.1087
15815W        W32289  14.391   6.698   4.410  0.3263 -0.0300 -0.1292
15816W        W32290  15.959  16.807  10.502 -0.1456 -0.1253  0.2751
15817W        W32291   2.067  18.903  13.970 -0.1811  0.0559  0.0728
15818W        W32292  17.244  14.970   3.643  0.0508 -0.2804  0.0515
15819W        W32293   3.941  14.372  12.590 -0.0110  0.5042  0.1374
15820W        W32294   6.699  15.630  11.713  0.0467 -0.0274 -0.1087
15821W        W32295  12.701   8.249  14.241  0.1689 -0.1562 -0.3431
15822W        W32296   9.662   8.656   9.922  0.1229 -0.4369 -0.2922
15823W        W32297  12.698   7.887  14.580 -0.0637  0.3126  0.0467
15824W        W32298   1.893  12.552   5.123  0.0590  0.1635 -0.1396
15825W        W32299  11.856   9.062  12.579 -0.1026 -0.1604  0.0685
15826W        W32300  19.381   8.094  13.872  0.1051  0.1669 -0.0658
15827W        W32301  18.247  14.390   2.073 -0.2083  0.0443  0.1624
15828W        W32302   7.121  19.326   2.044 -0.3930  0.2628  0.1198
15829W        W32303   5.773  13.379   1.522  0.1205 -0.1254  0.0756
15830W        W32304  16.509  16.949   1.544  0.0891 -0.3308  0.1354
15831W        W32305   9.096  17.868   3.031 -0.0034  0.3751 -0.1349
15832W        W32306  17.549   7.649  10.514  0.0119  0.2239 -0.0384
15833W        W32307  13.068   5.070   3.983  0.3615 -0.1598  0.1035
15834W        W32308  16.344  15.678   0.419  0.0675 -0.1298 -0.3340
15835W        W32309   1.198  14.887  10.944  0.6370 -0.0111  0.2005
15836W        W32310   3.231  18.918   2.337  0.0511  0.1472  0.0836
15837W        W32311   2.065  13.677   0.401 -0.1787 -0.0831  0.1372
15838W        W32312   7.607   2.712  14.621  0.0117 -0.0193  0.2090
15839W        W32313   4.026   9.922   5.009  0.1009 -0.1227  0.2135
15840W        W32314  16.722   8.351  12.863 -0.0709  0.0274 -0.0172
15841W        W32315   8.961  13.197  10.992  0.0402  0.0247  0.2830
15842W        W32316   8.063  15.417  13.238  0.0054  0.1799  0.0287
15843W        W32317  10.955  10.322  13.384  0.0544  0.2543  0.2561
15844W        W32318   1.561  18.790   4.517 -0.1614  0.2119  0.1290
15845W        W32319   9.598  14.951  13.402 -0.0566  0.1864  0.2685
15846W        W32320   6.799   1.486   9.683 -0.2651  0.2987 -0.1107
15847W        W32321   6.929  11.705  10.880  0.3332  0.0338  0.0197
15848W        W32322  14.234  19.027  14.556  0.6285  0.1480  0.0572
15849W        W32323  16.409  11.462   4.497  0.3154  0.1792  0.0729
15850W        W32324  19.029  13.040   0.554  0.0666  0.0508  0.2426
15851W        W32325  17.780   0.939   3.556 -0.0964  0.0731 -0.0663
15852W        W32326   6.207   8.715   4.173  0.0883  0.1486 -0.4250
15853W        W32327   5.316   5.754   0.722  0.0413 -0.0678  0.1283
15854W        W32328   9.475  10.968   5.208  0.0277 -0.0212  0.0648
15855W        W32329   8.781   5.695  13.541 -0.0939 -0.0604  0.1419
15856W        W32330   1.332  13.813  14.236 -0.0409  0.2424 -0.2602
15857W        W32331   3.519   6.197  11.337 -0.0696 -0.2266 -0.0815
15858W        W32332  14.778  16.408  11.485  0.0445 -0.5381 -0.0362
15859W        W32333  17.126   0.353   2.826 -0.1561 -0.0503  0.0234
15860W        W32334   0.644   3.719   5.165 -0.0103 -0.0890  0.0176
15861W        W32335   6.049  12.207   0.123 -0.0161 -0.3024  0.1625
15862W        W32336   7.866   6.762   0.398  0.1392 -0.1616 -0.1891
15863W        W32337   3.403  11.931  11.275 -0.2783 -0.0159 -0.2549
15864W        W32338  18.122   7.029   4.115  0.2204 -0.1436 -0.1657
15865W        W32339  13.894   7.649   4.082 -0.1188  0.2910 -0.1175
15866W        W32340  13.851  10.835  10.425  0.1681  0.0358  0.1203
15867W        W32341  14.359   1.178   1.054  0.0444 -0.0629  0.0514
15868W        W32342  16.059   9.870  10.299 -0.2647  0.0397 -0.0560
15869W        W32343   5.293  10.857  13.410  0.1176  0.0927 -0.2467
15870W        W32344  15.197  16.280   1.047  0.0078  0.0809  0.0160
15871W        W32345  13.734   9.786   0.066  0.1108 -0.0945  0.0685
15872W        W32346   1.785   7.502   9.919  0.3536 -0.1470  0.2354
15873W        W32347  14.222  12.071   2.909  0.0128  0.0035 -0.0087
15874W        W32348   7.183  16.030   4.587  0.0146  0.2620 -0.1062
15875W        W32349   3.506  14.136  10.235  0.2282 -0.0860 -0.4676
15876W        W32350  13.953  10.854   4.448 -0.0284 -0.0684 -0.1131
15877W        W32351  15.538  10.308   3.783 -0.2585 -0.0458 -0.0683
15878W        W32352  12.825   9.299   3.987 -0.1219 -0.1577 -0.1484
15879W        W32353   4.597   6.930   2.692  0.1799 -0.1100  0.5873
15880W        W32354   0.154   2.915   2.299 -0.2739 -0.0976 -0.0225
15881W        W32355   2.548   5.114   0.657  0.2545  0.1322  0.1705
15882W        W32356   0.515   5.336   4.190  0.0109 -0.0573 -0.0027
15883W        W32357  18.175   0.959   2.453  0.0473  0.0177  0.0598
15884W        W32358   8.508   5.049   0.974 -0.1746  0.0975  0.1383
15885W        W32359   1.035   5.841  13.541 -0.2891 -0.0293 -0.1382
15886W        W32360  15.124  15.398   0.610 -0.0121  0.2289 -0.1535
15887W        W32361   1.672   2.619   2.665 -0.1598  0.0674 -0.1430
15888W        W32362   8.588   8.282   4.285 -0.2241  0.0098 -0.0322
15889W        W32363   2.707   8.776  12.288  0.0369 -0.1459 -0.1647
15890W        W32364   7.314   9.120  13.722 -0.0452  0.1287  0.0207
15891W        W32365   8.633   5.000   1.675  0.2042  0.2952 -0.0989
15892W        W32366  18.987  11.852   0.547 -0.1352  0.2793  0.2544
15893W        W32367  16.378   4.020   3.233 -0.1269 -0.1824 -0.0787
15894W        W32368  19.193  17.163   4.835 -0.1544 -0.0044  0.0340
15895W        W32369  13.089  15.106  12.891 -0.1044  0.0021 -0.0962
15896W        W32370   7.235   2.966  13.522 -0.2337  0.1278  0.3167
15897W        W32371   5.314   8.968   3.576  0.3197 -0.3023 -0.2078
15898W        W32372   8.204  10.591  14.725 -0.1276  0.1043 -0.0854
15899W        W32373  11.453   2.848  12.563 -0.2192  0.0125  0.0547
15900W        W32374  17.213  15.582  10.349  0.1794 -0.1364  0.1447
15901W        W32375   0.331  12.001   0.067 -0.1392  0.2141 -0.2817
15902W        W32376  16.434  13.359   0.417 -0.2703 -0.0885 -0.3751
15903W        W32377   7.248   1.153   0.482  0.2879  0.3387 -0.2557
15904W        W32378   8.733   5.116  12.980  0.2367  0.1000  0.3163
15905W        W32379   5.820   4.732  12.756  0.1742  0.2049  0.1431
15906W        W32380   7.139  12.436  11.075 -0.0998  0.1934 -0.0917
15907W        W32381   0.875   8.649  12.404  0.1127 -0.3736 -0.1510
15908W        W32382  10.724  15.307   4.095  0.3215 -0.3964 -0.0485
15909W        W32383  12.266  17.467  11.426  0.1113  0.3133 -0.1674
15910W        W32384  15.695   0.091   3.217 -0.2701  0.1134  0.3032
15911W        W32385   8.862   6.336   1.340  0.1613 -0.0788 -0.0410
15912W        W32386   7.048   5.587   1.133 -0.1740  0.1759 -0.0447
15913W        W32387  15.851   1.164   0.115 -0.1904  0.2537  0.0500
15914W        W32388   4.230  15.191  14.622 -0.3794  0.1588  0.0784
15915W        W32389   8.631  10.342  12.500 -0.0798 -0.3913  0.0394
15916W        W32390  14.232  16.628   4.707 -0.2111 -0.1273 -0.2575
15917W        W32391   8.235   0.544   2.770  0.3164  0.1592 -0.0162
15918W        W32392  11.537  11.220   3.643 -0.1042  0.1524 -0.3983
15919W        W32393   6.682  13.787   4.538 -0.2440  0.0420  0.1892
15920W        W32394  17.550  17.222  14.231  0.4102  0.0468 -0.1887
15921W        W32395  11.634  12.173  14.319  0.1394  0.3824  0.0022
15922W        W32396   5.732   3.143   1.620 -0.2725 -0.1547  0.2471
15923W        W32397  17.391   4.951  12.980 -0.2976 -0.1147  0.1916
15924W        W32398  10.300  12.981   3.567  0.1292 -0.1126 -0.0263
15925W        W32399  11.265  19.196  12.127 -0.0644 -0.2012  0.1344
15926W        W32400   7.655   3.019  12.528 -0.0594  0.2999  0.1705
15927W        W32401  14.805  16.683  13.250  0.0197  0.3803 -0.3987
15928W        W32402   8.623  11.577   5.314 -0.3548 -0.0507 -0.1284
15929W        W32403   7.415  11.919  14.295 -0.1803  0.0121 -0.2858
15930W        W32404  19.271   4.594   0.431 -0.0227 -0.2655  0.0598
15931W        W32405  19.268   7.237   1.557 -0.1320  0.2603 -0.0580
15932W        W32406  12.404   7.992   0.688  0.3166  0.1026  0.0484
15933W        W32407  18.684   8.921  13.035  0.1125  0.1331  0.1046
15934W        W32408   6.751  10.769  10.476 -0.0345  0.2110 -0.1192
15935W        W32409  15.968   9.740   2.430 -0.4846 -0.1051  0.0750
15936W        W32410   4.585   4.032   9.006 -0.1837  0.2676  0.0130
15937W        W32411   9.253  18.215   4.484 -0.2506 -0.0564  0.0954
15938W        W32412   0.646   7.449   4.197 -0.1912  0.1316  0.0394
15939W        W32413   6.410   6.794   9.395  0.2097 -0.4928 -0.1692
15940W        W32414   8.705  18.449   3.958  0.0351 -0.0537  0.0908
15941W        W32415   2.135   2.650   5.073  0.0819  0.1140 -0.0851
15942W        W32416   0.352   2.019   1.108  0.3153  0.3810  0.0232
15943W        W32417  11.509  10.511  14.676  0.3779  0.0862  0.1790
15944W        W32418   3.766   9.926  10.954 -0.0160 -0.1019  0.0196
15945W        W32419   5.904   5.626  10.249  0.1250 -0.2707 -0.2090
15946W        W32420  12.231   0.884   3.520 -0.1463 -0.0213 -0.1661
15947W        W32421   0.891  14.783  11.687  0.2185 -0.0973  0.0200
15948W        W32422   2.852  16.409   2.556 -0.2087  0.5265  0.3600
15949W        W32423   2.789  17.815   4.538 -0.1593 -0.0387  0.1007
15950W        W32424  11.289   5.540   1.356  0.0729 -0.1083 -0.2720
15951W        W32425  14.519  16.537  12.232  0.0116  0.1885 -0.0111
15952W        W32426   1.116  10.317  14.424  0.0004  0.2682  0.0477
15953W        W32427   5.996   9.589  14.849  0.1843 -0.1055  0.2046
15954W        W32428   0.922   0.142  12.596 -0.2972  0.2604  0.0963
15955W        W32429  11.642   5.813  13.757 -0.4152  0.2776  0.5365
15956W        W32430   9.217   7.511  14.788 -0.0162 -0.1264  0.1175
15957W        W32431  17.282   2.727  12.084 -0.0055  0.2517 -0.0619
15958W        W32432  14.752  15.111   4.077  0.1150  0.0546  0.0193
15959W        W32433  12.732   9.995  12.071 -0.8231  0.1577  0.0111
15960W        W32434   3.202   8.706   2.226 -0.3468 -0.0760  0.0463
15961W        W32435   0.244  15.174   5.017 -0.0652  0.0924 -0.2437
15962W        W32436  17.790   3.288   1.832  0.1775  0.2449  0.0905
15963W        W32437   3.848  15.467   2.896 -0.1698  0.1204 -0.0804
15964W        W32438   7.016   2.316  12.601 -0.4909 -0.0260  0.1489
15965W        W32439   3.843   4.645   2.994  0.1011  0.2320 -0.1826
15966W        W32440   3.433   0.043   2.340  0.1574  0.1303  0.2110
15967W        W32441   7.515   5.451  10.368  0.2923 -0.2618  0.2768
15968W        W32442   6.180  18.255  13.226 -0.2536 -0.2286 -0.0086
15969W        W32443   7.543  18.957  14.581 -0.0014  0.1064 -0.3725
15970W        W32444  16.681  11.899  14.156 -0.0756 -0.1380  0.1527
15971W        W32445  16.017   1.306  13.566  0.1825 -0.1322 -0.0895
15972W        W32446   6.777   8.189   2.861 -0.1518  0.1608 -0.1972
15973W        W32447  17.883   5.018  10.857 -0.2556  0.1816  0.1237
15974W        W32448  13.820  10.397  13.030  0.2453  0.1847  0.0748
15975W        W32449  16.790   9.424   4.885 -0.1288 -0.0906 -0.0776
15976W        W32450   8.427  17.446   9.722  0.4475  0.2836  0.2848
15977W        W32451  10.456  15.733   2.233 -0.1809  0.2538 -0.1805
15978W        W32452  11.685   8.370  14.383 -0.1736  0.1238 -0.0035
15979W        W32453   0.642  11.234   1.073  0.2981 -0.1191  0.1188
15980W        W32454   5.639  15.704   3.927  0.0811  0.1611  0.1664
15981W        W32455   5.843   1.582  11.490  0.1389 -0.1851 -0.1099
15982W        W32456   6.101   8.311   0.028 -0.2084  0.0037  0.2541
15983W        W32457   7.876   8.308   4.545 -0.3267  0.1430  0.1425
15984W        W32458   0.984  12.703  11.180  0.0459  0.1278  0.0127
15985W        W32459  13.262   5.978  11.027 -0.0779 -0.0542  0.0854
15986W        W32460   2.695  19.078  12.401  0.1571 -0.1995  0.2788
15987W        W32461   3.397   7.384   1.351  0.2240  0.0924  0.1855
15988W        W32462   8.495  12.635   4.746 -0.1631 -0.1539 -0.4837
15989W        W32463   5.378  16.793  14.231 -0.0593 -0.3554  0.0770
15990W        W32464   7.138   5.083   2.722 -0.0269 -0.0537 -0.3287
15991W        W32465   5.116  12.870  14.486 -0.1586 -0.1083 -0.0882
15992W        W32466   6.353   6.502   2.417  0.2215  0.5065  0.0641
15993W        W32467  14.754  14.260   0.542 -0.3794 -0.1022 -0.2839
15994W        W32468   9.253  10.912   3.131 -0.0813  0.0927  0.1308
15995W        W32469   9.768  17.457  13.523  0.2148 -0.5204  0.1801
15996W        W32470  15.535   8.803   3.559  0.3878 -0.3825  0.0358
15997W        W32471   8.587   9.746   1.306 -0.1714 -0.2360 -0.3259
15998W        W32472   3.270   9.327   4.306 -0.3550 -0.1383  0.5138
15999W        W32473   4.783   8.608   1.446 -0.0768 -0.1244 -0.2250
16000W        W32474   5.451   3.582  11.445 -0.1965 -0.0234  0.2364
16001W        W32475   6.239   2.521   3.989 -0.1050  0.0320 -0.2099
16002W        W32476   4.639  18.332   1.395 -0.3480 -0.0432  0.3885
16003W        W32477   9.436  17.116  12.723 -0.0645  0.0616  0.2019
16004W        W32478   4.111  15.830   0.752  0.1261 -0.2150 -0.1687
16005W        W32479  13.687  17.690   1.580 -0.0609  0.1249  0.1934
16006W        W32480   1.191  10.110  11.318  0.2087  0.5672  0.1236
16007W        W32481  16.660   2.582   1.754 -0.1591  0.0578  0.1819
16008W        W32482  10.483  16.108  11.426 -0.1589  0.0218 -0.1435
16009W        W32483  11.097   3.511   0.314 -0.2178 -0.0959 -0.1444
16010W        W32484  10.083   5.092   2.599 -0.1446 -0.3673  0.4600
16011W        W32485  12.665   1.724   3.116 -0.2218 -0.2468 -0.0976
16012W        W32486  10.293   5.319   3.645  0.2651 -0.1262  0.1395
16013W        W32487  18.763   8.196   0.628  0.0298 -0.0341 -0.0282
16014W        W32488   9.638   7.713  14.073 -0.0674 -0.1185 -0.0979
16015W        W32489  14.937  13.225  14.271 -0.1510 -0.0090 -0.2929
16016W        W32490  16.021   6.423   0.828 -0.3110 -0.3142 -0.0632
16017W        W32491  14.794   6.550  12.267  0.1390  0.1076 -0.1435
16018W        W32492  11.651  12.868  11.138 -0.1273 -0.0945  0.2284
16019W        W32493   1.043  11.605   5.121  0.4419  0.0659 -0.0045
16020W        W32494  13.352   8.828   2.458 -0.0145 -0.0863 -0.2722
16021W        W32495  16.755  12.739   0.696  0.0803  0.1009  0.0461
16022W        W32496   9.308   4.323   0.168  0.0252 -0.0517 -0.1313
16023W        W32497  12.744   4.326  10.891 -0.2725  0.2314  0.0246
16024W        W32498  16.368   3.261   4.020 -0.1998 -0.1562 -0.1465
16025W        W32499  13.171  17.496   3.770  0.1578 -0.2060  0.1858
16026W        W32500  19.289   9.023   3.430 -0.2773 -0.1739 -0.0025
16027W        W32501  10.113  17.952  10.252  0.0601 -0.1305  0.2745
16028W        W32502  13.968   9.504   4.123  0.0385  0.2972  0.1220
16029W        W32503  10.407   5.293   9.846 -0.1312 -0.2929  0.1309
16030W        W32504  13.374  16.098   5.369  0.0034 -0.0944 -0.0194
16031W        W32505  14.779  12.184   4.801 -0.1260  0.1039 -0.1802
16032W        W32506  16.456  16.695   0.178  0.1632  0.0332  0.0862
16033W        W32507   6.664   7.153  10.648  0.0901  0.1553 -0.1703
16034W        W32508  10.751  12.089  11.805 -0.0626 -0.0816  0.0712
16035W        W32509   3.841  14.127   4.811 -0.1087  0.0385 -0.1699
16036W        W32510   1.108   4.251   2.326 -0.1363 -0.1058 -0.1156
16037W        W32511  16.198  12.444  13.439 -0.2237 -0.3374  0.4568
16038W        W32512  11.018   4.507  12.026 -0.0030 -0.1625  0.3060
16039W        W32513  12.028   9.760  12.454  0.2498 -0.0080  0.0182
16040W        W32514  17.035   6.941   3.139  0.0932 -0.0927  0.1732
16041W        W32515  13.396  18.392  11.484 -0.3511 -0.0706 -0.0537
16042W        W32516   6.925  19.094  11.412 -0.3517  0.1162  0.0440
16043W        W32517   9.202   9.844  10.059 -0.0003 -0.0638  0.0251
16044W        W32518  18.158   0.205  14.112  0.1219  0.1029 -0.1749
16045W        W32519  10.328   4.515  12.476 -0.3027 -0.2091  0.1790
16046W        W32520   6.302   2.497   9.779  0.1454 -0.2082  0.2184
16047W        W32521  17.354   8.967   1.558  0.0951  0.3097 -0.3429
16048W        W32522  17.768   3.866  11.442  0.3213  0.0231 -0.0770
16049W        W32523  16.832   9.265   4.017 -0.1465  0.0077 -0.2475
16050W        W32524  10.156  17.778  12.681 -0.2666 -0.0033  0.0059
16051W        W32525   7.150  11.313  10.493  0.0741 -0.1273  0.3465
16052W        W32526   0.882  12.595  12.142  0.3385 -0.1603  0.1349
16053W        W32527  14.349  13.092  11.760  0.1929  0.3470  0.0367
16054W        W32528  11.815   4.376   3.615 -0.2582 -0.3137 -0.0108
16055W        W32529  12.876  12.920   4.845 -0.1012  0.0062  0.3694
16056W        W32530  12.207   6.138  10.950 -0.0239  0.1019 -0.1503
16057W        W32531  13.222   6.746   4.767  0.3828  0.1213  0.1317
16058W        W32532   9.201   7.362  13.204 -0.2577  0.0745  0.0656
16059W        W32533   0.976  16.305   5.016 -0.2860  0.2332  0.0554
16060W        W32534   6.746   6.777  12.101  0.0721 -0.0512  0.0323
16061W        W32535   8.274  15.211   2.001 -0.0350 -0.2012 -0.2961
16062W        W32536  19.133  18.490   2.434 -0.0885 -0.0845 -0.0584
16063W        W32537  10.975   1.233   0.918 -0.0463 -0.2677 -0.1244
16064W        W32538   6.435   7.286   3.630  0.2501  0.2550 -0.0383
16065W        W32539  13.150  16.977   4.967 -0.0160 -0.0654 -0.3392
16066W        W32540  14.043   1.586  10.415 -0.4693 -0.1576  0.0672
16067W        W32541   2.613   6.845  10.923  0.1591 -0.0376 -0.1153
16068W        W32542  16.332  18.608  12.532 -0.1358  0.0057 -0.0735
16069W        W32543  15.115   3.675  11.122 -0.0198 -0.2363 -0.0953
16070W        W32544   5.959   5.551  13.677  0.1470 -0.0094  0.0606
16071W        W32545   1.104  19.189  11.251 -0.3222 -0.1047 -0.2482
16072W        W32546  17.882  16.835  13.329 -0.2386 -0.0907  0.1993
16073W        W32547  17.136   6.614   2.490 -0.0127 -0.1795 -0.0164
16074W        W32548  11.167  14.027   3.889 -0.0500  0.3039  0.0385
16075W        W32549  13.922   1.568   3.606  0.0809 -0.1761  0.1659
16076W        W32550  10.544   7.205   9.969 -0.3232 -0.1442 -0.1275
16077W        W32551   7.504  18.931  10.523  0.0589 -0.1078 -0.1013
16078W        W32552  17.303  12.604   2.942 -0.1932 -0.1500  0.3853
16079W        W32553  10.427  12.103   0.524  0.4585 -0.1469 -0.2498
16080W        W32554  19.349   8.390  12.092  0.0992  0.2205 -0.2038
16081W        W32555  17.250   1.313   2.947  0.2331  0.0861 -0.3092
16082W        W32556  14.396  17.342   2.921 -0.0980 -0.0267 -0.1511
16083W        W32557  18.791   1.173  13.792 -0.0093  0.4785 -0.1598
16084W        W32558  16.493   9.997  10.642  0.0019  0.2984  0.2019
16085W        W32559   2.017   9.208   1.750 -0.0008  0.0250 -0.1091
16086W        W32560  12.768   9.882   4.688 -0.3194 -0.1313 -0.3091
16087W        W32561  15.021  10.364   3.601 -0.1157 -0.0624 -0.1403
16088W        W32562  16.405   2.423   2.550 -0.0758 -0.0407 -0.1398
16089W        W32563  18.239   6.218  13.263  0.3566  0.1119 -0.0437
16090W        W32564  18.044  16.688  12.493 -0.0159 -0.2487 -0.3623
16091W        W32565   6.769   6.923   1.436 -0.3848  0.0138 -0.0914
16092W        W32566  14.810   0.053   1.343 -0.2595 -0.0551 -0.2148
16093W        W32567  11.636  17.012  14.271 -0.2231  0.0937  0.0767
16094W        W32568   1.215  11.359  13.166  0.3200  0.2098 -0.0261
16095W        W32569   8.209  10.626   2.771 -0.2296 -0.1827 -0.0753
16096W        W32570  11.908   9.942   1.492  0.0168 -0.1187  0.2373
16097W        W32571   5.615   2.075  10.214  0.2020 -0.0081 -0.2834
16098W        W32572   6.350   9.404  12.326  0.1104 -0.2440 -0.0264
16099W        W32573   0.686  12.337   1.808  0.0132 -0.2462 -0.1252
16100W        W32574  11.757  11.049   0.435  0.1377  0.0348  0.1648
16101W        W32575   7.132  10.038  10.107 -0.1679  0.1983  0.2243
16102W        W32576   8.494  17.428   1.324 -0.0930  0.0716 -0.0377
16103W        W32577   8.502   4.408   9.623  0.1105 -0.1639 -0.0063
16104W        W32578   1.575  12.244   5.766 -0.1585  0.4066 -0.1153
16105W        W32579  13.962  12.380  11.689 -0.0463 -0.4048 -0.0142
16106W        W32580  11.165   6.370   1.888  0.1344 -0.1575 -0.2882
16107W        W32581   8.776   0.719  10.740  0.0771 -0.0697 -0.1937
16108W        W32582  10.269   9.298  14.642  0.1550  0.1345  0.1085
16109W        W32583   7.032   6.162   1.039  0.0506  0.1859 -0.1501
16110W        W32584  14.593   8.987   0.373 -0.3168 -0.2961  0.0173
16111W        W32585   5.406   7.519  14.371  0.3315 -0.0626 -0.5172
16112W        W32586  10.743   0.864  10.631  0.0055  0.0898 -0.2713
16113W        W32587  17.071  14.541  12.684  0.0805  0.1915 -0.0949
16114W        W32588   5.767  12.957   3.110  0.0786  0.0496  0.0847
16115W        W32589  10.377   9.840  14.068  0.1506  0.2284 -0.1382
16116W        W32590  19.332  12.761   3.264 -0.0108  0.0603 -0.0187
16117W        W32591  19.062  12.470   5.515 -0.0844 -0.3688 -0.1916
16118W        W32592  14.008  18.734   5.014 -0.0937 -0.2341 -0.3130
16119W        W32593  11.559  14.820   0.951 -0.1419  0.1880 -0.1648
16120W        W32594   7.345   9.238   3.973  0.0909 -0.1623  0.1971
16121W        W32595   8.366   8.272   3.827 -0.1406  0.0513  0.0914
16122W        W32596   9.080   5.311  10.966 -0.0092  0.5299  0.0743
16123W        W32597   9.823  16.374   1.950 -0.0437 -0.0416 -0.2041
16124W        W32598   3.990   8.975   4.825  0.1673 -0.0277 -0.1319
16125W        W32599  10.048  15.647  14.065 -0.3365  0.1395 -0.0056
16126W        W32600  17.711   2.289   2.150  0.0095 -0.1698  0.0962
16127W        W32601   1.593  11.347  14.023  0.1199  0.1049 -0.0699
16128W        W32602  17.414  14.236  12.456  0.0587 -0.2666 -0.0615
16129W        W32603   4.235  17.587  12.075  0.1549 -0.0005 -0.0931
16130W        W32604  12.146  13.309   2.374 -0.1095 -0.1467 -0.2069
16131W        W32605   8.730   4.751   3.405 -0.2141  0.2545 -0.2161
16132W        W32606   5.743  15.580   2.782  0.0678  0.0262  0.2828
16133W        W32607   4.733   3.814  13.815  0.3157  0.0197 -0.3621
16134W        W32608  16.409  11.756  12.053  0.0031 -0.0044 -0.0967
16135W        W32609  12.658  10.970   3.868  0.3073 -0.1074  0.4042
16136W        W32610   7.287  13.940   1.067  0.1676 -0.1064  0.1216
16137W        W32611   9.351   7.615  12.674 -0.0126 -0.2976  0.2636
16138W        W32612   1.294  16.523   0.205 -0.2063  0.0484 -0.0240
16139W        W32613   4.077   4.686  11.344 -0.1669 -0.1156  0.0762
16140W        W32614   2.259  10.553   2.243  0.0059 -0.3154 -0.3193
16141W        W32615  15.287   8.905  13.391  0.1660  0.0667  0.0900
16142W        W32616   4.019   5.358   2.518  0.3079 -0.0812 -0.0208
16143W        W32617   7.379   0.819   2.669 -0.1485  0.0739  0.3433
16144W        W32618   1.792   6.553   0.446 -0.0384 -0.1551 -0.1399
16145W        W32619  13.311  10.950   2.531  0.0511 -0.0755  0.0683
16146W        W32620  10.677   3.845  14.121 -0.1136  0.0308 -0.2332
16147W        W32621   6.321  17.574   0.139 -0.4193 -0.1340 -0.1049
16148W        W32622  19.380   5.915  10.647  0.0615  0.0102 -0.0628
16149W        W32623   4.728   0.346   1.164  0.0673  0.0481  0.1700
16150W        W32624   0.225  13.931   4.423 -0.1474  0.0368 -0.1374
16151W        W32625  14.456   2.681  11.973 -0.0507  0.1150  0.1160
16152W        W32626  10.105   1.053   2.392  0.2868 -0.2991  0.2135
16153W        W32627   6.406  18.782  10.787  0.0263 -0.0193  0.2544
16154W        W32628  19.240   1.479   0.431  0.0423  0.1753  0.3924
16155W        W32629   0.716   9.039   1.915  0.0500 -0.3726 -0.1263
16156W        W32630   0.425  16.774  11.421  0.0247  0.0003 -0.0731
16157W        W32631  14.800  14.051  13.817  0.0612  0.2265 -0.1155
16158W        W32632  12.958  11.836  13.975 -0.1624  0.1123  0.2390
16159W        W32633   7.522  11.118  13.048 -0.1926  0.4260  0.1250
16160W        W32634  15.791   4.000  11.457  0.2877  0.1317  0.0053
16161W        W32635   7.854  11.357   0.229 -0.0642  0.0990  0.1166
16162W        W32636   7.152   2.723   1.491 -0.4050  0.2062 -0.1262
16163W        W32637  12.070   6.627  10.779 -0.0954  0.3965  0.2658
16164W        W32638   4.327  12.999   1.663 -0.0860 -0.1239  0.0825
16165W        W32639   0.313  12.538   1.308  0.0631  0.1601  0.1762
16166W        W32640   7.145  10.298  11.894 -0.1653 -0.1833  0.1812
16167W        W32641   0.554  18.426  11.035  0.1085  0.1712 -0.0476
16168W        W32642   2.731   8.484   4.425  0.0648 -0.2385  0.1259
16169W        W32643   0.913   7.968  14.395  0.0972  0.0379  0.1687
16170W        W32644  16.133   5.403   9.289 -0.0832  0.3157  0.3614
16171W        W32645   3.138  13.874  13.025  0.3212  0.0717  0.1648
16172W        W32646  16.859   3.585   1.829 -0.1392 -0.1858 -0.0189
16173W        W32647   7.953   9.028   4.088 -0.0224 -0.1831  0.2942
16174W        W32648  17.583   3.652  11.013 -0.0285 -0.0532 -0.1040
16175W        W32649   0.229  13.519   4.088 -0.0695 -0.2193  0.1249
16176W        W32650   9.561   3.047   1.932 -0.0227  0.2308  0.3822
16177W        W32651   6.464   8.663   0.323  0.2231 -0.1994 -0.2730
16178W        W32652  14.794   3.505  14.691 -0.1129 -0.3072 -0.2278
16179W        W32653  12.573   0.646   1.292 -0.3312  0.0976  0.1929
16180W        W32654  17.291   0.361   3.423 -0.1668 -0.0643  0.2912
16181W        W32655   2.594  15.395  11.832 -0.2622  0.0709  0.1062
16182W        W32656   5.798  18.309  10.225  0.0105  0.0983 -0.1287
16183W        W32657   1.857  19.366  14.057 -0.2210  0.0397  0.4438
16184W        W32658  15.189  14.410  12.670  0.0012 -0.0538  0.0335
16185W        W32659  16.165  13.989   2.027 -0.1541  0.1086 -0.0977
16186W        W32660   1.397   2.663   4.785 -0.0658 -0.3836 -0.3413
16187W        W32661  11.877  15.601   9.691  0.2270 -0.2666  0.0478
16188W        W32662  12.993   2.560  11.297 -0.1810  0.3385  0.0538
16189W        W32663  18.475   4.414  11.559 -0.1442 -0.3003 -0.2183
16190W        W32664   6.462   1.982  10.427  0.1168 -0.3462 -0.1704
16191W        W32665  12.243   3.147  10.496 -0.1727 -0.0751  0.0968
16192W        W32666  14.432   3.127   0.442 -0.2050  0.1510  0.0294
16193W        W32667   7.477   4.548  12.866 -0.2369 -0.2663 -0.1006
16194W        W32668  18.713   8.308   9.862  0.1964  0.0007 -0.1317
16195W        W32669  12.777  16.666  13.509 -0.0254  0.1739  0.0604
16196W        W32670  14.554   3.480  13.562 -0.2170 -0.2465  0.4337
16197W        W32671  11.454  17.956   3.711  0.1047 -0.2413 -0.0024
16198W        W32672  16.836  15.884   4.659 -0.2338  0.0452  0.3378
16199W        W32673  14.608  15.898   1.572  0.1737  0.1401  0.4074
16200W        W32674  13.535  17.787   3.275 -0.3068 -0.2923  0.0108
16201W        W32675  14.397  18.207  10.734  0.0515  0.4920  0.0768
16202W        W32676  16.477   7.005  12.075  0.0985 -0.0028  0.2410
16203W        W32677  18.605   2.565   0.409 -0.0014  0.0221 -0.1539
16204W        W32678   4.819   0.482  13.321 -0.2295  0.0205  0.2227
16205W        W32679   3.141   6.002  10.709 -0.1296  0.0754 -0.1307
16206W        W32680  14.001   5.874   0.610 -0.0281  0.1284  0.4974
16207W        W32681  12.699   6.706  14.031 -0.0303 -0.0703  0.0292
16208W        W32682  16.770   3.201   1.498  0.1560  0.4164 -0.3757
16209W        W32683   5.721  10.380   3.480 -0.2340  0.0363  0.3705
16210W        W32684  17.550  15.607  12.061  0.0283  0.0627  0.0567
16211W        W32685   3.309   2.753   0.601  0.0871 -0.0369 -0.2730
16212W        W32686   9.137  18.775   3.123 -0.1097 -0.1052  0.5464
16213W        W32687   0.503  17.734  13.410  0.0040  0.1592  0.2579
16214W        W32688  12.487   1.632  10.882  0.1492 -0.0051 -0.0242
16215W        W32689  16.508   6.446   4.924 -0.1414 -0.1036  0.0096
16216W        W32690  14.085   0.642   3.333  0.1391 -0.2450 -0.0327
16217W        W32691   7.888  10.957   1.749  0.1570 -0.3506 -0.1056
16218W        W32692  16.858  10.359  13.200  0.1844  0.1177  0.3935
16219W        W32693  14.706  17.952   4.687 -0.5120  0.1898  0.1488
16220W        W32694  10.237   1.853   2.840 -0.1717 -0.1603  0.1679
16221W        W32695   8.506  12.339   3.484  0.0849  0.2441  0.2456
16222W        W32696  18.025   7.393  13.212 -0.3958  0.1941  0.3844
16223W        W32697   0.171   6.665   4.019 -0.1688 -0.1184 -0.2396
16224W        W32698   4.731  16.902   5.188  0.3051 -0.1848 -0.1129
16225W        W32699  16.033  15.652   4.428  0.0485 -0.0503  0.3528
16226W        W32700   6.438   1.622   1.408 -0.0538  0.0707 -0.0560
16227W        W32701  11.057   5.471  13.984  0.1035  0.0230 -0.1284
16228W        W32702  13.240   7.733   3.433  0.2209 -0.2170  0.2564
16229W        W32703   5.947   5.444   3.208  0.2278  0.1378  0.1597
16230W        W32704   9.295   8.428   9.604  0.2301  0.2951  0.0334
16231W        W32705   6.494   4.970   0.275 -0.1318 -0.2449  0.1623
16232W        W32706  11.050   8.344  14.540 -0.1297  0.0530  0.0331
16233W        W32707  11.571  18.676  14.353 -0.0967  0.0643 -0.0637
16234W        W32708   8.701   4.146   1.092 -0.1242 -0.0944  0.0527
16235W        W32709  16.701  11.200  13.290  0.3449 -0.1104 -0.1801
16236W        W32710  17.888   9.953  11.961  0.1468 -0.3026  0.0881
16237W        W32711  15.795  15.048   3.735  0.0481 -0.0168 -0.0576
16238W        W32712  18.113   5.103   1.127  0.5632  0.0344  0.4034
16239W        W32713  17.401  11.229   1.635 -0.0204  0.0783 -0.0790
16240W        W32714   0.168   7.996  13.418 -0.2479  0.0336 -0.2171
16241W        W32715  11.444  19.358   3.589 -0.1895 -0.0990 -0.0842
16242W        W32716  10.916   1.670  13.979 -0.2033  0.3652 -0.2149
16243W        W32717   8.746  14.294   2.754 -0.0955  0.2065  0.0313
16244W        W32718  13.969  11.399  12.465 -0.1996  0.1147  0.0037
16245W        W32719  12.031   5.629  10.712  0.1433 -0.3313  0.0382
16246W        W32720   2.415   7.137  10.556 -0.2543  0.0853 -0.0756
16247W        W32721   3.392   1.662  10.085 -0.1875  0.2971  0.1131
16248W        W32722  12.287  14.497   3.577  0.2859  0.0149 -0.0769
16249W        W32723  15.383   4.916   3.472 -0.0913  0.0739  0.0726
16250W        W32724  17.509   8.570  10.797  0.1509  0.1347  0.3424
16251W        W32725   3.614   0.840  14.656  0.0702 -0.0050 -0.0452
16252W        W32726   7.629  17.354   1.382  0.1654 -0.2423 -0.2276
16253W        W32727  14.078   4.377  12.590 -0.2446  0.2172  0.4449
16254W        W32728   3.280  19.092  14.646 -0.1905 -0.1288  0.1534
16255W        W32729   6.616  11.298   1.488 -0.2603 -0.2829 -0.1153
16256W        W32730   3.863  13.854  11.395  0.1796  0.2948  0.0221
16257W        W32731  17.214  14.052   2.891  0.1838  0.3143  0.1596
16258W        W32732   2.014   1.552  14.099  0.0102  0.0008  0.2616
16259W        W32733  18.918   0.581  14.544 -0.1679 -0.3485  0.1198
16260W        W32734  10.793  18.640   3.209 -0.0419 -0.1401  0.0853
16261W        W32735   9.781  13.264   3.932 -0.1885  0.1608  0.2732
16262W        W32736  17.352  10.530  12.430 -0.1076  0.3468  0.0906
16263W        W32737   7.605  17.816   0.501 -0.0182  0.2100  0.2581
16264W        W32738   2.602   6.717  10.331 -0.1608 -0.0660 -0.1532
16265W        W32739   0.437   3.044   0.987  0.3838 -0.1299  0.0038
16266W        W32740  18.658  11.600  11.457 -0.0674  0.0769  0.0258
16267W        W32741  10.656   7.480   4.876  0.1192 -0.2187  0.0101
16268W        W32742   3.226  18.479  14.732 -0.0936 -0.0307 -0.0248
16269W        W32743   4.818   5.511  14.354 -0.1007  0.0740  0.0173
16270W        W32744   5.515   4.120   4.412  0.2796 -0.0714 -0.1136
16271W        W32745   4.506  17.852  14.846 -0.0806  0.0186  0.1286
16272W        W32746  14.239  15.015  10.020 -0.2332 -0.2516 -0.3389
16273W        W32747   5.893   4.329   4.877  0.0152  0.1015 -0.5339
16274W        W32748   1.568   7.886   2.753 -0.0223  0.0413 -0.0020
16275W        W32749  10.052  18.986   0.751 -0.1443 -0.0518 -0.1866
16276W        W32750  13.261   0.790   4.981 -0.2103  0.3707 -0.1435
16277W        W32751   6.996  14.593  11.340 -0.1125  0.1762 -0.0359
16278W        W32752  15.119  14.399   1.003 -0.0135  0.1234  0.0435
16279W        W32753  17.336   8.439   3.943  0.4024 -0.1053  0.2578
16280W        W32754   5.566   9.868   1.331  0.0005 -0.4680  0.0844
16281W        W32755   4.347   1.088  13.058 -0.1761 -0.0894  0.2078
16282W        W32756  12.227   1.771   4.888 -0.4893  0.0029 -0.0952
16283W        W32757  13.240   1.587  12.549  0.1818  0.1235  0.0308
16284W        W32758   7.774   4.676   4.200 -0.0079  0.2156  0.2139
16285W        W32759   0.439  16.755  10.212 -0.1469 -0.1580 -0.1761
16286W        W32760  16.034   5.103   4.644  0.2076  0.2460  0.3266
16287W        W32761  18.873   8.685   9.635  0.1781  0.0922  0.1022
16288W        W32762  18.139   4.380   3.098 -0.0213  0.0967  0.0426
16289W        W32763   4.935   4.362  10.276 -0.0776 -0.0520  0.0575
16290W        W32764   3.996  10.936  14.827  0.0353 -0.0219 -0.1672
16291W        W32765  10.836   6.762   1.930 -0.1054  0.0451  0.1756
16292W        W32766  10.458  10.585   5.451  0.2872  0.0629 -0.3642
16293W        W32767   6.393   6.537  10.224  0.2384 -0.1818 -0.1247
16294W        W32768  13.892  18.093  13.245  0.1400 -0.2633  0.0261
16295W        W32769   3.329  14.386   1.836 -0.0663  0.3186  0.0775
16296W        W32770   5.891   7.312  14.277  0.1648 -0.0013  0.1075
16297W        W32771   7.717  10.355  14.777 -0.0700  0.1266 -0.0038
16298W        W32772   4.224  16.405   1.758 -0.0200  0.0547 -0.1035
16299W        W32773   2.747  13.325   3.503 -0.2648  0.2279 -0.0124
16300W        W32774  18.788  12.777   2.599 -0.1748 -0.2133 -0.1831
16301W        W32775   6.322  14.040  13.767  0.2161  0.0608 -0.2727
16302W        W32776  10.412   9.251   4.227  0.2164  0.3233 -0.0442
16303W        W32777   7.877   1.202   4.397 -0.1899  0.2725  0.0725
16304W        W32778  16.890  12.440   1.759 -0.1579  0.3359 -0.2546
16305W        W32779   9.447  14.780   3.927  0.1001 -0.0181  0.2656
16306W        W32780  16.604  17.743   4.394  0.2308 -0.1479 -0.1260
16307W        W32781   5.850  18.662   2.702  0.2244 -0.0062  0.1399
16308W        W32782   9.926  16.374   3.691  0.2640  0.0219  0.0390
16309W        W32783  18.920  12.188  12.143  0.0245  0.1258 -0.2457
16310W        W32784   9.446  13.072  10.808  0.0496  0.1163 -0.1112
16311W        W32785   5.402  18.736   2.494 -0.2134  0.1648  0.3552
16312W        W32786   4.836  10.761  10.893  0.0964  0.2889  0.1735
16313W        W32787   5.835   4.551   0.928 -0.0252 -0.2684  0.1718
16314W        W32788   2.547  14.140  10.024 -0.1095 -0.0638 -0.2712
16315W        W32789   4.290   0.019  11.347  0.4042 -0.1233  0.2288
16316W        W32790  10.925   2.248   3.524  0.0846  0.1567  0.1300
16317W        W32791  17.112   4.832   4.593 -0.0062 -0.0358 -0.2553
16318W        W32792   1.353  12.177   3.851 -0.0696  0.1594 -0.2664
16319W        W32793   5.029   0.139  10.442 -0.2586 -0.0880 -0.0116
16320W        W32794  12.488  17.812  11.172  0.1474 -0.2654  0.1659
16321W        W32795   1.490   2.379   1.749  0.2289 -0.0853  0.0507
16322W        W32796  18.995   6.333  13.268  0.2098  0.0918  0.2719
16323W        W32797   5.021  15.548  13.080 -0.1795  0.5461  0.1057
16324W        W32798  18.260   8.782   2.106  0.0860  0.1026 -0.5067
16325W        W32799   0.069   8.826  11.761 -0.0773 -0.1668 -0.2493
16326W        W32800   2.785  10.268   1.272 -0.2344 -0.2589 -0.2284
16327W        W32801   7.024  12.325   0.325 -0.0513  0.2009  0.2054
16328W        W32802   7.023   9.606  13.508 -0.3054 -0.2744 -0.2000
16329W        W32803   6.660   8.080   4.121  0.1833 -0.0435 -0.2233
16330W        W32804  11.463   4.643   0.722 -0.0232 -0.2521 -0.1953
16331W        W32805   7.655  11.921   2.584 -0.1456 -0.0006 -0.3409
16332W        W32806  10.676  11.616   1.032 -0.0413  0.2314  0.0344
16333W        W32807   2.997   0.597  14.044 -0.1413  0.0677 -0.0375
16334W        W32808   1.285   5.813   4.699  0.2267 -0.0144  0.3439
16335W        W32809  18.176  18.917  12.679 -0.0300 -0.1591 -0.2320
16336W        W32810   5.109   1.665  13.645 -0.1055  0.2129 -0.2045
16337W        W32811  10.259  10.788  10.981 -0.0759 -0.2746 -0.1624
16338W        W32812   4.843   1.670  10.578 -0.1103 -0.1542 -0.0929
16339W        W32813  14.474   9.844  12.487  0.2604  0.1148 -0.0837
16340W        W32814   3.977   4.007  12.568  0.1439 -0.0072  0.0865
16341W        W32815   7.551  10.911  12.087 -0.2403  0.0849 -0.1802
16342W        W32816   9.630   3.475   2.191 -0.0617 -0.0329 -0.1762
16343W        W32817  18.217   1.573  13.431  0.0968 -0.0220  0.3988
16344W        W32818   9.175  17.956   0.294 -0.0393  0.1298  0.1161
16345W        W32819  11.172   5.453  10.881 -0.2220  0.2281 -0.0346
16346W        W32820  15.177  13.705  14.348 -0.0912  0.0234 -0.0659
16347W        W32821   0.088   3.930  10.707  0.1361  0.1033 -0.0261
16348W        W32822  16.503  14.609   2.695 -0.0970 -0.1442 -0.2466
16349W        W32823   4.659   7.899  13.940  0.0868  0.2392 -0.3734
16350W        W32824  11.250   7.751  10.243  0.0945  0.2099 -0.3914
16351W        W32825   4.686  17.743   4.932 -0.1769  0.0288  0.0575
16352W        W32826   4.265  12.886   2.153  0.0452 -0.0368 -0.0641
16353W        W32827  18.165   9.815   5.300  0.0946 -0.2144  0.0398
16354W        W32828   8.483   6.738   8.878 -0.0089  0.1157 -0.2234
16355W        W32829   9.982  15.182   2.212  0.0647 -0.1159  0.0466
16356W        W32830   6.311  15.569  14.114 -0.0581 -0.0511  0.1392
16357W        W32831   0.988  14.394  10.651  0.2316  0.4395 -0.1223
16358W        W32832  14.602   7.464  12.288  0.1878  0.0615 -0.0165
16359W        W32833  18.879   5.914   0.177 -0.0797  0.0953 -0.1472
16360W        W32834  12.247   5.823   2.469  0.0192  0.3063 -0.0603
16361W        W32835   8.815   9.346  10.145  0.1449 -0.1816 -0.1987
16362W        W32836  18.194  11.595  11.286 -0.0422  0.1652 -0.1000
16363W        W32837  13.583  11.636   0.765 -0.3127 -0.0423 -0.5176
16364W        W32838  11.443  16.980  10.374 -0.2838 -0.0205 -0.2336
16365W        W32839  18.539   0.789   3.813 -0.1954  0.3020 -0.0543
16366W        W32840   8.951  14.678   1.274 -0.2174  0.1684 -0.1436
16367W        W32841   2.808  14.642   2.483 -0.1261  0.1468 -0.4414
16368W        W32842   2.737   4.107  11.708  0.6836  0.3879 -0.1430
16369W        W32843   2.856  17.392  13.469  0.2072  0.0113 -0.2114
16370W        W32844  12.340  19.325   4.395 -0.2142 -0.0247 -0.0049
16371W        W32845  17.855  10.685   3.403 -0.0061  0.0658 -0.1977
16372W        W32846  15.903   3.900   0.318 -0.2623 -0.3636 -0.0250
16373W        W32847   5.094  17.716  12.878  0.1080 -0.1618  0.2139
16374W        W32848   7.721   4.482   1.385  0.1149  0.0214  0.2405
16375W        W32849   2.066   1.719  10.527 -0.1817 -0.0593  0.0543
16376W        W32850  13.597   7.442   4.453  0.0191 -0.2801  0.2801
16377W        W32851  11.411  14.659   0.494  0.3410 -0.0655  0.3720
16378W        W32852  13.775  12.637   3.159  0.2130  0.3188 -0.1868
16379W        W32853   6.466  10.292  10.615 -0.0110  0.0236  0.0816
16380W        W32854  11.332  13.719   1.775  0.0554  0.1867 -0.3015
16381W        W32855   8.482  11.070   1.729 -0.1808 -0.5046  0.0491
16382W        W32856   7.384  11.106  14.810  0.1885  0.0407  0.0656
16383W        W32857   0.639   5.343  11.414  0.2481  0.0460 -0.2187
16384W        W32858   2.437   7.986  14.539 -0.0814  0.0364  0.3043
16385W        W32859  18.685   8.558  13.416 -0.4118  0.2356  0.1855
16386W        W32860   8.223   6.394  12.398 -0.1723 -0.0391 -0.2408
16387W        W32861   4.741   6.538  11.638  0.1265 -0.0225 -0.0215
16388W        W32862  14.293  19.359   1.443 -0.2239  0.0411  0.0234
16389W        W32863   9.388  15.581   3.498  0.1226  0.3171 -0.2496
16390W        W32864  11.576   0.287   2.173  0.1601 -0.1963 -0.2457
16391W        W32865  16.969   4.127   2.013  0.0533 -0.0257 -0.0632
16392W        W32866  14.245   5.475  14.844  0.3615 -0.0682  0.1426
16393W        W32867  19.373   8.880   2.429 -0.3471  0.0271  0.0775
16394W        W32868   2.090   5.926  12.722  0.0569 -0.0599 -0.3114
16395W        W32869   0.172   5.794   4.352  0.3833 -0.0277  0.3564
16396W        W32870  17.112  18.526   4.682 -0.0060 -0.0340 -0.0305
16397W        W32871  17.031  15.219   1.529 -0.1547  0.1759  0.0613
16398W        W32872   5.204  10.718  11.867 -0.0773 -0.0905 -0.2590
16399W        W32873  16.182  15.904   2.298  0.2573  0.1117  0.0500
16400W        W32874   6.720   0.909   9.131 -0.0640  0.1481 -0.1605
16401W        W32875   8.175   1.067   1.040 -0.0830  0.2941  0.3715
16402W        W32876  19.291   3.523   0.183  0.0649 -0.1586 -0.4201
16403W        W32877  18.814  17.949  12.548 -0.1332 -0.0055 -0.1139
16404W        W32878   3.398  16.435   3.756  0.0101 -0.1158  0.2505
16405W        W32879   4.931   3.003   2.599 -0.0527 -0.1054  0.3679
16406W        W32880   5.517  18.986   4.336  0.2316 -0.1361 -0.1165
16407W        W32881   3.600  18.743  12.554 -0.3126 -0.0896 -0.0819
16408W        W32882   8.073   3.366   2.822 -0.3555 -0.4265 -0.0458
16409W        W32883  17.385   3.807   5.317  0.0787 -0.4299 -0.2343
16410W        W32884   3.035   6.221   3.435 -0.0279 -0.1042  0.1885
16411W        W32885   1.130   5.914   3.795 -0.3528  0.0072 -0.1215
16412W        W32886  18.884   0.097  14.799 -0.2910  0.0693 -0.1562
16413W        W32887  13.442  19.179   1.562 -0.0982 -0.1719 -0.0436
16414W        W32888   2.733  14.054   2.241  0.4821 -0.0324 -0.0215
16415W        W32889   6.147  12.827  13.282  0.1974  0.2053 -0.1874
16416W        W32890  15.030  11.773   2.335 -0.1350 -0.1058 -0.2128
16417W        W32891  11.581   4.825   3.554  0.2938  0.1689  0.0377
16418W        W32892  11.612  16.082  10.962  0.0101 -0.3513 -0.0156
16419W        W32893  17.333  10.427  13.039 -0.1626 -0.2180 -0.1295
16420W        W32894   9.305  15.785  14.380  0.1283 -0.2424  0.1220
16421W        W32895  18.987   0.735   3.645  0.0406  0.3582 -0.0710
16422W        W32896  17.265   2.686  14.740 -0.2409 -0.1436  0.4551
16423W        W32897  17.322  10.898  12.736  0.1644 -0.0066  0.2943
16424W        W32898   7.377  10.025  11.550 -0.2222  0.1543 -0.0101
16425W        W32899   3.749  15.704   3.701  0.0046 -0.0047 -0.0692
16426W        W32900  17.263  17.512  11.156 -0.2134 -0.2451 -0.0677
16427W        W32901   9.970  19.292   1.158  0.0153  0.0070 -0.1806
16428W        W32902  11.182  10.400   1.856 -0.2003 -0.0645 -0.1918
16429W        W32903   1.910  16.184   3.388 -0.0351 -0.2585  0.1519
16430W        W32904  10.176   3.273   1.118  0.0650  0.3939  0.0157
16431W        W32905   4.763  17.197   0.072 -0.1065 -0.4429  0.0061
16432W        W32906   0.575  14.191   5.411  0.2256 -0.3345  0.0805
16433W        W32907   2.466   0.928   1.886 -0.1263  0.4301  0.0065
16434W        W32908  13.343  17.944   0.857 -0.0709 -0.2212 -0.1274
16435W        W32909  10.151  18.380   4.768 -0.0775 -0.0364 -0.1329
16436W        W32910  14.386   6.157   2.362 -0.3129  0.2467  0.1029
16437W        W32911   3.109   0.431   2.911  0.0066 -0.1340 -0.2136
16438W        W32912   5.037   8.192  10.801 -0.0113  0.0748  0.4182
16439W        W32913  11.827  14.538  12.693 -0.2030 -0.2474 -0.1267
16440W        W32914   6.293  16.925   0.474 -0.0351  0.0078 -0.0615
16441W        W32915  14.699  17.096   0.837 -0.0276 -0.0572 -0.0924
16442W        W32916   3.491  13.413   1.978 -0.1380 -0.3535 -0.2555
16443W        W32917  18.128   3.333   4.282 -0.0074 -0.1498  0.1715
16444W        W32918   6.223  17.904   4.354 -0.0147  0.0586  0.2957
16445W        W32919  19.048   2.133   5.605 -0.2723  0.0035 -0.5252
16446W        W32920  18.531  19.189   2.679 -0.0428 -0.0824 -0.1798
16447W        W32921   3.657   3.154   0.718 -0.0813 -0.2131  0.1986
16448W        W32922   2.954   6.997   1.489 -0.1718 -0.1013  0.2025
16449W        W32923   5.771  17.433   0.970 -0.1182 -0.1630  0.1566
16450W        W32924   0.977   5.946   2.568 -0.0356  0.0432 -0.1888
16451W        W32925   3.040   3.671   3.882 -0.0791 -0.2074  0.3254
16452W        W32926   1.699   2.846  12.190  0.1600 -0.0276 -0.2883
16453W        W32927   7.075   4.624   0.852 -0.1301 -0.0879 -0.4508
16454W        W32928  10.612  15.622  11.738  0.2016 -0.1997 -0.4880
16455W        W32929   6.348   5.393   3.590 -0.1142 -0.2233  0.2166
16456W        W32930   6.962   8.959  10.697 -0.2105 -0.2651 -0.2335
16457W        W32931  18.414   5.156   4.775  0.1640 -0.2401 -0.0724
16458W        W32932  18.055   4.047  10.342  0.1634 -0.2500  0.0148
16459W        W32933  16.404  17.819   1.813 -0.1475 -0.2902 -0.0026
16460W        W32934   8.661  17.107  10.640  0.1406  0.0274 -0.1252
16461W        W32935   3.959  10.677  13.137  0.1169  0.1485 -0.0744
16462W        W32936  15.477  13.566  11.324 -0.1201  0.1374  0.1866
16463W        W32937  19.364  10.884   5.083  0.0514 -0.2244 -0.0879
16464W        W32938  14.225   0.623  14.856 -0.1807  0.3855 -0.0631
16465W        W32939  19.153   3.993  14.546 -0.0779  0.1086  0.0428
16466W        W32940   2.225  15.020   1.700 -0.2169  0.4693 -0.3846
16467W        W32941  10.432  11.515  13.874 -0.4284  0.0941  0.2245
16468W        W32942  16.982  15.082   0.526 -0.0376  0.0977 -0.1228
16469W        W32943   3.367   5.418   1.784 -0.0392  0.1294  0.0028
16470W        W32944  11.297  15.077   1.369  0.1189 -0.0656  0.0210
16471W        W32945  14.622   5.582   4.977  0.0617  0.1540 -0.0893
16472W        W32946  15.824   6.777  13.522  0.1118 -0.4611  0.0804
16473W        W32947   4.878  16.569   4.479  0.1061  0.0439  0.1800
16474W        W32948   8.585  12.494  10.722 -0.2290 -0.0181  0.0331
16475W        W32949   5.429   3.993  12.266 -0.0235  0.1388  0.2986
16476W        W32950   5.133  15.293  12.093  0.1355 -0.0573 -0.0378
16477W        W32951  13.781   5.313  11.920  0.1183  0.2729  0.3711
16478W        W32952   2.833   0.211   3.503 -0.1246  0.0115  0.2222
16479W        W32953   1.075  14.923  13.464  0.0536  0.0183 -0.2137
16480W        W32954   8.679  12.385   2.507  0.1399  0.0158  0.1146
16481W        W32955   8.091  15.252  11.704 -0.2693  0.2136 -0.0491
16482W        W32956   7.522  10.695   4.257 -0.1591 -0.1992 -0.1014
16483W        W32957   3.265  13.116   3.753 -0.0099  0.0661 -0.0069
16484W        W32958   6.689  16.805  11.223  0.3509 -0.0617 -0.5172
16485W        W32959   0.686   7.877   1.659  0.0202  0.1483 -0.0556
16486W        W32960   3.727  14.798   0.962  0.1377  0.2272 -0.2571
16487W        W32961   9.375   9.872  11.427 -0.1844  0.1709 -0.0853
16488W        W32962  14.406  11.542   1.033 -0.0579  0.2216  0.0798
16489W        W32963  18.414   5.245   3.569  0.1369  0.0595  0.1375
16490W        W32964   3.123  15.725   1.809  0.0280  0.4143 -0.2882
16491W        W32965   0.549   8.345  10.599 -0.0310 -0.2822  0.0660
16492W        W32966  13.578  17.196   4.702  0.3030 -0.0089 -0.4062
16493W        W32967  16.345   4.317  14.351  0.1072 -0.0206 -0.2576
16494W        W32968  12.299   1.718   3.576  0.0864 -0.1339 -0.4250
16495W        W32969  10.552   1.301   2.060 -0.1939 -0.2407 -0.4037
16496W        W32970   9.645  17.445   2.340  0.0921  0.0132  0.1743
16497W        W32971  13.518   3.335   4.003  0.1280  0.2910  0.2310
16498W        W32972  15.612  18.391  14.522  0.1478 -0.0823 -0.0652
16499W        W32973   0.381  12.796  14.747 -0.0799  0.0944  0.0026
16500W        W32974  14.483  16.349  10.811  0.1537 -0.2281  0.0951
16501W        W32975   1.343   3.901  11.949  0.0746 -0.2344 -0.0050
16502W        W32976   7.828  12.014   3.635  0.3262 -0.1191 -0.1828
16503W        W32977  13.174  17.012  13.507  0.2695 -0.0805  0.1027
16504W        W32978  14.298  18.006   3.171  0.1574  0.5187  0.0955
16505W        W32979   9.757   5.456   3.213 -0.1209 -0.0288  0.4303
16506W        W32980   9.417   1.633   9.989 -0.0109  0.1918  0.1106
16507W        W32981   1.450   5.512  10.068 -0.0853  0.2866 -0.2169
16508W        W32982  17.579   4.104   2.042  0.0173  0.1914  0.2256
16509W        W32983   6.681   8.676   2.754  0.1378 -0.3820 -0.1262
16510W        W32984   3.825  10.162  12.595  0.2530  0.2509 -0.1822
16511W        W32985  13.207   9.992   2.411  0.2124 -0.6181 -0.1095
16512W        W32986   0.671   0.121  14.092  0.2802  0.0336 -0.1119
16513W        W32987  12.847  14.009   0.834  0.0513  0.1139 -0.0160
16514W        W32988   3.923  12.191  12.005 -0.0382  0.1612  0.0375
16515W        W32989   4.889   5.936   1.007  0.0327 -0.3526 -0.1294
16516W        W32990   8.870  18.287   3.265 -0.0824 -0.2161  0.2531
16517W        W32991   7.383  14.616   1.962  0.3696 -0.0289  0.2727
16518W        W32992   1.769  12.250  10.956 -0.0652  0.2646  0.0914
16519W        W32993   2.402  15.856  11.863 -0.0629  0.0550  0.2356
16520W        W32994  13.330  15.522   0.104  0.3474 -0.2033 -0.0333
16521W        W32995  15.835  15.826   0.888 -0.2227  0.1310 -0.0129
16522W        W32996   8.274  11.528   0.540 -0.2688  0.1489 -0.0022
16523W        W32997  12.990  15.369  14.043 -0.2803  0.1508 -0.2076
16524W        W32998  14.986  14.384   4.870  0.3454  0.1190 -0.0635
16525W        W32999   4.338   8.374   2.479  0.2626 -0.2039 -0.3729
16526W        W33000   4.692  15.161   4.665  0.0764 -0.3299  0.1555
16527W        W33001  13.878   3.891  12.328 -0.1965  0.1071  0.1068
16528W        W33002   9.433  15.597   1.756  0.0724  0.5337  0.0361
16529W        W33003   5.406   2.981   2.444 -0.1250 -0.4932 -0.2820
16530W        W33004   1.020   8.338  13.749 -0.0393 -0.0825  0.0020
16531W        W33005   5.156  10.870   2.222 -0.1889  0.0584  0.0530
16532W        W33006   8.038  10.177   0.357  0.1699  0.1815 -0.0364
16533W        W33007  14.545   5.570  12.114  0.3897 -0.0566 -0.1610
16534W        W33008  14.446  17.956   9.771 -0.0364  0.0801 -0.2514
16535W        W33009  12.887   6.803  13.107  0.0376 -0.1434  0.0384
16536W        W33010   6.332   6.286   0.597 -0.2113 -0.4151  0.2390
16537W        W33011   5.211  18.555   0.296 -0.1648 -0.3518 -0.2798
16538W        W33012   9.929   9.159   0.973 -0.0375 -0.0710 -0.5699
16539W        W33013   5.714  19.332   0.875  0.2336 -0.1406  0.0693
16540W        W33014  15.797   0.541   1.744 -0.2893 -0.1789 -0.1586
16541W        W33015  18.048  16.759   3.828  0.1768  0.3804 -0.0709
16542W        W33016  16.291  14.793  10.956 -0.2182 -0.1027  0.1356
16543W        W33017  10.939   1.550  10.442  0.0080 -0.1046  0.2609
16544W        W33018  19.284   3.988   0.139 -0.1807 -0.3095 -0.3743
16545W        W33019   2.997   8.796   2.687  0.1035 -0.1623 -0.0717
16546W        W33020  17.114  10.152  13.733  0.0097 -0.1428 -0.2333
16547W        W33021   3.404   3.554  14.768  0.1892  0.0298  0.1292
16548W        W33022   9.478   3.344  11.535  0.3029  0.2315 -0.1217
16549W        W33023  10.964   1.657   5.439  0.1290  0.2179  0.1706
16550W        W33024   7.135  16.264  12.683 -0.2538 -0.0243  0.0864
16551W        W33025   2.832   1.327   2.521 -0.2472 -0.1339 -0.2504
16552W        W33026  18.000   2.377  11.736  0.0556  0.0431 -0.0146
16553W        W33027   7.662   3.150  11.243 -0.0965 -0.2686  0.1493
16554W        W33028  11.259   4.984  11.678  0.5092  0.0245 -0.1892
16555W        W33029   6.819  15.840  14.707  0.0501  0.1429 -0.1545
16556W        W33030   8.037   8.250   3.384  0.2294 -0.0303 -0.2550
16557W        W33031  11.339   6.033   2.677 -0.2490 -0.0572  0.2433
16558W        W33032   3.068  14.121  10.624 -0.3126 -0.1500  0.1663
16559W        W33033   5.096  13.715  12.382  0.1212  0.2443  0.1260
16560W        W33034   0.223   9.888  11.606 -0.2839 -0.0096  0.1975
16561W        W33035  17.500  10.670  13.866 -0.2157 -0.0249 -0.0703
16562W        W33036  11.854   0.883   2.722  0.2159 -0.4435  0.3602
16563W        W33037  18.441   1.041  11.496 -0.2266  0.1498  0.0091
16564W        W33038   2.608   8.164  12.252 -0.2882 -0.1367  0.1167
16565W        W33039   2.665  17.485  11.121 -0.0503 -0.1857 -0.2023
16566W        W33040   8.090  13.839  14.535 -0.3401  0.1495  0.2028
16567W        W33041  13.429   2.323  14.319 -0.2113 -0.2060 -0.1916
16568W        W33042  13.695   9.230   5.167  0.1646 -0.0299 -0.0975
16569W        W33043  17.762  12.222  12.442  0.1873  0.1611 -0.0836
16570W        W33044   8.892   9.503   4.597 -0.1534  0.0145  0.0925
16571W        W33045   4.016   6.431  10.131  0.2410  0.0671  0.2636
16572W        W33046  13.308  17.012   2.864  0.0385  0.1470 -0.0733
16573W        W33047   9.813  16.584  13.383  0.0479 -0.3254 -0.3084
16574W        W33048  12.577   8.893  12.405  0.0327 -0.0641  0.2426
16575W        W33049   1.108   0.467  14.568  0.0622  0.1899 -0.2477
16576W        W33050  12.552   7.803  10.179 -0.1786 -0.1362 -0.0346
16577W        W33051  13.785   7.850  13.859 -0.3640 -0.0097  0.1886
16578W        W33052   9.869  10.367  10.079 -0.3631 -0.0001 -0.2618
16579W        W33053   9.416  12.080   9.692 -0.3390  0.1931 -0.0802
16580W        W33054  10.763   5.147  11.145  0.0152  0.0258  0.2299
16581W        W33055   9.108  15.359   5.398 -0.3730  0.1722 -0.1534
16582W        W33056  13.954  16.890  13.675  0.1433  0.0450 -0.1328
16583W        W33057  19.376  14.794  14.450  0.1511 -0.1991 -0.0778
16584W        W33058   2.293  17.620   2.809  0.2817  0.2690 -0.0282
16585W        W33059   5.723  10.930  10.987  0.1647 -0.1128  0.2263
16586W        W33060  10.696   2.741  14.866 -0.2091 -0.0938 -0.0154
16587W        W33061   9.124   5.015   0.778  0.1622  0.2391  0.1593
16588W        W33062   3.262   9.262  12.455  0.1193  0.0496  0.1689
16589W        W33063   7.157  18.900  10.978 -0.0647  0.1536  0.1005
16590W        W33064  12.009   0.547  12.024  0.3386 -0.0727  0.0876
16591W        W33065  14.320   7.507   2.409 -0.1783 -0.1982  0.0267
16592W        W33066   3.771  11.733   4.206 -0.0135  0.1369  0.2178
16593W        W33067  15.390   1.384  11.026 -0.1680  0.0229 -0.1275
16594W        W33068   4.300   0.235   3.063 -0.1855  0.2463  0.4967
16595W        W33069   6.358  17.849  11.334  0.1105 -0.0891 -0.0521
16596W        W33070   7.964   5.239   2.371  0.2606 -0.3771  0.1244
16597W        W33071  10.560  17.911   2.361 -0.0430  0.2456 -0.0518
16598W        W33072  14.269   7.137   3.250  0.0702  0.0619 -0.1151
16599W        W33073   7.439   7.632  14.098  0.0227 -0.0513  0.1189
16600W        W33074  13.611   7.709  10.497  0.0366 -0.0319  0.0228
16601W        W33075   9.388  17.893  14.755 -0.1795 -0.3118 -0.2164
16602W        W33076  15.918  13.250  14.291 -0.1313  0.2845 -0.0791
16603W        W33077  14.408   9.748   4.729  0.3465  0.2279  0.0533
16604W        W33078   1.487   2.335  13.556 -0.1779 -0.4268  0.5137
16605W        W33079  15.505  13.697   2.520  0.0216  0.1384  0.0069
16606W        W33080   9.893   9.067   3.433 -0.0298 -0.1486  0.2574
16607W        W33081   4.706  17.594   3.940 -0.5123 -0.1533 -0.2843
16608W        W33082   7.431   8.013   5.027  0.0305  0.3875 -0.1405
16609W        W33083   5.598  17.392   1.589 -0.1566  0.1774 -0.2099
16610W        W33084   4.979  10.135   0.096  0.1183 -0.2096 -0.0360
16611W        W33085   5.779   4.234  12.569  0.3681  0.2635 -0.0425
16612W        W33086   3.598  14.088  14.120 -0.1012  0.0380 -0.1728
16613W        W33087   7.116   4.141   9.867 -0.0974  0.0524  0.0210
16614W        W33088   7.423  12.088   5.178 -0.0167  0.0767 -0.4441
16615W        W33089   0.321   6.879   3.613 -0.2130  0.3296 -0.1704
16616W        W33090   4.213   4.210   4.949  0.3717 -0.1347 -0.1033
16617W        W33091  11.129  18.451   0.997 -0.0734 -0.2503 -0.1259
16618W        W33092   5.448  10.890   0.123  0.3305 -0.1472  0.1464
16619W        W33093  11.861  18.416  14.044  0.1658 -0.3206 -0.1478
16620W        W33094   1.960   3.941  11.226  0.2241 -0.1194  0.2358
16621W        W33095  15.094  17.490   1.168  0.2440 -0.0499  0.2222
16622W        W33096  10.720  11.278   1.706 -0.1434  0.1923  0.2061
16623W        W33097   2.477   7.780  11.975 -0.3594  0.2194  0.1086
16624W        W33098  17.872  10.485  14.725  0.1279  0.3603  0.0360
16625W        W33099   9.180  17.549  11.345 -0.1948  0.1457 -0.1048
16626W        W33100   0.566   5.116  14.545  0.3322  0.2617 -0.3018
16627W        W33101   8.678   4.965   0.399 -0.0476 -0.2672 -0.1909
16628W        W33102  15.052  15.584  13.125 -0.1800  0.3698  0.1442
16629W        W33103   4.402   6.251  12.980  0.0207  0.1541  0.3601
16630W        W33104   6.419  11.890  14.197  0.1022  0.0020 -0.0020
16631W        W33105  18.745   5.131   0.706 -0.3086  0.1031  0.0455
16632W        W33106   3.307  16.740   3.314  0.0424 -0.0487 -0.3138
16633W        W33107  14.781   8.539   5.079 -0.1785 -0.2192  0.1306
16634W        W33108   0.578   9.910   1.478  0.0649  0.0123  0.1056
16635W        W33109   5.061  16.946  14.616 -0.0129  0.1909 -0.0632
16636W        W33110   8.901   0.505   0.357  0.1867  0.0926  0.0835
16637W        W33111   4.976   2.556   1.554 -0.1023  0.0229  0.3106
16638W        W33112   0.970  16.804  10.386  0.0679  0.1713 -0.1833
16639W        W33113  13.269  12.587   4.034 -0.0316 -0.1033 -0.1115
16640W        W33114  14.931  18.978  13.331 -0.2116  0.0506  0.0564
16641W        W33115  13.933  16.224   0.348  0.1149  0.1620  0.1350
16642W        W33116   0.900  13.571  13.331  0.0507 -0.0803  0.1300
16643W        W33117  17.420   5.255  10.867  0.0204  0.1108  0.2644
16644W        W33118  13.805   7.393   1.449  0.2673 -0.2509 -0.2083
16645W        W33119  12.017   0.203  14.611 -0.1742  0.2871  0.1987
16646W        W33120   6.986   2.628   0.485  0.0100 -0.2845  0.1532
16647W        W33121  18.320   0.471  12.560 -0.3323 -0.1729  0.1636
16648W        W33122   6.553  15.342  10.807  0.1607 -0.3075  0.0624
16649W        W33123   2.802  18.356   2.821  0.2718  0.0375 -0.0145
16650W        W33124  14.269  14.546  14.717  0.1537  0.5324 -0.1628
16651W        W33125   7.324   1.699  12.428  0.0275 -0.2444  0.1645
16652W        W33126  12.978  16.275   0.290 -0.2858  0.1296 -0.0318
16653W        W33127  10.080  16.197   1.277 -0.0122  0.2455 -0.3110
16654W        W33128   8.679  18.044   4.235 -0.2112 -0.0545 -0.1774
16655W        W33129   9.244   8.529  13.283 -0.1017 -0.2641  0.0524
16656W        W33130  12.452   1.483   2.268 -0.0342  0.0709 -0.1180
16657W        W33131  18.242   1.696  12.094 -0.2528  0.2189  0.1216
16658W        W33132  15.242  12.049   2.740 -0.1202  0.0250 -0.2040
16659W        W33133  12.283   1.235  12.987  0.1796  0.0788 -0.2654
16660W        W33134   8.668   4.612   0.891 -0.1583 -0.0828  0.0048
16661W        W33135  17.245   3.297   3.162  0.2254 -0.1192  0.0122
16662W        W33136   5.511   4.361  13.715 -0.0784  0.0852 -0.2578
16663W        W33137  14.166   0.103   0.259 -0.1590  0.0219  0.3004
16664W        W33138   6.386  13.816   0.365 -0.0659 -0.3088 -0.0177
16665W        W33139   3.389  18.608  13.917  0.2970 -0.1304  0.3657
16666W        W33140   4.364   3.130   0.411  0.4659 -0.3253  0.2119
16667W        W33141  15.219  17.077  12.117  0.1718 -0.2905  0.1118
16668W        W33142  15.172  15.035   4.434 -0.0707  0.0328 -0.1947
16669W        W33143  16.712   3.089  11.102 -0.2936  0.1293  0.2100
16670W        W33144  13.499   6.903   0.702 -0.1048 -0.0504  0.2406
16671W        W33145   6.991  18.528   4.148 -0.2003 -0.1632 -0.0074
16672W        W33146  13.065   2.590  14.080  0.0202  0.2501  0.1247
16673W        W33147   6.610   8.306  14.860  0.1938 -0.0593 -0.0103
16674W        W33148  10.220   9.716   2.644  0.2243 -0.1187  0.1801
16675W        W33149   2.427  10.485  14.237 -0.2356 -0.0050  0.0589
16676W        W33150  14.449  13.830   5.304 -0.1958  0.0875  0.0363
16677W        W33151   1.064   1.485   1.754  0.0332 -0.1299 -0.0122
16678W        W33152   5.091   3.926   2.542 -0.0027  0.0391  0.0344
16679W        W33153   4.893  11.264   9.218 -0.0845 -0.1638 -0.3155
16680W        W33154  14.302   3.538  14.411  0.1323 -0.1987  0.2253
16681W        W33155  15.506   0.767  13.748 -0.0858  0.3442  0.0978
16682W        W33156   1.852  10.873   2.448  0.1373 -0.0540 -0.0653
16683W        W33157  14.553   0.387   2.234 -0.0797 -0.0504  0.0682
16684W        W33158  14.709   8.932  10.622  0.2274 -0.0494  0.0847
16685W        W33159  10.913   5.210   4.354  0.1916  0.5185 -0.1523
16686W        W33160  19.076  13.443  11.763  0.2944  0.1293 -0.1662
16687W        W33161   4.163  18.831   0.863 -0.2312  0.2376  0.0078
16688W        W33162   4.719   4.648  12.599  0.3672 -0.1556 -0.1441
16689W        W33163  17.163   2.999  11.345 -0.0575  0.1921  0.1786
16690W        W33164   6.818   8.212   1.902  0.1042  0.0101 -0.1358
16691W        W33165  14.728  18.913  14.546  0.1444  0.1913  0.0717
16692W        W33166  11.571   8.814  11.578 -0.0303 -0.3969 -0.1080
16693W        W33167  10.785   0.238   1.807 -0.2105 -0.2237  0.1348
16694W        W33168   1.894   6.239   1.221  0.3913  0.0618 -0.2828
16695W        W33169   3.488  19.242  11.718 -0.0406  0.3371  0.1589
16696W        W33170   7.513   7.766  10.888 -0.1883  0.0061  0.0098
16697W        W33171   3.892  12.348   2.746  0.2118 -0.2407 -0.4718
16698W        W33172  14.535  17.209   1.765  0.2647 -0.3469  0.1142
16699W        W33173  12.627  12.173  12.493 -0.0071 -0.3472  0.2850
16700W        W33174  16.120  11.700  13.258 -0.1302  0.0357 -0.3659
16701W        W33175   9.327   0.732   2.812  0.1194 -0.3553  0.1002
16702W        W33176   6.441  12.552  11.248 -0.1125  0.1030  0.0975
16703W        W33177  11.387   0.534  10.645 -0.1314 -0.1769  0.5570
16704W        W33178  16.295  17.164  13.297  0.0114 -0.4212 -0.1692
16705W        W33179  18.435   7.779   0.580  0.0115 -0.0187 -0.0758
16706W        W33180   5.647  19.242   9.998  0.0685  0.0759 -0.0394
16707W        W33181  15.608   4.332  10.736 -0.1349 -0.2929 -0.0400
16708W        W33182   0.460   7.455  13.023  0.0501 -0.1417  0.0219
16709W        W33183  10.433   9.105   0.938 -0.1513  0.2346 -0.4349
16710W        W33184  17.104   0.804   2.081 -0.1057 -0.2681  0.0960
16711W        W33185   6.524   6.701   4.045  0.3676  0.1556 -0.2539
16712W        W33186  10.371   6.036   2.349  0.0139  0.3799 -0.1167
16713W        W33187  11.991   6.541  11.633  0.1206 -0.2227 -0.1091
16714W        W33188   4.611  12.245   0.525  0.0925  0.4142 -0.1462
16715W        W33189  18.266   6.859   0.829 -0.0193  0.2294 -0.0993
16716W        W33190   7.573   7.765   2.391  0.2110 -0.0935 -0.0268
16717W        W33191  15.617  17.786   3.394  0.1576 -0.2194 -0.0683
16718W        W33192  12.625   5.648   1.629 -0.1350 -0.1603  0.0573
16719W        W33193   5.332   4.705   3.424 -0.0386  0.1180 -0.1028
16720W        W33194  13.166  17.294  12.176  0.1447 -0.1604 -0.1494
16721W        W33195  13.872  11.311   2.311  0.0929  0.0496  0.0289
16722W        W33196   6.851  16.421  14.335 -0.2173  0.1930  0.1385
16723W        W33197  13.875  12.738   1.523 -0.4883  0.1544  0.1648
16724W        W33198  17.380  16.017  11.809  0.2183 -0.0292  0.3552
16725W        W33199   3.356  16.760  12.775 -0.0197 -0.1468  0.1650
16726W        W33200  12.106  17.221   0.522 -0.1349 -0.2502  0.1054
16727W        W33201   3.294   4.437  11.715 -0.0878  0.0594 -0.0672
16728W        W33202  13.018   0.444   2.811  0.0712 -0.1979  0.0438
16729W        W33203  10.866   7.304  14.608  0.1501  0.1427 -0.0958
16730W        W33204   7.265  11.928  10.608  0.1151  0.3727 -0.0016
16731W        W33205   3.798  14.691  11.085 -0.4079  0.1377 -0.2038
16732W        W33206   7.853  11.699  12.352  0.0632  0.1342 -0.0714
16733W        W33207   2.030   7.029   1.918  0.3827 -0.2435 -0.0580
16734W        W33208   8.321   9.467   4.596 -0.2319  0.0994  0.1086
16735W        W33209  16.767   7.821   3.685 -0.0258  0.1570 -0.0948
16736W        W33210  12.184  12.950   2.035  0.1274  0.1488  0.0649
16737W        W33211  19.279   3.808   2.643  0.3012 -0.0852 -0.1491
16738W        W33212  17.668   9.518   0.964  0.1251 -0.2296 -0.1728
16739W        W33213   1.765  11.412   1.724 -0.4281 -0.0660  0.0104
16740W        W33214  19.349  14.848   0.619  0.0999  0.1601  0.1706
16741W        W33215  18.729   6.793   2.119  0.2748  0.0500 -0.2095
16742W        W33216  11.065  15.842   9.760  0.2860 -0.0376 -0.1967
16743W        W33217   9.587  18.581   0.957 -0.1524  0.4200  0.1146
16744W        W33218  18.385   0.316   2.630 -0.3299 -0.2113  0.0825
16745W        W33219   6.093   4.242   1.171 -0.1694  0.0490 -0.2016
16746W        W33220  11.000  10.865   1.722  0.0621 -0.2010  0.1529
16747W        W33221   0.387  12.362  12.299  0.1092 -0.0383  0.1300
16748W        W33222   1.435  16.499   2.818  0.1627 -0.0744 -0.2967
16749W        W33223   6.574  10.063  14.733 -0.0754  0.1443 -0.0555
16750W        W33224   8.057  18.168   1.831  0.0313  0.3514 -0.0178
16751W        W33225   5.205  11.219  13.088  0.0877  0.1006 -0.0458
16752W        W33226   9.296  18.940   2.177  0.2265 -0.2229  0.3855
16753W        W33227   2.262  14.496   1.690 -0.2263 -0.0373  0.1456
16754W        W33228  15.490  17.774   0.252 -0.0429  0.2110 -0.0307
16755W        W33229  10.266  13.486  10.798  0.1102 -0.2469  0.1078
16756W        W33230   8.823  14.312  12.517  0.1117  0.1392  0.1179
16757W        W33231   5.627   7.725  14.830  0.0444 -0.1900  0.2000
16758W        W33232   8.765   7.481  14.189 -0.0311  0.2106  0.1056
16759W        W33233  10.277  14.555   3.974  0.0356  0.1540  0.3488
16760W        W33234   6.378  16.609   1.916 -0.0519  0.1777 -0.3635
16761W        W33235   6.155  14.386   2.742  0.1102  0.1994 -0.0423
16762W        W33236  10.576   2.183  14.298 -0.1101  0.1620 -0.2046
16763W        W33237  19.304  14.580   0.211  0.2032 -0.0556 -0.2207
16764W        W33238   1.899   1.718   4.752 -0.0646  0.0540  0.0582
16765W        W33239   6.456  10.996  14.088 -0.1379 -0.0796  0.3274
16766W        W33240  12.939  10.050   1.153  0.0035  0.1443 -0.1449
16767W        W33241  10.803   2.741  11.499 -0.3399 -0.1141  0.1428
16768W        W33242   5.012   9.361  11.525  0.2281  0.3100 -0.2815
16769W        W33243  12.295  18.541   0.042  0.1441 -0.0645 -0.0851
16770W        W33244  18.080   0.807  13.206  0.2438 -0.0574 -0.1746
16771W        W33245   0.909   5.656   1.204 -0.3511  0.0620 -0.1534
16772W        W33246  10.977  14.556  14.671  0.0699  0.0139  0.2032
16773W        W33247  16.560   4.861   1.216 -0.0683  0.3001 -0.4007
16774W        W33248   5.157   3.292   0.822 -0.1553  0.0462  0.0304
16775W        W33249  14.322  14.604  12.316 -0.0083 -0.2768 -0.3057
16776W        W33250  18.991   0.094   5.341  0.0503  0.0607 -0.0673
16777W        W33251  15.434   8.343   5.789 -0.2479 -0.2175  0.5681
16778W        W33252  15.037  12.124   1.868  0.0427 -0.2589 -0.0271
16779W        W33253   0.607   2.500   0.596  0.1834  0.0449  0.0802
16780W        W33254   0.719  11.303  12.301  0.0132 -0.1373 -0.2622
16781W        W33255   7.540  11.345   0.948  0.0449  0.2843  0.0893
16782W        W33256   4.565  13.034  12.357 -0.0061 -0.0806  0.3220
16783W        W33257   0.693   6.622   0.671  0.2170  0.0209 -0.4080
16784W        W33258   4.249   6.545   4.042  0.1107 -0.2268 -0.2281
16785W        W33259   3.550  12.292   1.598 -0.0962 -0.3590  0.0895
16786W        W33260  11.405  12.594   2.608 -0.2195 -0.1626 -0.1964
16787W        W33261  14.224  13.859  13.357  0.1955  0.3214 -0.3419
16788W        W33262  18.573  14.998   4.436 -0.6045 -0.2261 -0.1964
16789W        W33263  18.651   1.880  13.256  0.1431 -0.0064 -0.3487
16790W        W33264   3.081   8.817   4.270  0.1550  0.2287  0.4356
16791W        W33265  17.485   4.840  12.143 -0.2914  0.1066  0.3708
16792W        W33266  13.840  12.297   2.021  0.4127  0.0818  0.0693
16793W        W33267   4.522  18.204   2.643  0.0627 -0.0553  0.1165
16794W        W33268  13.732   7.347  14.502  0.2542  0.2283  0.1399
16795W        W33269   2.520   4.508   1.074  0.1021 -0.0508  0.1997
16796W        W33270  13.933   6.976   1.206  0.3298 -0.1307  0.0085
16797W        W33271   4.685  13.291   1.474 -0.1348 -0.2244 -0.5163
16798W        W33272  18.611  11.277   3.540  0.0216 -0.2537 -0.0625
16799W        W33273  12.355  12.178   3.317 -0.1055  0.1419 -0.1452
16800W        W33274  11.319  10.131  11.211  0.0531 -0.0654 -0.4163
16801W        W33275   2.671   3.513  10.930  0.2446  0.0478  0.0402
16802W        W33276   2.798   3.825  10.530 -0.3041  0.1453  0.2823
16803W        W33277   6.472  11.729  12.660  0.0580  0.0783  0.3833
16804W        W33278  13.498  15.501  11.495 -0.0726 -0.2747  0.1068
16805W        W33279   1.737   9.057  10.717 -0.1326  0.3539 -0.0449
16806W        W33280  14.092  10.420  10.672  0.2640 -0.1031 -0.0490
16807W        W33281  18.901  16.147   0.694  0.1592 -0.1885  0.1273
16808W        W33282   7.067   1.178   1.657 -0.0113 -0.0225  0.0188
16809W        W33283   4.446  13.389   4.986  0.0386  0.1634  0.0364
16810W        W33284   2.477  14.132   2.722 -0.0479 -0.0137  0.1917
16811W        W33285   5.933   8.609  10.262 -0.1962  0.0390  0.2418
16812W        W33286  18.743   5.545  12.041  0.0242 -0.1183 -0.3167
16813W        W33287  15.829   7.177   3.756  0.0651  0.0803  0.3119
16814W        W33288   7.977  17.764  14.117 -0.0735 -0.0978 -0.0514
16815W        W33289   9.572   3.740  13.183 -0.1673  0.0723 -0.3422
16816W        W33290   2.328  14.844  14.861  0.1578 -0.0684  0.3137
16817W        W33291   4.008   8.233   1.236 -0.1473  0.2575  0.3984
16818W        W33292   6.804   3.305  14.407  0.1627  0.1641 -0.0639
16819W        W33293  14.472  17.089   5.464 -0.0801 -0.1868  0.1649
16820W        W33294   4.066  18.205  11.419  0.1978 -0.2033 -0.0036
16821W        W33295   1.067  18.421   4.718 -0.3100 -0.1617 -0.2120
16822W        W33296  18.873   9.485  13.248  0.0105  0.0236 -0.0202
16823W        W33297  15.993   4.178   1.836 -0.0071 -0.3686  0.0803
16824W        W33298   1.805   1.813   5.291 -0.1888  0.2496  0.1090
16825W        W33299   5.113  17.398   1.869  0.2210 -0.0577 -0.1123
16826W        W33300   3.981  11.426   2.512  0.1328 -0.0283  0.1476
16827W        W33301   3.605  17.600   9.454  0.1419  0.2262 -0.1015
16828W        W33302  15.171   5.347  13.433 -0.0848  0.2422  0.1189
16829W        W33303  18.002  15.042  13.351  0.2195 -0.0099  0.2442
16830W        W33304  17.130   5.714   3.845  0.3452 -0.0170  0.0015
16831W        W33305   0.046   7.436   3.286  0.0511  0.0806  0.0376
16832W        W33306  18.066  18.992   4.180 -0.1081  0.1218 -0.4032
16833W        W33307   6.995  13.823  11.596 -0.1334  0.2171  0.2805
16834W        W33308   0.593   5.878  14.277  0.3596  0.3767  0.1619
16835W        W33309  16.064   0.313  12.543 -0.0942 -0.1717 -0.0781
16836W        W33310   7.379  11.583   2.140  0.2094 -0.1025  0.0123
16837W        W33311   2.792  14.008  13.856  0.1119 -0.0640  0.0932
16838W        W33312  16.670   4.010   2.483  0.0901  0.3950 -0.0696
16839W        W33313   2.110  11.442   0.372 -0.1304  0.0479  0.0150
16840W        W33314  12.092  17.915  13.021 -0.5186  0.2938 -0.0875
16841W        W33315   4.557   2.352  12.522 -0.0895 -0.3336  0.0364
16842W        W33316  14.613   7.092  13.370  0.2442 -0.2919 -0.1315
16843W        W33317   6.293  15.744  14.655 -0.0532  0.2915  0.1287
16844W        W33318   1.208  16.814   3.167  0.1541 -0.1670 -0.1193
16845W        W33319   6.981  15.387   0.897  0.2509 -0.1119  0.3155
16846W        W33320   9.255   1.182   9.914  0.0840 -0.1961  0.1402
16847W        W33321   6.249  13.874   1.775  0.0432  0.0620 -0.0349
16848W        W33322  15.431  15.838   1.167 -0.0688 -0.3051 -0.0271
16849W        W33323   6.939  11.182  11.635  0.1316 -0.1300  0.0200
16850W        W33324   8.441   1.420  13.372 -0.1758 -0.2153  0.0812
16851W        W33325   5.272  17.099  10.680  0.1325 -0.2009  0.0731
16852W        W33326  16.002  13.807   1.191  0.1225 -0.0768 -0.0036
16853W        W33327   5.827   5.759  14.785 -0.1627  0.2584  0.0837
16854W        W33328  17.412  15.252   1.826 -0.1396  0.2722 -0.0242
16855W        W33329  12.046   8.150  11.376  0.0824 -0.0654  0.1058
16856W        W33330  13.070  10.863   4.482 -0.1692  0.0296  0.0438
16857W        W33331   1.415   4.346   1.919 -0.0954  0.2371  0.0156
16858W        W33332  10.589   0.504  13.313  0.1082 -0.2726 -0.1252
16859W        W33333  18.416  18.298  10.967  0.0076  0.0715 -0.2101
16860W        W33334   5.059  16.762  11.375 -0.3626 -0.0514  0.0596
16861W        W33335   9.732   2.153  14.512  0.0228  0.1277 -0.1854
16862W        W33336  14.593   0.330  14.787 -0.2150  0.2288 -0.4028
16863W        W33337   3.636   3.444  14.272  0.4458  0.0388  0.0043
16864W        W33338   4.855   0.998  14.398  0.0965  0.1562 -0.2764
16865W        W33339   9.380  14.017   4.591  0.0532 -0.0384  0.1620
16866W        W33340   6.122  11.904   3.638  0.0046  0.1262 -0.0188
16867W        W33341   0.951   8.375   5.224 -0.2410 -0.2981  0.1513
16868W        W33342   9.523   5.571   5.071  0.0204 -0.0688 -0.2109
16869W        W33343  11.270  18.342  11.355 -0.0391  0.0736 -0.1826
16870W        W33344  15.461   1.162   2.506 -0.0947  0.1503 -0.1999
16871W        W33345  10.432   6.634  10.806  0.0525  0.0627  0.0313
16872W        W33346   8.140  14.092   0.722 -0.1872 -0.0806  0.3904
16873W        W33347   9.554  19.102   2.919 -0.1326  0.1584 -0.1926
16874W        W33348   6.181   6.144   4.014 -0.3706  0.0658  0.5028
16875W        W33349  11.638   6.268   3.549 -0.0601 -0.0343  0.0017
16876W        W33350   7.500  12.440  13.983 -0.0019 -0.0032 -0.0566
16877W        W33351   9.920  11.427   3.321  0.0478 -0.2153 -0.0861
16878W        W33352   4.989  10.318   4.937 -0.2482  0.2372  0.0355
16879W        W33353   2.462  18.230  10.488 -0.1414 -0.4667 -0.3170
16880W        W33354  13.888  10.766   0.184 -0.1226  0.0198 -0.2296
16881W        W33355   3.889  18.040   1.692 -0.0124 -0.2127 -0.3496
16882W        W33356   0.122   8.027   1.030  0.0308 -0.1505 -0.0286
16883W        W33357   6.288  16.021  13.409  0.0374  0.1805  0.0287
16884W        W33358  15.920   8.842  12.798  0.0608 -0.0068  0.2919
16885W        W33359   2.564  14.861  10.640  0.3609  0.3035  0.1431
16886W        W33360  13.464  14.596  13.608  0.1133  0.0227  0.0413
16887W        W33361   8.946  16.479   3.769  0.3084 -0.1161 -0.3002
16888W        W33362   0.172   9.303   2.606  0.0467 -0.1102  0.0959
16889W        W33363  12.250   9.372   5.234 -0.0164  0.0587  0.3327
16890W        W33364  14.399   4.223   3.267  0.0478  0.0801 -0.1689
16891W        W33365  18.045   0.444   5.561  0.2991  0.0867 -0.3904
16892W        W33366  13.827   1.266   4.939  0.0534  0.1356  0.0855
16893W        W33367  13.700   1.924   4.043  0.0106  0.0003  0.0531
16894W        W33368  13.887  15.842  12.920  0.1965  0.1396 -0.0821
16895W        W33369  15.099   2.156   5.013 -0.1604 -0.0086  0.0061
16896W        W33370   5.192  16.874   3.276 -0.0013  0.1240  0.0430
16897W        W33371  19.263   3.445  10.880  0.0431  0.0009  0.2318
16898W        W33372   4.354  11.000   3.543 -0.3021 -0.4759  0.1814
16899W        W33373   1.519   2.309  12.328 -0.1193  0.1251  0.1125
16900W        W33374  15.150   2.223   1.792  0.0124  0.2124 -0.1983
16901W        W33375  18.158   3.369   1.497 -0.0799 -0.3255  0.0488
16902W        W33376   8.282   5.119   3.884 -0.1399  0.0087  0.0774
16903W        W33377  17.698  11.417  12.049 -0.0831 -0.0728 -0.0837
16904W        W33378  12.051  13.849  14.871 -0.1055 -0.3599 -0.1344
16905W        W33379   3.895   9.009  11.751  0.3615 -0.1045  0.2281
16906W        W33380  15.865  18.609  13.036 -0.0840 -0.0077 -0.1275
16907W        W33381   1.103   4.646   3.431 -0.3705  0.1489 -0.0508
16908W        W33382  17.468  13.406  12.317 -0.1189  0.2035  0.0602
16909W        W33383   7.529   0.879   1.626 -0.1140  0.1690  0.2335
16910W        W33384  15.615   7.127   0.235 -0.1874  0.0922  0.0773
16911W        W33385   6.671  13.373   1.477 -0.2494  0.1325  0.3775
16912W        W33386  14.206   6.278   0.438 -0.2083  0.2723  0.0552
16913W        W33387   6.627  15.979   2.746  0.1018 -0.1630  0.0388
16914W        W33388  14.780  11.427  12.991  0.0782 -0.2299 -0.0416
16915W        W33389   7.944  11.940   1.523  0.0747 -0.0354  0.0111
16916W        W33390  16.385  15.479   3.433  0.1266  0.2144 -0.0775
16917W        W33391  14.453  17.525   5.149  0.2720  0.0565 -0.1986
16918W        W33392  12.991  15.324   0.559  0.1829  0.2311 -0.0902
16919W        W33393  19.287  10.686   0.332  0.2031  0.1308  0.1073
16920W        W33394   9.341  15.025   2.843  0.0219 -0.0087 -0.0204
16921W        W33395   8.979   9.554  11.858  0.0002 -0.0644 -0.2859
16922W        W33396  10.904   3.688  10.512  0.1244  0.1277 -0.0105
16923W        W33397  13.721  19.310   2.018  0.2078 -0.1437 -0.0181
16924W        W33398  14.346  14.045   1.933 -0.1903  0.0054  0.0951
16925W        W33399  10.895   2.562  13.812  0.2701 -0.5896 -0.0484
16926W        W33400   9.445   8.048  13.599 -0.2072  0.1261  0.1733
16927W        W33401  16.048  15.495   1.222  0.1747 -0.0842 -0.2384
16928W        W33402  10.641   5.160  13.955 -0.4474 -0.0843  0.0144
16929W        W33403   7.530  12.031   0.317  0.2786  0.2866  0.3673
16930W        W33404   5.768  11.851   5.108  0.4538 -0.2165  0.1438
16931W        W33405  14.687  17.483  12.968  0.1949 -0.1660 -0.2095
16932W        W33406   2.622  14.636   3.808 -0.3367  0.0181 -0.0226
16933W        W33407   9.002  14.455  10.570  0.0368 -0.0577  0.2557
16934W        W33408   3.333  17.250   1.813 -0.2446  0.0802  0.0163
16935W        W33409   4.244   2.740  12.046 -0.0341 -0.2047  0.1878
16936W        W33410   5.033  15.413   1.799 -0.1583 -0.3905  0.1220
16937W        W33411  15.129   4.607  10.749 -0.1178  0.1563 -0.2486
16938W        W33412   8.872  14.573   1.779  0.1118 -0.1053 -0.1314
16939W        W33413  10.702  17.104   3.009  0.2013  0.1211  0.2177
16940W        W33414  15.189  10.180   2.885  0.2876  0.0453  0.1017
16941W        W33415   7.849  10.792   2.482 -0.1260 -0.1629  0.1542
16942W        W33416   4.326   3.782   1.081  0.0743  0.0044  0.1492
16943W        W33417   9.026  11.159  10.596  0.0659 -0.3636  0.3072
16944W        W33418  17.244  17.209  14.695 -0.0463  0.0465 -0.3124
16945W        W33419   8.817  18.317   1.302 -0.0204 -0.5004  0.1307
16946W        W33420  13.408  18.226   1.381 -0.2858 -0.2907  0.1842
16947W        W33421   2.170   8.638  13.301 -0.3379  0.0033  0.1882
16948W        W33422  11.761   6.990  10.889  0.1380 -0.1687  0.2894
16949W        W33423  15.880  18.192   4.193 -0.2173 -0.3684 -0.2918
16950W        W33424   5.757  11.086  12.362  0.3762 -0.0063 -0.1551
16951W        W33425   1.279   8.099   3.089 -0.1558 -0.2930 -0.1472
16952W        W33426   7.471  14.710  11.721  0.2021  0.1983  0.1182
16953W        W33427  16.843   6.098   3.605  0.1332  0.0242 -0.1133
16954W        W33428   3.604   3.775  12.923  0.0768 -0.2901  0.1979
16955W        W33429  12.158   9.572   0.538 -0.0630  0.0855  0.0740
16956W        W33430  11.571   3.307   2.888  0.1303 -0.1154  0.0352
16957W        W33431  10.578   6.202   0.083  0.0448  0.3017 -0.0965
16958W        W33432  12.233  12.317  14.680  0.2395 -0.0687  0.1646
16959W        W33433   3.833  15.515  11.050  0.2627  0.0235 -0.3084
16960W        W33434  15.763  15.736   1.539 -0.2163 -0.2256  0.1172
16961W        W33435   7.504   0.760   9.730  0.1415 -0.3256  0.0121
16962W        W33436  13.027   0.396   0.366  0.1583  0.3429 -0.3221
16963W        W33437   4.956   4.296   0.538  0.1139  0.1014  0.3406
16964W        W33438  18.324   3.611  10.290 -0.1383 -0.1576 -0.1022
16965W        W33439  12.367  17.301  12.462  0.1990 -0.1875 -0.0289
16966W        W33440   3.258   3.578  13.217  0.2773  0.0883 -0.3135
16967W        W33441  14.924  14.480  13.098  0.1418 -0.1125 -0.0044
16968W        W33442  14.219   7.377  11.272  0.0376 -0.0645 -0.0975
16969W        W33443  14.267  14.585   2.273  0.3110 -0.0670 -0.2900
16970W        W33444  15.981   7.771   1.150  0.0673 -0.1874  0.4320
16971W        W33445  13.623   0.360  12.540  0.1047  0.2662  0.1943
16972W        W33446   6.959  17.420   1.097  0.2668  0.1964 -0.0979
16973W        W33447  13.990   9.483  14.572  0.0427 -0.1420  0.1217
16974W        W33448   4.767  13.327   3.501 -0.2059  0.0309  0.0910
16975W        W33449  16.948  15.443   2.715 -0.0175  0.1909  0.0289
16976W        W33450   2.222  18.982  13.092 -0.0159  0.3463 -0.2229
16977W        W33451   5.583  11.263   4.230  0.0644 -0.0291  0.1719
16978W        W33452  14.143   7.995   3.778  0.2662  0.1392  0.1341
16979W        W33453   7.094   9.108  10.148  0.2271 -0.2268 -0.2942
16980W        W33454   7.887   4.401   0.357  0.1277  0.0429 -0.0229
16981W        W33455   0.443  15.210  11.593  0.1176  0.0176  0.0421
16982W        W33456  11.728   4.852   0.264  0.0634  0.0194 -0.0350
16983W        W33457   1.691   6.266   1.724  0.2128  0.2768  0.0848
16984W        W33458   7.288  17.519   0.254  0.2598 -0.1894 -0.1114
16985W        W33459  11.847   7.914  12.677 -0.0029 -0.0332 -0.3016
16986W        W33460   5.833   0.338  10.014 -0.0604  0.1559  0.0807
16987W        W33461   1.051   9.377   4.356 -0.1484  0.1284 -0.1714
16988W        W33462  12.240   0.638  11.129  0.1375 -0.0323  0.1239
16989W        W33463  17.401  15.221  11.441 -0.1329 -0.5082 -0.0633
16990W        W33464   2.790   4.568   5.802  0.3482 -0.0758  0.4748
16991W        W33465   6.251   9.034  10.199  0.0199 -0.0846  0.3295
16992W        W33466   1.855  14.907   5.450 -0.3263  0.1888  0.0766
16993W        W33467  14.517   1.869  12.229  0.0917  0.0114  0.3145
16994W        W33468   2.024   8.846  12.785  0.0452  0.2222 -0.2457
16995W        W33469   8.712  11.205  11.444 -0.1848  0.0056 -0.2091
16996W        W33470   3.489   4.952   3.258 -0.3883 -0.0602 -0.0282
16997W        W33471  10.034  12.881   0.478 -0.0417  0.2743 -0.2892
16998W        W33472  16.280   3.678   4.291 -0.2308 -0.0445 -0.2256
16999W        W33473   7.699   8.992  11.590  0.0647  0.3015 -0.0200
17000W        W33474  18.144   4.392  13.697  0.0572  0.3706 -0.1778
17001W        W33475  15.078   1.584  14.479 -0.1580 -0.1078  0.0391
17002W        W33476  17.986  13.837   2.127  0.0171 -0.1920  0.1531
17003W        W33477   1.181  13.470   1.356  0.0143  0.2259  0.1275
17004W        W33478  13.028  14.912   3.549  0.0299  0.1366  0.1076
17005W        W33479   7.535   1.845   0.330 -0.0303 -0.2470 -0.2370
17006W        W33480  15.748  15.035   0.064 -0.3092 -0.1533 -0.1875
17007W        W33481   4.916  16.021  11.712 -0.0072 -0.0363  0.0048
17008W        W33482  16.260  10.747  11.180  0.0355 -0.0277 -0.2130
17009W        W33483  11.261  10.091  14.760 -0.1678 -0.0176 -0.1985
17010W        W33484  16.484   4.342  11.993 -0.0126 -0.1249 -0.1533
17011W        W33485   0.298   9.901  12.445 -0.1815  0.1851  0.2713
17012W        W33486   4.737   9.090  11.970  0.2635  0.0579 -0.1705
17013W        W33487   0.394   7.078  13.464  0.0728 -0.0829  0.1390
17014W        W33488   2.098   2.928  11.899 -0.1300  0.0627  0.0219
17015W        W33489  10.251  19.270   4.992 -0.3422 -0.0099 -0.2393
17016W        W33490  13.888  15.098  11.201 -0.0670  0.0553  0.0199
17017W        W33491   5.786   8.310  12.608 -0.1736  0.1721  0.0805
17018W        W33492  10.726  13.500   5.351 -0.0510  0.0371  0.1802
17019W        W33493  17.738   1.663   2.620 -0.3460  0.1387 -0.1801
17020W        W33494   0.838  15.567   2.679  0.2180  0.1317  0.0282
17021W        W33495   2.310   8.453  12.557 -0.1359  0.3204  0.3364
17022W        W33496  10.207   2.204  11.009 -0.1571  0.0652  0.0697
17023W        W33497  13.073   5.562  13.270  0.2158 -0.1336 -0.3696
17024W        W33498   7.574   9.431   5.361 -0.3442 -0.1245 -0.0886
17025W        W33499  11.955   2.508   2.153 -0.0609 -0.1889  0.0522
17026W        W33500   6.325   1.362   9.492 -0.2132 -0.3178 -0.1395
17027W        W33501  15.886  15.674   2.645  0.3759  0.0553 -0.0293
17028W        W33502   3.815   1.318  10.461  0.1724 -0.1031  0.0355
17029W        W33503   6.754  12.146   4.170  0.0592  0.0616  0.1697
17030W        W33504   3.096   5.453   5.082  0.0030 -0.1122 -0.1796
17031W        W33505   6.251   0.570   4.723 -0.0383 -0.0946  0.1195
17032W        W33506   4.160  14.404  13.247 -0.2675  0.0054  0.2819
17033W        W33507   7.367  16.912   3.276 -0.0206  0.3839  0.2746
17034W        W33508   4.887   3.109   1.610  0.1265 -0.0848 -0.0962
17035W        W33509  10.657   0.926  12.410  0.1259 -0.0224 -0.2319
17036W        W33510   7.730   0.347  13.626 -0.1783 -0.0844 -0.3340
17037W        W33511   3.893  17.277   9.786  0.1002  0.2400 -0.1032
17038W        W33512  11.099  11.243  14.577  0.1629  0.1328 -0.3180
17039W        W33513   4.047  17.711   0.200  0.1712 -0.5392 -0.0569
17040W        W33514   1.888  19.310   9.639  0.1113 -0.3058  0.2394
17041W        W33515  17.953   6.052   4.746 -0.0115  0.1223 -0.1142
17042W        W33516   8.372   8.648  10.511  0.0981 -0.3223  0.1244
17043W        W33517   1.148   9.826   0.963  0.1061 -0.2631 -0.1507
17044W        W33518  18.228   8.370  13.249  0.3094 -0.1456 -0.4254
17045W        W33519   6.443   2.944  12.783  0.0547 -0.1565 -0.1016
17046W        W33520  15.041  14.192  14.265 -0.2000 -0.4938 -0.1736
17047W        W33521   5.337   4.187  12.856 -0.0299 -0.1775 -0.3321
17048W        W33522   8.790  10.393  10.250 -0.2481  0.2453  0.0804
17049W        W33523   5.765   7.328   2.404 -0.0870 -0.0668 -0.1055
17050W        W33524   4.073  12.569   0.199  0.2116 -0.2092  0.2314
17051W        W33525   1.536  12.870  13.990  0.1262 -0.0811  0.0656
17052W        W33526   4.012   6.087  14.241 -0.1391  0.0933  0.1895
17053W        W33527  18.109   9.850   0.967  0.0310 -0.1090  0.0998
17054W        W33528  16.802  16.855   0.517 -0.0954 -0.4021 -0.3213
17055W        W33529   7.420  18.562  13.638 -0.1125  0.0030  0.1809
17056W        W33530  14.434  14.502  10.952  0.1362 -0.0986  0.1196
17057W        W33531  15.347   8.293  14.801  0.4720  0.1787 -0.0069
17058W        W33532  11.211   6.486  11.878 -0.1397  0.1538 -0.0625
17059W        W33533   7.855   5.594   0.738  0.1489  0.3739 -0.3174
17060W        W33534   6.590  13.789  14.130 -0.2786 -0.0205 -0.1705
17061W        W33535   5.166   8.629   1.739  0.0924  0.1934 -0.1219
17062W        W33536   7.769  12.745  11.391  0.0031  0.2274 -0.1423
17063W        W33537  18.286  18.735   2.994 -0.0452  0.0129 -0.0147
17064W        W33538  13.734  16.822  14.750  0.3105 -0.0236  0.1759
17065W        W33539   3.892  10.521   1.958  0.1561 -0.1302 -0.0248
17066W        W33540  14.966  16.240  10.980 -0.1989  0.1302 -0.4564
17067W        W33541  18.181   4.178  12.343 -0.0614 -0.2418 -0.0691
17068W        W33542   2.490  16.802  12.296 -0.4048  0.0135 -0.1871
17069W        W33543   7.663   5.086   2.916 -0.0665 -0.5428  0.2672
17070W        W33544   4.005  10.364  11.305 -0.0644 -0.3764  0.2360
17071W        W33545   3.273   1.922   4.418  0.0005  0.4090 -0.1893
17072W        W33546  18.184  10.167   1.445  0.2770 -0.2328 -0.3722
17073W        W33547   0.140   5.480   3.346 -0.1267  0.0195 -0.4397
17074W        W33548  17.577  15.707  12.721  0.0987 -0.2011  0.1844
17075W        W33549   9.531  11.753   0.214  0.2014  0.2098  0.1646
17076W        W33550  16.533  18.616   2.596  0.3761 -0.1110  0.0720
17077W        W33551  16.888  15.868  12.007 -0.2703 -0.0330  0.1175
17078W        W33552   4.379  14.759   4.379  0.1975  0.0388 -0.0345
17079W        W33553   9.241   7.226   0.439  0.1869  0.0646 -0.2070
17080W        W33554  13.783  10.748  12.650  0.0689 -0.2020  0.2693
17081W        W33555  17.090  11.864  12.535 -0.2524 -0.0366  0.0086
17082W        W33556   7.526   1.640   2.477  0.0695  0.0441 -0.1605
17083W        W33557   8.785  16.044   1.088  0.1014 -0.1001  0.3323
17084W        W33558   7.974  17.933  14.638  0.3150  0.1581  0.0639
17085W        W33559  18.642   0.675  11.857  0.2752  0.3260  0.0210
17086W        W33560  13.386  12.609   0.106  0.0356 -0.0667 -0.0589
17087W        W33561   9.730  14.123  13.338 -0.3821  0.0963 -0.0012
17088W        W33562   2.012  10.341  12.417  0.1219  0.0453  0.0022
17089W        W33563   3.018   9.970   0.665 -0.1233  0.0384  0.0312
17090W        W33564   6.892   9.664  12.465 -0.0188 -0.4170  0.0810
17091W        W33565  15.284   9.065   3.942  0.0038  0.2285 -0.0479
17092W        W33566  18.733  12.223  14.762 -0.0126  0.1741  0.0153
17093W        W33567   9.780  12.521  12.473  0.3274  0.2199  0.3556
17094W        W33568  15.051   6.321  12.602 -0.2651  0.4005 -0.3366
17095W        W33569   8.690  13.799   2.664 -0.0478 -0.2211  0.2682
17096W        W33570  11.269   4.714   1.219 -0.1456  0.1134  0.1192
17097W        W33571  12.539   7.377  11.421 -0.3392  0.1630 -0.0905
17098W        W33572   7.508  10.993   0.421  0.2438 -0.0851 -0.0390
17099W        W33573  18.210  10.266   6.029 -0.0480  0.2248 -0.0326
17100W        W33574  13.880  14.677   3.259 -0.1368  0.0941 -0.1552
17101W        W33575   3.186   6.063  14.646  0.2916  0.1045  0.2528
17102W        W33576   7.025   8.851  14.041  0.2997  0.0363 -0.3574
17103W        W33577  11.090   1.960   4.463 -0.0890 -0.2377 -0.1835
17104W        W33578  11.610   9.536   2.298  0.0358 -0.0424  0.1472
17105W        W33579  15.581   3.407   4.528 -0.0521 -0.0366 -0.3055
17106W        W33580   6.922  14.620   0.084  0.1913 -0.1066 -0.2501
17107W        W33581   5.499  17.051  14.839  0.3573  0.0510 -0.0171
17108W        W33582   6.000  16.519  11.646  0.1566 -0.2512 -0.1529
17109W        W33583  19.295  12.889   4.992  0.1313  0.1099 -0.1156
17110W        W33584  12.397  18.489   4.998  0.0724  0.4136  0.1218
17111W        W33585   8.147   6.529   2.456  0.2246 -0.0460  0.2935
17112W        W33586  16.794  18.063  14.687  0.0940 -0.2480 -0.0037
17113W        W33587  14.089  12.827  12.934 -0.2178  0.5575 -0.1886
17114W        W33588   1.638  16.475  10.933  0.0635 -0.0237 -0.1343
17115W        W33589   3.574  11.252  10.823 -0.1617  0.1369  0.1084
17116W        W33590   9.415   2.073  11.665 -0.1072 -0.2236  0.1096
17117W        W33591  10.649   8.123   0.235 -0.1643 -0.2502  0.1417
17118W        W33592  15.068  11.964  14.662  0.0068  0.0297  0.1163
17119W        W33593  18.479  17.890  11.899 -0.0456  0.1711  0.0668
17120W        W33594   4.436  16.280   3.577 -0.1340  0.1527  0.4074
17121W        W33595  14.126  12.615   2.677  0.0729 -0.0628  0.3124
17122W        W33596   8.812   2.963  10.104 -0.1001 -0.0030  0.0421
17123W        W33597   8.032  17.842  12.126  0.3261  0.0635 -0.2875
17124W        W33598  15.346  17.690   1.575  0.2655  0.1660 -0.0200
17125W        W33599  16.872   3.787  12.488  0.2731 -0.1953  0.4025
17126W        W33600   6.143  13.009   3.428  0.0313 -0.0985 -0.0997
17127W        W33601   0.599  15.948  12.715  0.2439 -0.0795 -0.1467
17128W        W33602   4.131   0.284   9.538  0.1626  0.1457  0.2171
17129W        W33603  15.514   7.962   1.969 -0.1724 -0.0356  0.0534
17130W        W33604  13.320  13.510   2.661  0.2349  0.3716  0.1047
17131W        W33605   0.811   8.109   0.485 -0.0041  0.0479 -0.0166
17132W        W33606   1.529  18.580   4.979  0.0236 -0.0810  0.1505
17133W        W33607   3.436  12.291  13.132  0.1359 -0.0553 -0.0786
17134W        W33608   8.683  14.876   4.410 -0.3167  0.0513 -0.1723
17135W        W33609  10.946   3.587  12.643 -0.1270  0.4749  0.5672
17136W        W33610   6.632   5.373   4.001  0.2939  0.0873 -0.1111
17137W        W33611   0.589  14.705   1.472 -0.1075 -0.0781 -0.1555
17138W        W33612  10.352  13.613   1.722  0.3246  0.1463 -0.1743
17139W        W33613   9.226  12.702   0.142  0.0508 -0.0637  0.1296
17140W        W33614  12.703  16.417  14.194 -0.1445  0.3262  0.1249
17141W        W33615  16.321  10.532   3.432  0.0782 -0.0862 -0.1975
17142W        W33616  19.069   9.052  10.864  0.3239 -0.1535  0.2516
17143W        W33617   3.034  10.642   4.274 -0.0060  0.1957  0.2643
17144W        W33618  17.615   8.423   2.059  0.1741  0.0860 -0.3366
17145W        W33619  11.956   6.492  13.169 -0.0018  0.1821  0.3552
17146W        W33620  10.132   6.864   2.952  0.2873  0.4764 -0.3533
17147W        W33621   9.663   9.016   4.903  0.0606 -0.0016 -0.3051
17148W        W33622   6.964  18.586  13.914 -0.2963 -0.0284 -0.2756
17149W        W33623   0.826   0.475   1.710 -0.2821  0.1005 -0.1591
17150W        W33624  19.011   0.929   4.952  0.0774  0.3016  0.0266
17151W        W33625  13.213   9.260  13.417  0.2292 -0.0419 -0.3684
17152W        W33626  16.382   8.852   2.616 -0.3372  0.2244  0.1807
17153W        W33627   2.415   6.638  14.578 -0.0746  0.4799  0.0580
17154W        W33628  14.018  10.313   1.753  0.1574 -0.1429  0.1109
17155W        W33629   5.090   7.701   3.157 -0.1104  0.5716  0.0555
17156W        W33630   9.979   5.036   1.089 -0.4106  0.0941 -0.1157
17157W        W33631   7.042  15.498   2.421 -0.3569  0.0671 -0.0522
17158W        W33632  19.075  11.308  11.598 -0.0729 -0.0127  0.0053
17159W        W33633  12.047  18.175   2.113 -0.1696  0.0521 -0.0393
17160W        W33634  16.932   6.676   1.737 -0.3029  0.2636 -0.1492
17161W        W33635   2.811  18.887   1.529 -0.2237  0.0588 -0.2352
17162W        W33636   6.020  13.957  14.225  0.1949 -0.1204  0.1640
17163W        W33637  10.099   7.423  14.122 -0.1371  0.1184 -0.2056
17164W        W33638  15.402   1.096  12.305 -0.0812  0.0789  0.0873
17165W        W33639  10.061  10.274   5.107  0.0870 -0.0659  0.0228
17166W        W33640  16.992  19.227   1.865  0.0823 -0.0807 -0.1906
17167W        W33641  13.452   4.696   1.459 -0.1431 -0.2360  0.0708
17168W        W33642   1.599  11.095   4.866  0.1952  0.2371 -0.0872
17169W        W33643  15.712  13.985  14.883  0.3696  0.0449  0.2138
17170W        W33644  18.350   2.510   2.357  0.1769  0.2099  0.2065
17171W        W33645  13.088  11.226  11.467  0.1120 -0.0835 -0.0677
17172W        W33646   5.712   7.248   3.078  0.1293 -0.0073 -0.1414
17173W        W33647  15.611   4.281  12.577  0.0059  0.1149 -0.0851
17174W        W33648  18.315  17.042   4.327  0.1017  0.1170  0.0035
17175W        W33649   6.007   4.922   4.778 -0.2884 -0.2701  0.3710
17176W        W33650   0.053   8.608   4.829 -0.3058  0.3430 -0.1351
17177W        W33651  10.166   6.695   3.849 -0.0726  0.2537  0.2625
17178W        W33652  11.800  13.337  14.715  0.0187  0.2643 -0.2236
17179W        W33653   5.452   3.491  13.658 -0.1441  0.1469 -0.1801
17180W        W33654   5.341   4.538  12.479 -0.1515 -0.0388 -0.1741
17181W        W33655   7.433  14.501   0.082 -0.3029  0.0697  0.1130
17182W        W33656  12.464  14.877  11.181  0.0243 -0.3164  0.1700
17183W        W33657   5.667  10.698  11.980 -0.1175  0.1962  0.1543
17184W        W33658  17.514  12.430  13.269  0.3439  0.2129  0.1826
17185W        W33659   5.164   5.912  13.193  0.0122  0.2099 -0.2222
17186W        W33660  15.007   1.616   1.921  0.0567 -0.1929 -0.1214
17187W        W33661  13.095  17.259  14.216 -0.1207 -0.2341  0.0080
17188W        W33662   3.571   0.676  14.224 -0.0445 -0.1852 -0.1131
17189W        W33663  13.829   2.346   0.539 -0.1793 -0.0948 -0.0097
17190W        W33664   6.232   5.331  14.879 -0.0664  0.0547 -0.2143
17191W        W33665   4.187   1.933  14.544  0.0368  0.2602  0.1986
17192W        W33666  13.810  10.393   4.483 -0.0982  0.2346  0.1906
17193W        W33667   0.057   5.127  12.105  0.0148 -0.0361  0.1222
17194W        W33668   4.518   8.810   4.605  0.1239 -0.1602  0.1565
17195W        W33669  18.383   2.864   0.717 -0.0819  0.0307  0.0451
17196W        W33670   6.927   8.867   2.063 -0.0050 -0.0270  0.0825
17197W        W33671  12.234  15.516  13.509  0.0405  0.1959 -0.0484
17198W        W33672   5.833  11.169  14.131 -0.1874  0.0797  0.3039
17199W        W33673  12.770   9.130  11.440 -0.2816  0.0221  0.2337
17200W        W33674   3.103   3.832   0.729  0.0433  0.0349  0.0286
17201W        W33675   6.806   4.718  11.052 -0.0589  0.2857 -0.0349
17202W        W33676  14.566  11.963   0.718  0.1955 -0.1777 -0.2519
17203W        W33677   7.289   3.188   1.691 -0.2019 -0.1650 -0.0861
17204W        W33678  13.879   2.190   3.547 -0.3778  0.2157  0.0044
17205W        W33679   8.978   7.503  10.540  0.3981  0.0284 -0.1115
17206W        W33680   1.962   4.247   2.816  0.3482  0.0483  0.2233
17207W        W33681   8.532   2.806  13.360  0.1985 -0.0087  0.1307
17208W        W33682  11.902  17.347   2.139  0.1953 -0.1278 -0.0442
17209W        W33683   6.626   7.970  14.153  0.3384 -0.1081  0.2719
17210W        W33684   5.438   3.872  14.067 -0.0571 -0.0250  0.0499
17211W        W33685  12.263   1.508   2.728 -0.0147  0.1672  0.0664
17212W        W33686   8.232  13.228   0.548 -0.2870 -0.1495 -0.1225
17213W        W33687  14.633   3.322  12.844 -0.2309 -0.0391  0.1483
17214W        W33688  16.553   0.449   4.491 -0.1502 -0.4170  0.0359
17215W        W33689   8.432   9.366   0.986 -0.1037 -0.2441 -0.1169
17216W        W33690  18.838   5.540  14.753 -0.1094 -0.0484 -0.1428
17217W        W33691   5.073  14.422   2.792 -0.1344  0.1554  0.0547
17218W        W33692  13.389  18.176   3.566  0.2477  0.0288  0.1342
17219W        W33693   7.025  12.780   0.494  0.1240 -0.2304 -0.1517
17220W        W33694  14.671  16.557   2.801  0.2211 -0.1549 -0.1004
17221W        W33695   7.443   0.832   4.342  0.1478 -0.0496 -0.0259
17222W        W33696   8.241  12.674   2.631  0.0749  0.3415 -0.1924
17223W        W33697   4.660   3.837   4.240 -0.0296 -0.1511 -0.1772
17224W        W33698   0.776   8.778  14.069 -0.0709  0.1529 -0.2987
17225W        W33699  10.707   5.398   5.097  0.0743  0.0264 -0.1023
17226W        W33700   2.529   8.060  13.995  0.4590  0.1681  0.2609
17227W        W33701  17.265  17.924  13.281 -0.1555  0.2485 -0.1816
17228W        W33702  11.248   7.898   1.524 -0.3211  0.0108 -0.0736
17229W        W33703  10.915  15.047   4.510 -0.0134 -0.0861  0.0480
17230W        W33704  12.474   8.745  11.254 -0.2465  0.2603  0.0751
17231W        W33705   9.989   7.001  11.280  0.0589 -0.1842 -0.1008
17232W        W33706   7.925   3.829  11.251 -0.0530 -0.0335  0.1076
17233W        W33707   3.305  13.726   1.051 -0.0254 -0.3832  0.0156
17234W        W33708  18.578   9.402  12.772 -0.1775 -0.0356  0.0398
17235W        W33709   7.074  15.623   0.485 -0.0204  0.1230  0.1154
17236W        W33710  11.738   2.976   4.593 -0.0127 -0.1422 -0.0315
17237W        W33711   0.849   3.759  13.300 -0.1090 -0.2865  0.4875
17238W        W33712  12.221   0.832  14.500 -0.2729 -0.1391  0.3415
17239W        W33713   5.382  12.542  13.107 -0.0186 -0.0730 -0.1211
17240W        W33714  15.922  12.324  12.610  0.1734  0.0792  0.0473
17241W        W33715   6.269  12.476   4.317  0.2218 -0.1326  0.1628
17242W        W33716  17.379  10.766   3.091 -0.0361  0.0999 -0.1053
17243W        W33717  16.519  12.949  11.631 -0.1500 -0.0343 -0.1570
17244W        W33718  12.760  17.545   0.174  0.2600 -0.0343  0.1929
17245W        W33719  15.830   5.900  11.551  0.0923 -0.0738 -0.1421
17246W        W33720   5.089   3.051  13.667  0.2932 -0.4234  0.0451
17247W        W33721  18.516   0.724   2.893  0.2052 -0.4149  0.0387
17248W        W33722  15.570  15.102   0.567 -0.0174  0.2668  0.1153
17249W        W33723   1.057   9.877   3.079  0.2383 -0.1487  0.1874
17250W        W33724  14.786   9.223  12.321  0.0992 -0.2501 -0.2031
17251W        W33725  13.934   4.879  11.747  0.2305 -0.1201  0.1307
17252W        W33726  16.088  15.648  11.427  0.0082  0.2333 -0.0253
17253W        W33727  10.197  13.238  10.354  0.0895 -0.0649 -0.2958
17254W        W33728  16.779  15.796  13.833 -0.1595  0.2982 -0.2479
17255W        W33729  10.334   4.838   4.546  0.0312  0.2437  0.0454
17256W        W33730  10.312  15.573  13.612 -0.0636  0.1057  0.0821
17257W        W33731  16.081  10.080   0.125 -0.0190  0.3056 -0.1049
17258W        W33732  12.276   6.846  11.250 -0.0981  0.0099  0.0718
17259W        W33733   9.458  15.080  11.042  0.1555 -0.0174 -0.3342
17260W        W33734   3.408  12.576   1.971  0.1779  0.2986  0.2983
17261W        W33735   2.954   9.190   3.845 -0.1938  0.1095 -0.0154
17262W        W33736  10.881   7.688   1.728  0.1576  0.0198 -0.0191
17263W        W33737   7.166  10.608  13.039  0.1665 -0.0884 -0.0800
17264W        W33738   8.410   0.454   3.992  0.1765  0.0231  0.1820
17265W        W33739   9.980   7.015  11.997 -0.0830  0.0221  0.1176
17266W        W33740  12.725  18.909   3.885 -0.0181  0.1881 -0.2107
17267W        W33741   6.204   5.025   3.067  0.0864  0.1277 -0.1480
17268W        W33742  10.008   0.190   1.565  0.3425 -0.2802 -0.0837
17269W        W33743   2.841   6.680   3.212  0.3015 -0.3386 -0.0434
17270W        W33744   2.784   9.168   4.494  0.1810  0.0806 -0.1358
17271W        W33745  10.318   0.087   1.988  0.3124  0.0997 -0.0380
17272W        W33746  17.898   4.619   3.797  0.3312  0.2037 -0.0958
17273W        W33747   3.730  13.367   3.697  0.0069 -0.2663  0.0811
17274W        W33748   7.933   3.193   0.356  0.2729 -0.2777 -0.2802
17275W        W33749  14.705  19.361   1.919 -0.0354 -0.1373  0.2608
17276W        W33750  13.999   9.612  11.359 -0.3675 -0.2133 -0.0839
17277W        W33751  13.656  10.743   4.040  0.0380 -0.1415 -0.1954
17278W        W33752  15.040   3.342   1.510 -0.1171 -0.1855 -0.1017
17279W        W33753   2.593  10.823   9.612 -0.1399  0.0265 -0.0053
17280W        W33754   0.584   3.264   5.783  0.0290  0.0940  0.0609
17281W        W33755   0.283   1.333   1.215 -0.3649  0.2531 -0.1520
17282W        W33756   8.951   8.940   2.840 -0.1694  0.3638 -0.1426
17283W        W33757   8.709   4.084   3.990 -0.2140  0.0769  0.1998
17284W        W33758   8.334  13.984   1.212 -0.3161  0.0612  0.1932
17285W        W33759  18.572   9.526   2.127  0.1663 -0.1084  0.0325
17286W        W33760  13.346   4.606   2.087  0.0049  0.2418 -0.1597
17287W        W33761  15.923  14.422  10.993  0.1377  0.1309 -0.1313
17288W        W33762   2.336  18.869   0.899  0.0752  0.0447  0.0286
17289W        W33763  14.147   5.620   4.456  0.2809 -0.1704 -0.1161
17290W        W33764  16.394   9.582   2.816 -0.1163  0.0571 -0.1005
17291W        W33765   7.102  10.937   9.667  0.1268 -0.2186  0.0501
17292W        W33766   5.954   4.377  14.085 -0.1975  0.2247  0.2240
17293W        W33767   3.433   1.375   1.091 -0.1977  0.1125  0.0735
17294W        W33768   1.062  10.859  13.073 -0.0402 -0.3325 -0.1298
17295W        W33769   4.508   0.741   0.974 -0.3986  0.0577  0.1561
17296W        W33770   0.583  16.196  11.557  0.1775  0.2047 -0.0377
17297W        W33771  10.493   7.564   1.409 -0.1050 -0.1055  0.0940
17298W        W33772  17.533  10.985  11.078  0.1798 -0.0441  0.3641
17299W        W33773   6.166  14.553  13.569  0.0414 -0.3511 -0.1785
17300W        W33774  10.829  14.783   2.024 -0.6050 -0.0961 -0.3177
17301W        W33775  15.172  18.989  11.565  0.0981  0.3974  0.0757
17302W        W33776  11.431  12.454  10.130  0.0779 -0.1453  0.0673
17303W        W33777   1.798  10.362   2.320  0.0493  0.2831  0.2134
17304W        W33778   8.344  17.091   3.536 -0.1895  0.0930  0.0774
17305W        W33779   5.125  16.018   4.578 -0.0860  0.5052 -0.0888
17306W        W33780   6.034   0.277  10.531 -0.0209 -0.1336  0.1897
17307W        W33781   5.761  19.057   3.875 -0.1342  0.3215  0.2504
17308W        W33782   3.502  16.082  12.024 -0.6870 -0.3425 -0.1676
17309W        W33783   9.051  10.249   1.930 -0.0550 -0.3791 -0.0955
17310W        W33784  15.454   1.387  14.774 -0.1187  0.2336 -0.1598
17311W        W33785  13.035   4.386  10.175 -0.2116  0.4819 -0.5310
17312W        W33786   9.630   5.122  12.629 -0.1485  0.2861 -0.3139
17313W        W33787   3.682  17.688   0.995 -0.1740  0.0882 -0.1799
17314W        W33788  10.967  10.914   2.753 -0.0070 -0.0009 -0.0317
17315W        W33789   6.438  18.855   9.436  0.0859 -0.0579  0.2519
17316W        W33790   2.989  13.500   5.007 -0.4834  0.2441  0.2076
17317W        W33791  18.967   5.445   9.856 -0.4471  0.2758 -0.0780
17318W        W33792  18.330   9.705   2.943  0.0154 -0.1096 -0.0230
17319W        W33793   7.736   9.956   0.711  0.1444 -0.4567 -0.3630
17320W        W33794  19.249   8.527   2.859 -0.4059 -0.0831 -0.2035
17321W        W33795   1.088   8.999   2.711 -0.0189  0.1175  0.0386
17322W        W33796   8.242  16.494  14.860 -0.2919 -0.1334 -0.1308
17323W        W33797   3.561  11.141   2.562  0.6340 -0.3509 -0.1729
17324W        W33798  17.949  16.468   5.355 -0.1021  0.0006 -0.1818
17325W        W33799   8.504   0.486  11.138 -0.0140  0.1072  0.1324
17326W        W33800   7.981  12.187  12.225 -0.0813 -0.0726  0.0312
17327W        W33801   0.065   5.010   4.507 -0.0455 -0.4109  0.1473
17328W        W33802   9.489   3.551   9.467  0.1915  0.1417  0.4774
17329W        W33803  15.441   9.746   4.603 -0.1204  0.2593 -0.1203
17330W        W33804  14.514   4.461  14.640 -0.2733  0.1011  0.2867
17331W        W33805  11.173   0.773   4.010  0.1392 -0.0304 -0.1445
17332W        W33806   8.653  11.691  13.002  0.0665 -0.0332 -0.2695
17333W        W33807  15.408  14.071   4.169 -0.0512 -0.1688 -0.1655
17334W        W33808   6.704  11.913   1.358 -0.1222  0.2749  0.1502
17335W        W33809  14.160  17.369  11.206 -0.1131 -0.0858 -0.0356
17336W        W33810   1.417  17.376   3.971 -0.1058  0.0116  0.1515
17337W        W33811   1.948   0.783   0.950  0.4628 -0.5692  0.0878
17338W        W33812   2.773   8.186   0.658 -0.0418  0.1402  0.1151
17339W        W33813  13.999  10.629  11.147  0.0776 -0.2135 -0.0377
17340W        W33814   1.665   7.900  12.037  0.1694  0.1081 -0.0580
17341W        W33815   3.262   7.397  11.001  0.4057  0.2046  0.0785
17342W        W33816   6.700   7.397   0.294  0.0086 -0.1722 -0.0313
17343W        W33817   4.536  15.634   2.477  0.1711 -0.2265 -0.2017
17344W        W33818   2.385   1.000  12.687 -0.0451 -0.4674 -0.2884
17345W        W33819  12.150  15.114  14.432 -0.0435 -0.0904  0.0416
17346W        W33820  16.655   9.170  10.664 -0.0035  0.0392  0.1019
17347W        W33821   8.165   7.296  11.525 -0.3032 -0.3512  0.2166
17348W        W33822   9.547   0.809  13.991 -0.0021  0.2273 -0.2805
17349W        W33823  14.211   0.814   1.379  0.1421 -0.0821 -0.1450
17350W        W33824   4.659   8.426   0.138  0.5232 -0.4576  0.1375
17351W        W33825  18.405  19.051  14.394  0.2268 -0.0013 -0.2190
17352W        W33826   1.672  12.714   1.384  0.0655 -0.0581 -0.0492
17353W        W33827   2.833   6.545   3.801 -0.0182 -0.2061 -0.1609
17354W        W33828  11.096   6.223   0.670 -0.2656 -0.1262  0.0728
17355W        W33829   4.703   3.493   1.299 -0.0091 -0.0564  0.2818
17356W        W33830   2.732  18.434   3.750  0.3344  0.0458 -0.0262
17357W        W33831   6.780   2.061  10.794  0.2036  0.0096  0.1202
17358W        W33832   8.628  15.599  13.880 -0.3300 -0.0056 -0.2840
17359W        W33833   5.133  11.646   2.047  0.1481 -0.0964 -0.0839
17360W        W33834   0.736  16.863  12.296  0.1126 -0.0453 -0.0140
17361W        W33835   2.754   5.168  11.112  0.1482  0.2634  0.0476
17362W        W33836  12.126   9.904   4.221 -0.0704 -0.2509  0.3001
17363W        W33837  19.277  15.246   1.495  0.3293 -0.3230 -0.3622
17364W        W33838  15.970  19.198  13.441  0.2373 -0.1047 -0.0858
17365W        W33839  12.662   0.896  11.965  0.0237  0.1811 -0.0415
17366W        W33840   4.191  17.708   4.736  0.1869 -0.0191  0.0217
17367W        W33841  10.089  14.918   3.049  0.1691 -0.0490 -0.0387
17368W        W33842   2.976  10.014  13.701  0.1278  0.2832  0.3206
17369W        W33843  15.652  18.714   2.861  0.1053 -0.1687  0.0828
17370W        W33844   0.003   7.937   2.258  0.0012  0.2189 -0.1192
17371W        W33845   9.043  15.269   1.863  0.0309  0.0270 -0.1388
17372W        W33846   5.816  15.060  12.727  0.0384  0.0744  0.0389
17373W        W33847   0.156   4.212   3.354  0.0963  0.0582  0.2754
17374W        W33848   1.732   2.196  14.690  0.1045 -0.0350 -0.0913
17375W        W33849   4.196  18.597  11.945  0.2301  0.0630  0.1425
17376W        W33850  12.000  10.639   2.655 -0.1466  0.0395 -0.0296
17377W        W33851  12.994  18.324   0.603  0.0698 -0.3871 -0.0764
17378W        W33852  16.097  19.380  10.912  0.1523 -0.0484  0.1832
17379W        W33853   1.398  14.447   0.666 -0.0610 -0.0772 -0.0121
17380W        W33854  12.592  15.447   0.305 -0.0595  0.2528  0.0920
17381W        W33855  13.188   2.153  13.823 -0.0195 -0.0385 -0.3931
17382W        W33856   6.874   2.024   0.441 -0.2709 -0.1477  0.2193
17383W        W33857   4.524   5.942   5.116 -0.3537 -0.0540 -0.0817
17384W        W33858   5.884   9.665   2.854 -0.2153 -0.2210 -0.0090
17385W        W33859  14.890   9.486   5.152  0.0968 -0.1702  0.0131
17386W        W33860   0.879   6.124  13.889  0.2431  0.1477  0.1275
17387W        W33861   4.893  17.277   4.879 -0.3435 -0.4951  0.0277
17388W        W33862   7.804   2.162  12.101 -0.1020  0.0698 -0.2450
17389W        W33863   8.537  13.380   4.579  0.0850  0.0061 -0.0338
17390W        W33864  14.111   6.178   4.151  0.1185  0.0835  0.1858
17391W        W33865   0.403  10.056   2.020 -0.1800 -0.0779 -0.1441
17392W        W33866   1.423  18.911  10.637 -0.1096  0.3842 -0.2437
17393W        W33867  11.250  11.276  11.756 -0.0821  0.1737 -0.1715
17394W        W33868  13.036  12.025   0.608  0.2504  0.0259  0.0975
17395W        W33869   6.741  10.325  10.182  0.1058  0.0802  0.3262
17396W        W33870  18.445  13.097   2.223  0.0549 -0.1038 -0.0403
17397W        W33871   6.580  19.077   4.633 -0.4051 -0.0228  0.0003
17398W        W33872   5.003  12.061   0.308 -0.0757 -0.1572  0.0548
17399W        W33873  11.356  12.510   5.719 -0.2456  0.0719  0.0036
17400W        W33874  12.314   5.808   4.688 -0.2242  0.0864  0.1163
17401W        W33875  14.053  10.166  13.653  0.1325 -0.1357  0.0618
17402W        W33876   6.632  10.410  11.765  0.1609  0.4103 -0.0410
17403W        W33877  15.692  16.555   4.722 -0.2065 -0.3358  0.2886
17404W        W33878  14.371  10.408   5.301 -0.0700  0.1836  0.0669
17405W        W33879  12.378  16.829  12.205 -0.0009 -0.2571  0.4684
17406W        W33880   1.652   1.699  10.845 -0.2158  0.2371  0.0451
17407W        W33881   3.949  16.785  11.018  0.1306  0.0134 -0.0121
17408W        W33882  15.200  14.417  11.481 -0.0985  0.1754  0.1331
17409W        W33883   6.956   0.476  12.020 -0.2801 -0.2536  0.0436
17410W        W33884  11.212   0.099  13.525 -0.0860  0.1537 -0.1711
17411W        W33885   4.831   1.480   2.705  0.1126  0.1892  0.0346
17412W        W33886  10.832   8.616   0.049  0.0081 -0.0170  0.1248
17413W        W33887  17.229   8.153   0.220 -0.0086  0.0883  0.0144
17414W        W33888  12.236  11.083   2.358 -0.1181 -0.1808  0.0013
17415W        W33889   7.814   1.262  11.757 -0.2886  0.0493 -0.1841
17416W        W33890  14.271   0.375  11.004  0.1193 -0.2726 -0.2201
17417W        W33891   0.341  11.485   2.676  0.0681  0.0749 -0.1020
17418W        W33892  12.813  17.310  11.304  0.0499 -0.1945 -0.0056
17419W        W33893  14.875  10.527  14.037 -0.0433 -0.0378  0.0716
17420W        W33894  15.695   9.320   0.204  0.2602 -0.2708  0.4424
17421W        W33895  10.544   6.192   0.591 -0.1841  0.1068  0.1363
17422W        W33896  12.116  16.203  14.565 -0.1830  0.2277  0.2803
17423W        W33897  14.810   9.425   3.807 -0.0096  0.2643  0.3510
17424W        W33898   7.540   8.344  10.107  0.0318  0.0172 -0.1740
17425W        W33899   3.453   3.121  10.665 -0.1378  0.1706 -0.0180
17426W        W33900  13.349  15.396   3.349  0.0118  0.0494 -0.0514
17427W        W33901   1.095  15.854  10.512 -0.3011 -0.1923  0.1793
17428W        W33902  17.937  17.184   4.664  0.3261  0.2770 -0.4812
17429W        W33903  11.333  11.253  12.347 -0.0661  0.0798 -0.0910
17430W        W33904  16.230   0.165  14.229  0.1021  0.2499  0.0381
17431W        W33905   8.216   6.113  10.059 -0.0569 -0.0010 -0.0902
17432W        W33906  14.311  12.738   4.249 -0.1927 -0.4513  0.1072
17433W        W33907  16.624   4.648  12.356  0.2214  0.2249 -0.0206
17434W        W33908   5.411  15.594  12.481 -0.0511  0.0177 -0.2669
17435W        W33909  17.903  17.851   3.204 -0.0273 -0.3734 -0.0425
17436W        W33910   2.971   4.191  14.410  0.0897 -0.3450 -0.4499
17437W        W33911   9.412   8.587   0.343 -0.0701 -0.0803  0.3040
17438W        W33912  12.698  18.402   4.576 -0.0669 -0.0416 -0.1955
17439W        W33913  18.158  17.602  11.519  0.2068  0.0551 -0.0224
17440W        W33914  14.711   2.348   2.181  0.2814  0.2565 -0.1015
17441W        W33915  16.031  14.896   0.511 -0.2299  0.1899 -0.1445
17442W        W33916  14.047  10.834  14.436 -0.2813  0.1080  0.2409
17443W        W33917  11.785  10.851  14.526  0.1019 -0.1233  0.1325
17444W        W33918  13.783   3.864   1.147 -0.1601  0.0109  0.1831
17445W        W33919   7.658  13.582   3.554 -0.0783  0.2686 -0.2684
17446W        W33920  11.449   9.127  14.773  0.1586  0.2465  0.0041
17447W        W33921  15.729  15.655  12.351  0.3698 -0.0432  0.0369
17448W        W33922   2.967  13.001  10.789  0.0333 -0.0111  0.0286
17449W        W33923   8.022  14.882  13.193 -0.0654  0.0198  0.0551
17450W        W33924  17.877   0.391  11.282 -0.0700  0.3082 -0.2478
17451W        W33925   8.401  12.828   3.539 -0.3594  0.1790  0.3810
17452W        W33926   6.582  15.146  14.104  0.1545  0.4368 -0.0818
17453W        W33927   1.720  11.482  11.594  0.1072 -0.1995  0.0630
17454W        W33928   3.441   9.214  11.946 -0.2111 -0.1234 -0.1494
17455W        W33929   5.524  13.030  11.979  0.0972 -0.0011  0.1104
17456W        W33930   0.383   3.468   2.400 -0.0698  0.2299  0.1265
17457W        W33931  10.770   2.702  10.032 -0.0506 -0.0392  0.0562
17458W        W33932  17.394   7.767   2.275 -0.2690 -0.1431 -0.1200
17459W        W33933  14.546   3.672   3.173  0.2604  0.2307 -0.1196
17460W        W33934   6.223   1.997   2.800  0.0641 -0.3052  0.0536
17461W        W33935  15.845  12.829   1.737 -0.0024  0.2213 -0.1358
17462W        W33936  17.752  14.342   2.252 -0.0350 -0.1735 -0.1228
17463W        W33937   9.917   9.885  14.239 -0.0918  0.3351  0.0500
17464W        W33938  12.867  12.654  11.596 -0.0862  0.1559 -0.0600
17465W        W33939   4.476   9.942   2.669 -0.0248 -0.0715 -0.0056
17466W        W33940   3.272   7.985   0.892  0.0198 -0.0266  0.0469
17467W        W33941  17.585  16.776   3.521  0.2978 -0.2496 -0.0594
17468W        W33942  12.147  18.794   0.682  0.1093 -0.0036 -0.3358
17469W        W33943   0.161   1.643   0.796 -0.0569 -0.0063 -0.0352
17470W        W33944   1.824  12.280   4.077  0.0640  0.1165 -0.0887
17471W        W33945   3.048  16.871   1.700 -0.0749  0.0531  0.4505
17472W        W33946  19.262   4.158   1.369 -0.1581 -0.0293 -0.3134
17473W        W33947  15.927  11.756  14.611 -0.0736 -0.3108  0.2731
17474W        W33948   9.278  11.991  11.623  0.1294 -0.7101 -0.0186
17475W        W33949  15.775   3.333  12.306 -0.2037 -0.2915  0.0459
17476W        W33950  17.702   7.444   2.984 -0.3074 -0.3512  0.0844
17477W        W33951   0.161  10.666  11.968 -0.2847 -0.1143 -0.2367
17478W        W33952   8.911  11.332  14.556  0.0336 -0.0340  0.0721
17479W        W33953  14.495   5.087  11.773  0.0603  0.1546 -0.1245
17480W        W33954  14.470  15.723   4.864  0.0061  0.1836 -0.0979
17481W        W33955   6.606   8.182   3.341 -0.0173 -0.4035  0.0342
17482W        W33956  12.193  10.796   0.465 -0.1568  0.3055  0.0348
17483W        W33957   6.738  17.430  12.003  0.0232  0.2245 -0.1973
17484W        W33958  16.592  17.390   3.422  0.3295  0.1215 -0.0226
17485W        W33959  14.798  14.780   1.774  0.1960  0.1372 -0.0167
17486W        W33960   6.847  16.271   1.285 -0.2154 -0.1994  0.1650
17487W        W33961   8.146  11.314  13.805 -0.0818 -0.1075  0.1021
17488W        W33962  18.813  17.590   2.885 -0.0584 -0.3364 -0.3300
17489W        W33963   0.033  11.510   3.819  0.0541 -0.4612 -0.2051
17490W        W33964   1.303  10.122   0.568  0.1486 -0.0134 -0.2450
17491W        W33965   0.686   2.472  13.816 -0.0582  0.0928 -0.1833
17492W        W33966  18.977  12.776   4.094 -0.0528  0.0866  0.0711
17493W        W33967  10.515  15.056  12.295  0.0516 -0.0101  0.1332
17494W        W33968   6.455   1.218   1.723  0.1262  0.0081 -0.0864
17495W        W33969  12.515   9.238   0.177  0.1771  0.2471  0.2716
17496W        W33970   0.790  19.295  13.379  0.0893  0.2648 -0.1684
17497W        W33971   1.437   0.292  12.306  0.1089  0.1719  0.2368
17498W        W33972   0.464   8.882  12.488  0.2038  0.1186 -0.2218
17499W        W33973  15.848  13.057   4.206 -0.1346 -0.0843  0.1344
17500W        W33974   4.176   0.337   1.255 -0.0276 -0.0671 -0.1483
17501W        W33975   4.620   9.677   2.241  0.3475  0.0438 -0.2361
17502W        W33976  18.568  12.423   5.180  0.1610  0.0146 -0.1791
17503W        W33977  11.425   3.382   1.976  0.1398 -0.3791  0.1092
17504W        W33978  17.334  17.500   1.039  0.2534 -0.0873  0.0653
17505W        W33979  15.392  13.459   3.591 -0.0150  0.0283 -0.2425
17506W        W33980  13.212  14.644   2.575  0.1614  0.0994 -0.0235
17507W        W33981   7.238  18.177   1.290 -0.1549  0.3493 -0.3981
17508W        W33982   1.408  10.645   3.512 -0.0271  0.4772 -0.1236
17509W        W33983   7.713   0.349   0.330  0.0098  0.4619 -0.0046
17510W        W33984   0.051   5.277  11.641 -0.3222  0.0396  0.1141
17511W        W33985   1.159   4.672  12.978  0.3553  0.2191  0.2328
17512W        W33986  16.214  16.690  12.626  0.0111 -0.1865  0.0545
17513W        W33987  11.405  17.712  11.545  0.2296  0.2598 -0.0239
17514W        W33988   2.723   5.062   4.809  0.4612 -0.5616  0.0684
17515W        W33989   8.203  15.389   5.191 -0.0962  0.1493 -0.2836
17516W        W33990  13.391  17.508  11.396  0.2451 -0.1010 -0.0590
17517W        W33991  16.098   9.389   1.412  0.2648  0.0633  0.1233
17518W        W33992   1.368  14.887  13.054  0.5721 -0.1693  0.1524
17519W        W33993   0.018  16.946   4.202 -0.0042  0.1642 -0.2047
17520W        W33994   8.459  10.633  13.746  0.1959  0.1336 -0.2085
17521W        W33995  15.714  17.853  12.262 -0.3221 -0.0094 -0.0683
17522W        W33996  19.130   0.215  13.610 -0.1154  0.2144 -0.1462
17523W        W33997   3.730  16.824   3.618 -0.2300  0.1264  0.2704
17524W        W33998   1.018  14.545   1.125 -0.2041 -0.0826 -0.2406
17525W        W33999   7.062   9.950  11.172 -0.0078 -0.2870  0.1056
17526W        W34000  14.404   6.217   4.529  0.1178  0.3960  0.1052
17527W        W34001   1.919  11.369  11.074 -0.1626  0.0778 -0.0474
17528W        W34002  11.134  11.187  11.225  0.0608  0.1950 -0.0268
17529W        W34003  10.450   0.813   2.042  0.0647  0.2654 -0.2248
17530W        W34004  15.974   3.191   4.853  0.0737 -0.1732  0.0546
17531W        W34005   7.300  12.325   1.849  0.1499 -0.0638 -0.1407
17532W        W34006  14.563  18.319  12.571  0.1427 -0.2264 -0.4210
17533W        W34007  15.144  12.342   3.143 -0.1639 -0.1636  0.0825
17534W        W34008  13.330   7.916  14.736 -0.0196  0.0109  0.1381
17535W        W34009   5.987   1.312  13.193  0.0939 -0.0693 -0.1848
17536W        W34010  16.785   7.596   2.767  0.0839  0.0250  0.0861
17537W        W34011  10.253   9.532   1.192  0.0514 -0.0380  0.0852
17538W        W34012   9.368  14.446   1.478 -0.1965 -0.2544  0.2620
17539W        W34013   3.352   3.457   0.438  0.2747  0.2382 -0.1666
17540W        W34014   7.553   7.154   3.314 -0.1815 -0.0182 -0.1480
17541W        W34015   8.427  14.007  11.335  0.0713 -0.1441 -0.1529
17542W        W34016  18.921   8.178   9.377  0.1595 -0.2268 -0.3480
17543W        W34017   8.777   3.508  10.131 -0.0072  0.0831  0.4525
17544W        W34018  16.304  14.828   0.007 -0.0185 -0.2798  0.0652
17545W        W34019   5.965   2.011   2.386 -0.0789  0.1682  0.1505
17546W        W34020  12.871   7.155  14.092 -0.0548  0.2777  0.1630
17547W        W34021   9.045  15.587  13.032 -0.0407  0.1087 -0.1576
17548W        W34022   1.656  10.055  13.184 -0.1630 -0.0396  0.0342
17549W        W34023  15.917  18.510   3.382  0.1570 -0.2160 -0.0516
17550W        W34024   4.687  17.241  11.953 -0.1625  0.1937 -0.1854
17551W        W34025   8.021  11.028  10.552 -0.2020 -0.1239  0.0929
17552W        W34026  18.512  19.266  10.894  0.1655  0.1336 -0.1949
17553W        W34027  18.826  19.257   4.360 -0.0134 -0.0161  0.1279
17554W        W34028   5.409   7.690   4.292  0.2349 -0.1659  0.1860
17555W        W34029  14.744  18.870   2.098 -0.0192  0.2704 -0.0829
17556W        W34030   6.434  11.848  13.161 -0.1304 -0.1840  0.1426
17557W        W34031  18.238   8.573   2.581 -0.1520 -0.2390  0.1260
17558W        W34032   2.558   3.156   2.592 -0.0916 -0.1122  0.0674
17559W        W34033   6.159  16.945  11.481 -0.0780 -0.0892  0.2040
17560W        W34034   6.049   1.396   1.970 -0.0228 -0.3619  0.2817
17561W        W34035   9.933  11.097   1.240 -0.1277 -0.2306 -0.4211
17562W        W34036   9.256  17.807  10.896  0.0689  0.4312 -0.1746
17563W        W34037  19.196   2.106   3.071  0.0834 -0.1525  0.1086
17564W        W34038   0.886   3.523  14.275 -0.0541  0.1839 -0.1267
17565W        W34039   8.176   5.644   4.304 -0.4244 -0.0465 -0.4717
17566W        W34040   2.566   4.009   1.371 -0.0157 -0.0756  0.0813
17567W        W34041   0.299  18.469   3.239 -0.2086 -0.4446  0.1091
17568W        W34042   6.001   6.184  10.189  0.3212 -0.0295  0.0336
17569W        W34043  12.169   3.411   2.939 -0.1524  0.1294  0.0560
17570W        W34044  13.374  16.567   5.073 -0.0108  0.1223 -0.3638
17571W        W34045   3.982  14.826  12.239  0.1635  0.0858 -0.0620
17572W        W34046  10.670  19.115  12.948 -0.1246 -0.1600 -0.2070
17573W        W34047  11.931  12.060   1.005 -0.0594 -0.0363 -0.2879
17574W        W34048   8.029   1.917  11.653 -0.2305  0.2231  0.1267
17575W        W34049  17.176   1.547   1.452  0.2171 -0.0234  0.2111
17576W        W34050   9.757  14.281  11.203  0.2164 -0.1083  0.1158
17577W        W34051   6.149   7.500  14.661 -0.4125  0.2097  0.0244
17578W        W34052  17.530  11.925  14.252  0.1540 -0.2084  0.3787
17579W        W34053   5.761   8.355   3.820  0.2341 -0.2814 -0.0633
17580W        W34054  17.494  13.626  14.043  0.1363 -0.2631  0.2334
17581W        W34055  18.043  14.544   0.254 -0.1529  0.2136  0.3012
17582W        W34056  14.179  19.169  10.772 -0.4220 -0.1158  0.1600
17583W        W34057   8.186  14.490  13.958  0.0588 -0.3346 -0.1648
17584W        W34058   8.607  11.169  11.931 -0.2591 -0.3688  0.1032
17585W        W34059  17.305   7.840   0.571  0.1251  0.0794  0.1714
17586W        W34060   0.679   9.474  14.001  0.0467  0.2289  0.0488
17587W        W34061   4.857  10.624  14.256  0.1956 -0.4646  0.3758
17588W        W34062   5.476  13.744   2.819 -0.2145 -0.4289 -0.1688
17589W        W34063   2.246   4.279  11.778  0.1288  0.0160  0.0028
17590W        W34064   1.005  13.433   0.872 -0.2609 -0.0441 -0.2054
17591W        W34065  11.892   7.137  12.122  0.1098  0.0562  0.1242
17592W        W34066   1.593  15.568   0.943 -0.2245  0.0904 -0.0381
17593W        W34067  16.002   9.347  10.125  0.0733  0.0189 -0.3601
17594W        W34068   2.064   5.199  14.516 -0.0093 -0.0665  0.0601
17595W        W34069  10.490   2.546   1.653  0.0573 -0.4060  0.1541
17596W        W34070   4.299  10.534  13.565 -0.1688 -0.1243 -0.0587
17597W        W34071   1.352  14.910  11.506  0.4435 -0.0759 -0.3961
17598W        W34072  14.093   6.378  13.170 -0.0469  0.1164 -0.0691
17599W        W34073   9.697  14.771   4.690 -0.0200 -0.0492  0.5471
17600W        W34074  15.565  11.674  11.126  0.1774  0.2225  0.0718
17601W        W34075   4.031  11.214   0.377  0.0185 -0.0642 -0.0060
17602W        W34076  11.749  12.096  12.154 -0.3614 -0.0836 -0.1495
17603W        W34077   3.450   4.937  12.517  0.2033 -0.2045 -0.0670
17604W        W34078   5.561  14.368  11.551 -0.0104 -0.2634 -0.1224
17605W        W34079   6.263  10.672  10.849 -0.0475 -0.2914  0.0063
17606W        W34080  17.263  15.768  13.799  0.0133 -0.1689  0.0207
17607W        W34081   6.407  17.081  14.166 -0.0481 -0.0479 -0.1074
17608W        W34082  17.576   2.097   5.127 -0.2171 -0.0813 -0.2019
17609W        W34083   6.584   7.302   9.216  0.2775  0.2621  0.1561
17610W        W34084  18.081   1.842  14.876 -0.0924 -0.0872 -0.1336
17611W        W34085  18.034   9.337   5.292  0.0818 -0.4775 -0.1151
17612W        W34086   4.590   7.876  11.597  0.0970 -0.0248  0.2544
17613W        W34087  16.584   2.440  10.681  0.0178 -0.1810  0.1690
17614W        W34088  11.786   1.735   3.229 -0.0580  0.3514  0.2224
17615W        W34089   6.970   5.867   0.294  0.4968 -0.3702 -0.4604
17616W        W34090  11.611  15.624   1.535 -0.1401  0.0603 -0.1368
17617W        W34091   6.261  16.604   0.060  0.1916  0.0209  0.1332
17618W        W34092   8.286   5.897  13.518 -0.3219  0.1731 -0.3367
17619W        W34093   2.197  15.139  11.107 -0.0999  0.2905 -0.1864
17620W        W34094  14.630  12.209  10.878 -0.2694 -0.0090 -0.1137
17621W        W34095   2.714   1.626  11.415  0.0506 -0.0651  0.0735
17622W        W34096   5.427  10.377   2.977  0.0262  0.1584 -0.0100
17623W        W34097   0.399  11.674  12.081  0.0532 -0.0969 -0.0524
17624W        W34098   5.780  18.181   2.889 -0.0782  0.0286  0.1041
17625W        W34099   1.314   0.900   1.422  0.2420 -0.2504 -0.0220
17626W        W34100   8.300  17.860  10.714 -0.2022  0.4699  0.3105
17627W        W34101  14.489  16.865   1.380  0.0450 -0.2037  0.1515
17628W        W34102   3.284  16.319   4.787 -0.2229  0.1918 -0.4675
17629W        W34103  10.419  10.034  11.538 -0.0993  0.0499  0.0425
17630W        W34104   3.830   3.288   4.455 -0.1075 -0.0778  0.0127
17631W        W34105   5.457  12.295   4.813  0.1194 -0.2379  0.1740
17632W        W34106  19.297   2.537   2.839  0.0373 -0.1779  0.0362
17633W        W34107   0.053  16.371  13.860  0.0219 -0.0162 -0.0991
17634W        W34108   6.881   1.811   4.926  0.4469 -0.0600 -0.0768
17635W        W34109  18.846  10.684  14.172  0.0081  0.0141 -0.0527
17636W        W34110   0.924  18.177  14.153  0.2008  0.0187 -0.1705
17637W        W34111  10.283   1.513   1.678  0.0102 -0.1471 -0.0357
17638W        W34112  18.063  17.073  12.884 -0.0643 -0.0242 -0.2088
17639W        W34113   8.496  13.113  13.674  0.1650 -0.1127 -0.1711
17640W        W34114  15.974  10.150  11.909  0.0966 -0.1948  0.1271
17641W        W34115   9.931  12.046   1.941  0.5460  0.1066 -0.2047
17642W        W34116   5.912  15.850  11.352 -0.1078 -0.1902 -0.0763
17643W        W34117   6.236  15.520  13.573 -0.1631  0.2754 -0.3600
17644W        W34118  10.345  14.453   1.529  0.1859  0.1329  0.3590
17645W        W34119   3.080  12.102   3.356 -0.0327 -0.0459  0.0045
17646W        W34120  10.879   8.630  10.169  0.1082  0.1197  0.2693
17647W        W34121   5.642  16.260   1.925  0.1296 -0.0403  0.2386
17648W        W34122  15.432  10.018   4.199 -0.1961 -0.0865 -0.1053
17649W        W34123  15.547  14.814  14.530  0.0833 -0.1824 -0.1401
17650W        W34124   7.722  10.511   2.001  0.3039 -0.0299  0.2717
17651W        W34125   2.353  17.413  13.259 -0.0018 -0.2066 -0.0305
17652W        W34126  18.463  10.257  13.962  0.0890  0.2937  0.0591
17653W        W34127   7.325  18.137   4.064  0.0091  0.4049  0.2393
17654W        W34128  13.878  12.992   1.101  0.2334 -0.0055  0.0207
17655W        W34129  13.925  11.103   5.029 -0.1747 -0.0498 -0.0144
17656W        W34130   3.648   5.488   9.943  0.1812 -0.0895  0.0427
17657W        W34131  16.040  11.208  12.669  0.0472 -0.0569  0.1152
17658W        W34132  12.620   6.819   2.638  0.4463  0.0756 -0.0598
17659W        W34133   7.363   0.285  11.735  0.0756  0.0194  0.2547
17660W        W34134  17.035  13.028   1.998  0.1101 -0.1477  0.1443
17661W        W34135  10.007   4.564   4.214  0.1268  0.0731 -0.0712
17662W        W34136   8.023   5.154  11.681  0.0371  0.1197 -0.1837
17663W        W34137  10.455  14.161   0.597  0.1316 -0.2735  0.3054
17664W        W34138   9.931   9.284  10.249  0.0909 -0.1290 -0.0685
17665W        W34139   1.176  18.765  12.178  0.3520  0.0938 -0.2234
17666W        W34140   4.153  10.808   2.351 -0.2486 -0.0260 -0.1987
17667W        W34141  11.831  12.260  10.553  0.0769 -0.1128 -0.2999
17668W        W34142   9.412   1.896  10.446  0.1217 -0.0009  0.2037
17669W        W34143  10.880   7.956  10.827 -0.1915  0.0005  0.2052
17670W        W34144  14.270  11.142   1.978  0.3338  0.3375 -0.1763
17671W        W34145   5.347  13.299  14.350 -0.5133  0.1924  0.1511
17672W        W34146  12.217   2.476   4.196 -0.1807  0.2458  0.2163
17673W        W34147   5.526  15.873  12.873  0.1646  0.0886 -0.1714
17674W        W34148   5.147   6.187   0.578  0.3136 -0.1372  0.0266
17675W        W34149   9.768   0.282  13.051 -0.1289 -0.0302  0.0714
17676W        W34150   4.587   8.245  10.889  0.1700  0.2069  0.5373
17677W        W34151   8.488   4.586  13.513 -0.2015 -0.2115  0.1832
17678W        W34152   9.801  10.582  11.704 -0.0174 -0.2567 -0.1806
17679W        W34153  15.659  18.764  12.044 -0.0885  0.1937 -0.0989
17680W        W34154   9.836  11.925  14.633 -0.1904 -0.0964 -0.0547
17681W        W34155  18.615  15.025  13.357 -0.0361  0.0265  0.0952
17682W        W34156  12.065   7.195  10.006 -0.0371 -0.0074  0.1115
17683W        W34157   0.324   3.339   0.083  0.1677  0.0812 -0.0842
17684W        W34158  11.531  18.785   0.246  0.1090 -0.1668 -0.0075
17685W        W34159   5.946  12.135  11.826 -0.3227  0.2579 -0.0084
17686W        W34160   5.378   7.203  12.820 -0.1658  0.1519  0.0535
17687W        W34161  16.813   5.091   0.758  0.2235 -0.6657  0.1453
17688W        W34162   9.974  18.419  12.196 -0.0448  0.0132  0.0214
17689W        W34163   8.965   5.260   3.586  0.1193  0.2297  0.3902
17690W        W34164  10.842  12.704  11.517 -0.0455  0.0530 -0.1318
17691W        W34165   6.773  13.263  13.022 -0.2797  0.2307  0.2715
17692W        W34166   0.269  15.221   0.489 -0.5040 -0.1169 -0.2239
17693W        W34167   1.781  16.606  13.383 -0.3414  0.2196 -0.2017
17694W        W34168   1.896   9.579   9.443 -0.1284 -0.2333 -0.2228
17695W        W34169  19.103   3.319   0.639 -0.0307 -0.0267  0.1597
17696W        W34170   1.707   6.232  11.308  0.0233 -0.3899  0.2044
17697W        W34171   8.525  11.917   2.342 -0.1334 -0.0530  0.2804
17698W        W34172  12.309  11.596   0.140  0.1036  0.3765  0.1368
17699W        W34173  18.732   6.750   2.694  0.0635  0.1906 -0.1033
17700W        W34174   8.712  16.446  12.873  0.1042 -0.1623  0.1486
17701W        W34175   6.321   8.589  14.454  0.1742 -0.0888 -0.1042
17702W        W34176   0.017  12.475  13.480  0.0654 -0.0307  0.1637
17703W        W34177   4.402  11.296  13.677  0.0253 -0.0009 -0.1478
17704W        W34178   0.754   6.362  11.357 -0.1225  0.0791  0.0454
17705W        W34179   2.743   9.499   0.675  0.0455 -0.1026 -0.2251
17706W        W34180   5.405   5.946  14.560  0.3064  0.1312  0.0902
17707W        W34181   1.502   2.410   3.482  0.4270  0.5257  0.1231
17708W        W34182   9.468   8.263   4.353  0.0988 -0.1173 -0.2343
17709W        W34183  14.164   1.948   0.329  0.0380 -0.0546 -0.0156
17710W        W34184  15.134  10.689  14.490  0.1852 -0.1527  0.3362
17711W        W34185  16.935  16.387  10.762 -0.1189 -0.2234  0.3965
17712W        W34186   9.984  14.600  13.517  0.0086 -0.1157  0.2784
17713W        W34187  11.565  14.425  12.315 -0.0370  0.1200  0.1166
17714W        W34188   5.066  18.600   3.382 -0.1602 -0.0554  0.0049
17715W        W34189   4.802   8.708  12.886 -0.1024  0.2628 -0.0898
17716W        W34190   8.694   2.531   1.235 -0.1825 -0.0715  0.1755
17717W        W34191   0.261  15.840  14.349  0.1967 -0.1430  0.2525
17718W        W34192  11.339  15.272  12.048 -0.0361  0.2229 -0.0220
17719W        W34193   0.584   8.700  11.515  0.0495  0.1637  0.0037
17720W        W34194  12.703  16.477  12.426  0.1392 -0.1039 -0.0284
17721W        W34195   8.801  18.019  14.832  0.1190  0.0876 -0.0698
17722W        W34196  10.096   9.184  12.953 -0.0929  0.0543 -0.0272
17723W        W34197  11.580   2.026  13.349  0.0935  0.1196 -0.1922
17724W        W34198  15.401   3.949   3.811  0.1258  0.0427  0.2367
17725W        W34199   8.046   7.841  10.274  0.1346  0.1315 -0.0152
17726W        W34200  14.690  10.508   4.038 -0.2954 -0.1494  0.1527
17727W        W34201  17.772  17.010   4.182 -0.1054  0.0234 -0.1453
17728W        W34202  15.636  16.347   0.801 -0.0225  0.2176 -0.1636
17729W        W34203   3.195  13.059   1.171  0.0035 -0.0010 -0.2206
17730W        W34204   7.676   8.689  11.182  0.0577 -0.0133 -0.1500
17731W        W34205  13.628   0.433   4.783  0.0583  0.0919 -0.0470
17732W        W34206  14.686  11.245  13.905  0.0716 -0.0164  0.0520
17733W        W34207  17.481  11.208   2.733 -0.3106 -0.0011  0.2638
17734W        W34208  15.447   8.901   4.346 -0.1783  0.1647 -0.2455
17735W        W34209   1.310  12.806  14.404  0.1581 -0.1810 -0.5811
17736W        W34210   3.403  10.109  10.667  0.1780 -0.4686  0.3618
17737W        W34211   4.964  14.032  13.429  0.2405  0.1856  0.1256
17738W        W34212   4.422  15.036   3.546  0.1933 -0.2431 -0.1864
17739W        W34213  17.289  17.471  13.164  0.4280  0.2360  0.1284
17740W        W34214   9.168  16.769   1.618  0.2880  0.2464  0.1666
17741W        W34215   5.428   3.497  12.353  0.1279 -0.0701 -0.0289
17742W        W34216   0.757  13.580  11.738 -0.3385  0.1699 -0.0667
17743W        W34217   6.792  14.745  14.487  0.0433 -0.0264 -0.0004
17744W        W34218  13.852   9.061  10.288  0.3265  0.1768 -0.0154
17745W        W34219   0.764  14.922  12.916  0.0934  0.1990 -0.0728
17746W        W34220   9.163  11.244   1.104 -0.1856  0.2837 -0.0769
17747W        W34221   3.893   0.229  11.622  0.2083  0.0183  0.2336
17748W        W34222   2.568  16.171  10.246  0.1502  0.4199 -0.0187
17749W        W34223  17.653  14.506  14.298  0.1236  0.3257  0.1313
17750W        W34224   5.317  16.588  12.258  0.3486 -0.0826 -0.1341
17751W        W34225  16.643  10.706  11.575 -0.0215  0.3032  0.2114
17752W        W34226   2.746   4.122   4.658 -0.2510 -0.1013  0.1193
17753W        W34227   7.952  14.943  12.081  0.2652  0.3018 -0.0491
17754W        W34228  17.536  17.920   2.385 -0.0269 -0.0005  0.2230
17755W        W34229  13.878   5.520   1.867  0.1542 -0.1252 -0.2563
17756W        W34230  14.608  12.189  14.655  0.1666  0.1823 -0.0332
17757W        W34231  13.249   5.037   4.455  0.0927 -0.0229  0.0055
17758W        W34232  11.560  14.065   3.527 -0.4690  0.4300 -0.0825
17759W        W34233  12.503  17.433   1.122 -0.0424  0.0266 -0.1972
17760W        W34234   0.606   3.941   0.810 -0.0711  0.3638 -0.2262
17761W        W34235  17.558   9.801  10.849 -0.0445  0.0488  0.0814
17762W        W34236   1.378  17.143   4.958  0.5201 -0.1493  0.3860
17763W        W34237   4.324   5.249   3.866 -0.1418 -0.1920  0.0936
17764W        W34238  11.179   2.958   1.977 -0.0297 -0.5084  0.1574
17765W        W34239   8.282  10.313  11.191  0.0287 -0.0809 -0.0507
17766W        W34240   1.210   2.818   2.300  0.1554 -0.2144  0.0913
17767W        W34241  19.283  11.525  12.241  0.2342 -0.1147  0.0563
17768W        W34242  13.754  11.702  12.043  0.0826  0.3062 -0.4815
17769W        W34243  10.943  14.992  11.977  0.0480  0.0793  0.1187
17770W        W34244  17.741   6.341   1.652 -0.2058 -0.0988  0.0160
17771W        W34245   8.268   3.503   3.250 -0.1676 -0.1025  0.1999
17772W        W34246   4.981   1.542   1.072 -0.0956  0.2650  0.0510
17773W        W34247   0.574  10.550  11.633 -0.1758 -0.1797  0.2695
17774W        W34248  11.981   5.088  14.036 -0.1774  0.0166  0.0703
17775W        W34249  12.288  12.501   1.754  0.1658  0.0358 -0.0698
17776W        W34250   4.976  15.492   2.333 -0.3452  0.1058 -0.1343
17777W        W34251  12.586   5.451  13.348 -0.0215  0.1348 -0.0554
17778W        W34252   5.584  15.074   0.207 -0.1266 -0.1989  0.1889
17779W        W34253  11.204   0.583  14.479 -0.1645  0.2130  0.0900
17780W        W34254  19.127  18.952  10.982  0.1591 -0.3412 -0.2295
17781W        W34255   3.319  13.879   0.189 -0.0331  0.1426  0.1443
17782W        W34256  10.774   9.284  11.045  0.1035  0.1923  0.1271
17783W        W34257   9.890  13.458  14.444 -0.3104  0.3983  0.0431
17784W        W34258  15.771  18.812   1.105  0.1830 -0.0408 -0.2537
17785W        W34259   1.553  12.379   9.570  0.1019 -0.1106 -0.1112
17786W        W34260  11.986  10.975  12.321  0.0276 -0.3284  0.2617
17787W        W34261   6.411  14.340   1.869  0.2870  0.1613  0.0353
17788W        W34262   6.122   8.095  14.005 -0.0210 -0.0794 -0.3973
17789W        W34263   4.941  10.174   2.749  0.1348  0.1939 -0.3226
17790W        W34264   4.322   1.466  13.359  0.0707 -0.0344  0.0221
17791W        W34265   3.449  14.884   2.144 -0.0277 -0.0732  0.0568
17792W        W34266  15.753   8.642  14.027 -0.2889  0.0018 -0.2946
17793W        W34267   1.641  11.876   1.010 -0.2080 -0.2684  0.4908
17794W        W34268   2.723  12.112   2.458 -0.2258 -0.1720 -0.3178
17795W        W34269  14.752  18.791  11.354  0.3307 -0.0280 -0.0949
17796W        W34270   8.856  13.509  12.627 -0.5077 -0.0526 -0.1613
17797W        W34271   5.488  14.522   4.144 -0.1049  0.0510 -0.0901
17798W        W34272   1.930   2.220   2.508 -0.1020  0.0371  0.2271
17799W        W34273  10.260   6.201  14.075 -0.0170  0.1276  0.0474
17800W        W34274  10.001   1.746   3.880  0.0316  0.1386 -0.0829
17801W        W34275   9.472  14.412  14.649 -0.0811 -0.1048 -0.1076
17802W        W34276   6.398  14.609   9.565 -0.0236 -0.2444 -0.1613
17803W        W34277  11.210   1.928  10.289 -0.0545  0.0895  0.1551
17804W        W34278   7.004  18.217  11.624 -0.1611 -0.3630  0.2111
17805W        W34279  16.820   2.082   1.799  0.0202  0.2096  0.5594
17806W        W34280  17.731  10.033   1.252  0.0547  0.0111 -0.1052
17807W        W34281   8.915  14.457   5.144  0.3179  0.1072  0.0636
17808W        W34282   1.045   0.991  14.601  0.0524  0.1666  0.0395
17809W        W34283   5.117   9.145   0.336  0.2185  0.0694 -0.1894
17810W        W34284  18.847  10.930  11.244 -0.1169  0.0913  0.0853
17811W        W34285   4.959   4.511  14.544  0.0174  0.0662  0.1745
17812W        W34286  11.385   1.697  13.816  0.1325 -0.0724  0.0916
17813W        W34287   5.591   2.611   1.511  0.1075  0.0444 -0.2369
17814W        W34288  14.967   2.395  13.009 -0.1696 -0.1290 -0.2013
17815W        W34289   9.568   9.359   3.707 -0.0424 -0.1194  0.0875
17816W        W34290  17.224  12.305   1.372 -0.1079  0.1712 -0.0166
17817W        W34291  15.332   6.114   4.340 -0.2172  0.0896  0.2023
17818W        W34292   8.647  18.768  11.901  0.2531 -0.2613  0.1151
17819W        W34293   9.545   5.010  10.760 -0.1210  0.0998 -0.0277
17820W        W34294   5.470  13.974   3.977  0.1073  0.1555  0.3970
17821W        W34295   5.820  12.687   0.211 -0.0034  0.0849 -0.2636
17822W        W34296   9.114   9.305  13.189  0.1549  0.0915 -0.2022
17823W        W34297   0.036   2.892  13.750 -0.1117 -0.3412 -0.0184
17824W        W34298  16.176   7.462   1.534  0.3827 -0.1048 -0.0101
17825W        W34299   9.790   0.790  11.852  0.1609 -0.0087  0.0284
17826W        W34300   8.900   0.707  14.643 -0.0114 -0.0381 -0.2429
17827W        W34301  17.793  10.501   5.870 -0.1720 -0.0302 -0.0416
17828W        W34302   6.581  19.271  14.391 -0.4328 -0.3926  0.3828
17829W        W34303  11.246   8.880   0.263 -0.1578  0.1229 -0.1674
17830W        W34304  18.758  13.950  13.468 -0.0543 -0.0391 -0.0104
17831W        W34305   7.729  14.318   0.444  0.1715  0.2834  0.1002
17832W        W34306   9.362   8.553   1.811  0.0668  0.3397  0.1298
17833W        W34307  14.283  17.858   2.617 -0.1164  0.0387 -0.0062
17834W        W34308  18.203   5.501  11.975 -0.1309  0.0635  0.0392
17835W        W34309  16.779  11.659   2.074 -0.0433  0.2150 -0.0096
17836W        W34310  10.733  10.126   3.415 -0.3946  0.1031 -0.0002
17837W        W34311   3.720  18.416   2.000 -0.1053  0.1793  0.0568
17838W        W34312  16.931   4.198   2.970  0.1935 -0.0198  0.1631
17839W        W34313  14.171   3.258   2.234 -0.1745  0.2248 -0.1247
17840W        W34314   7.592   6.029   1.882  0.1260 -0.0051  0.1402
17841W        W34315  14.944  14.562  10.108 -0.1175  0.0873 -0.2482
17842W        W34316   9.911   5.166   2.145 -0.1833 -0.2003  0.2646
17843W        W34317   0.931   1.579   4.626  0.0693 -0.1660 -0.1906
17844W        W34318  15.615  16.769  12.226  0.2100 -0.3653  0.3152
17845W        W34319   7.872  16.671   1.855 -0.4456 -0.3581  0.1079
17846W        W34320   3.614   2.186   1.360  0.1034 -0.0681  0.1733
17847W        W34321  18.350   7.993   2.628 -0.4009  0.0094  0.0841
17848W        W34322  12.879   8.779  14.866  0.1775 -0.2163 -0.0710
17849W        W34323  18.530  14.384   2.941 -0.2675  0.0333 -0.0140
17850W        W34324   9.988  12.960  10.689  0.2418  0.1138  0.1211
17851W        W34325  17.686  11.104  14.823  0.0017  0.1009 -0.0525
17852W        W34326  12.446  18.490   4.076 -0.2360  0.2866 -0.0462
17853W        W34327   2.343   9.903   5.898  0.1225  0.0352 -0.1266
17854W        W34328  11.967  14.418   1.574  0.1036 -0.2315  0.1250
17855W        W34329   6.464   0.207  10.818  0.0766  0.0859  0.3594
17856W        W34330   5.155   5.022   4.898  0.0175  0.3778  0.4493
17857W        W34331  18.973  10.971   4.321  0.0022 -0.2191 -0.1046
17858W        W34332  15.764   4.688   1.702  0.0336 -0.0271 -0.0635
17859W        W34333  14.094   1.388   4.444  0.3928 -0.3512 -0.1258
17860W        W34334  17.439   9.972  12.153  0.1762  0.0816  0.1000
17861W        W34335  12.957  14.388  13.205 -0.1174 -0.1016 -0.2055
17862W        W34336   7.804  11.438  11.243 -0.0235  0.2765 -0.2006
17863W        W34337   6.933   8.507  10.851  0.1822 -0.0394  0.0427
17864W        W34338   5.805  18.743  10.668  0.2933  0.0045 -0.1309
17865W        W34339   4.081   4.691   4.795  0.1069  0.1305  0.1040
17866W        W34340  14.940   3.197  10.840  0.0433  0.0947  0.0195
17867W        W34341   1.025   5.903  10.760 -0.0298  0.0538 -0.0924
17868W        W34342  11.252  16.227   3.811 -0.2411  0.0594 -0.0233
17869W        W34343  14.784   3.835  12.543  0.1225 -0.0171 -0.2202
17870W        W34344   2.742  10.089  14.656 -0.1608 -0.1009  0.1767
17871W        W34345  12.576   8.869   0.486  0.1265  0.2675  0.3898
17872W        W34346   3.087   2.064   9.251  0.0413  0.1783 -0.0614
17873W        W34347  18.082  14.628   3.806 -0.2991  0.1985 -0.1075
17874W        W34348   6.930   3.653  13.135 -0.0326  0.0974 -0.3464
17875W        W34349  10.790  19.245   0.532 -0.0680  0.1419  0.1143
17876W        W34350  11.433   8.415  12.723 -0.1147 -0.3516  0.2212
17877W        W34351  12.809   7.908  11.653 -0.0065  0.0300  0.2170
17878W        W34352  16.655   8.168  12.392  0.1788 -0.0688  0.0599
17879W        W34353  17.525   1.200   1.394 -0.3142  0.0025  0.1671
17880W        W34354   6.628  19.232   2.163  0.0229  0.1587  0.0878
17881W        W34355   7.998  13.792   4.216 -0.0697  0.0356  0.0771
17882W        W34356   4.522   9.327   2.583 -0.0047  0.0858 -0.1433
17883W        W34357   9.316  16.814  10.932 -0.1066 -0.1424  0.2400
17884W        W34358  14.136  13.370  12.639  0.1729 -0.1560  0.2531
17885W        W34359  18.548  16.501   4.050 -0.2190  0.2392 -0.1986
17886W        W34360  11.012   3.090  11.781  0.1185 -0.2015 -0.0384
17887W        W34361   3.593  13.414   1.289 -0.1607 -0.3322  0.1416
17888W        W34362   7.576  15.221  10.837  0.2413 -0.0245 -0.6052
17889W        W34363  18.366   4.878   2.463 -0.2675 -0.3435 -0.0888
17890W        W34364  13.016   1.906  13.390 -0.2477 -0.0937  0.5243
17891W        W34365  13.680   6.173   0.285  0.0209 -0.4036  0.0839
17892W        W34366  11.578  19.242   4.353 -0.1067  0.0604 -0.2535
17893W        W34367  14.568   2.838   3.848 -0.1769  0.0702  0.3951
17894W        W34368  11.379   2.670   0.927  0.1798  0.2211 -0.2838
17895W        W34369   6.540  17.150   3.239  0.0509 -0.3230  0.0353
17896W        W34370   7.699  10.564  10.714  0.0414  0.0363  0.1043
17897W        W34371   4.117   3.618   3.491 -0.0213 -0.3790  0.0195
17898W        W34372  16.073   6.223   3.707  0.4056 -0.0350  0.1463
17899W        W34373   6.853  16.735   3.263  0.1685  0.0432 -0.1107
17900W        W34374   7.804  18.451   0.645  0.3094 -0.2886 -0.2154
17901W        W34375   3.632  10.471  12.288 -0.2294 -0.2658 -0.1717
17902W        W34376  16.970   0.109  11.399 -0.0980 -0.0942  0.0265
17903W        W34377   6.889   8.018  11.473 -0.1620  0.2467 -0.1946
17904W        W34378   7.960  14.351  10.706 -0.2107  0.4134  0.0162
17905W        W34379   4.138  12.505   1.151 -0.0959 -0.3137 -0.1292
17906W        W34380  11.899   1.238  11.703 -0.2141  0.0806 -0.2831
17907W        W34381   8.606  19.306  11.894  0.0431  0.3241 -0.1163
17908W        W34382  10.906   6.017   4.334 -0.1394 -0.2625 -0.2181
17909W        W34383   3.704   1.866   0.970  0.1080 -0.5104 -0.0335
17910W        W34384  17.689   0.065   1.378  0.1976 -0.2337  0.4097
17911W        W34385   9.477   0.880  10.465  0.1396  0.0160  0.0524
17912W        W34386   3.870  14.295   9.854 -0.3533  0.1340 -0.0967
17913W        W34387   0.519   7.767   1.233  0.0986 -0.0262  0.0844
17914W        W34388  17.195  19.083  11.249 -0.1122  0.1816  0.1968
17915W        W34389  17.454  15.586   1.414 -0.0149  0.1707  0.0623
17916W        W34390  14.343   8.384   5.257 -0.0921 -0.0513  0.0069
17917W        W34391   6.671  12.797  13.864 -0.1867  0.2522 -0.1434
17918W        W34392   8.689  16.858   0.813 -0.1721 -0.0226 -0.0648
17919W        W34393   6.551  15.737   2.282 -0.0267 -0.1090  0.1743
17920W        W34394   5.018  10.558  12.283  0.0607 -0.0425  0.1044
17921W        W34395  14.029   1.276   1.383  0.0061 -0.0936  0.1018
17922W        W34396  16.455   4.355   2.805  0.1064 -0.2683  0.0704
17923W        W34397  18.659   1.252   3.999 -0.3795  0.0107 -0.0431
17924W        W34398   6.284  12.569   1.574 -0.1210 -0.1551  0.0475
17925W        W34399  18.513   8.728  14.176 -0.2830 -0.0440  0.0723
17926W        W34400  13.757   1.439  12.296 -0.1258  0.4330  0.4198
17927W        W34401  13.449  19.079  13.969  0.3525 -0.3494  0.3394
17928W        W34402  10.700  13.082   1.844 -0.0143 -0.0358 -0.1846
17929W        W34403  13.164  14.975   5.737 -0.0823 -0.1068  0.0546
17930W        W34404  17.190  16.313   0.905 -0.1596 -0.1335  0.1226
17931W        W34405   0.521  14.282   0.404 -0.0570 -0.1453  0.4510
17932W        W34406  15.755  17.496   0.794  0.0009 -0.2893 -0.1774
17933W        W34407   0.083   0.086   1.525 -0.0139 -0.0088  0.0757
17934W        W34408   8.361   2.224   1.441 -0.1285 -0.0108 -0.0141
17935W        W34409  16.396   5.804  10.542  0.0515  0.0486 -0.0132
17936W        W34410   4.530  11.111  14.724 -0.1108  0.1873 -0.2291
17937W        W34411  14.188   5.784  11.253 -0.3252  0.1551  0.1504
17938W        W34412  10.848   5.351   1.219 -0.3652 -0.0380  0.1505
17939W        W34413  11.328   8.411   3.252  0.1590 -0.0708 -0.1173
17940W        W34414  15.453   5.820  10.551 -0.4118 -0.2509  0.0691
17941W        W34415   2.574   4.551   4.856 -0.0925 -0.3053 -0.0560
17942W        W34416   3.248   8.966   1.774 -0.2330 -0.0365  0.4201
17943W        W34417  19.025   2.662  10.650  0.2836  0.0337  0.0676
17944W        W34418   7.924   4.826   4.672 -0.1181  0.1196  0.3044
17945W        W34419   7.152  18.390  10.641 -0.2677 -0.0132  0.2226
17946W        W34420  17.706  15.463   2.895 -0.0466 -0.1530 -0.0925
17947W        W34421  15.164   3.417   2.084  0.0472 -0.0949  0.3069
17948W        W34422  16.934  13.988   2.018 -0.0311  0.1282  0.0693
17949W        W34423   1.936  18.461   2.485 -0.0823 -0.1973  0.2310
17950W        W34424   6.006  12.577   2.930 -0.1658  0.1940 -0.1762
17951W        W34425   9.956  13.179   5.226  0.1192 -0.3849  0.5239
17952W        W34426   2.525  16.252  14.461 -0.1723 -0.0513 -0.0942
17953W        W34427  16.313   1.701   2.277 -0.2245  0.1971  0.0497
17954W        W34428   4.389  18.089   1.069 -0.1915  0.2063 -0.3543
17955W        W34429   9.363   9.043   1.693  0.2488 -0.0809 -0.0669
17956W        W34430  17.075  16.247  13.926  0.0278 -0.1777 -0.0040
17957W        W34431  17.571  16.828   0.033  0.0499 -0.3292 -0.1138
17958W        W34432   0.836   1.214   1.391  0.1896 -0.2728  0.0342
17959W        W34433   8.333   6.352  10.519  0.0479 -0.0527 -0.1027
17960W        W34434  16.639  13.657  12.141  0.1558 -0.0652  0.1474
17961W        W34435   2.310   1.964   2.833 -0.2204 -0.1227 -0.0360
17962W        W34436  13.023   2.973   0.473 -0.2514  0.0299  0.0942
17963W        W34437   1.832  15.233   1.400 -0.0436 -0.1788 -0.2256
17964W        W34438   9.131   0.930   0.256  0.1586  0.0276 -0.0733
17965W        W34439  16.333   4.506   9.504  0.2294 -0.0877 -0.2733
17966W        W34440   8.834  17.704  13.102 -0.1976 -0.0536  0.1582
17967W        W34441   3.662  12.429  12.387 -0.1601  0.2729  0.0949
17968W        W34442  10.499   0.266  14.165 -0.1717 -0.0249  0.1898
17969W        W34443  13.568   7.395   5.164  0.0396 -0.1061 -0.0947
17970W        W34444   6.344   7.990   2.918 -0.4142 -0.1940 -0.6011
17971W        W34445   3.891   3.781  14.884  0.2137 -0.0646  0.0716
17972W        W34446   2.425   6.667   1.877 -0.4060 -0.0132  0.2851
17973W        W34447   6.582   3.472  11.144 -0.0973 -0.0007 -0.2490
17974W        W34448   3.247  14.316  13.147 -0.0077 -0.0398 -0.0429
17975W        W34449  16.404   6.686   4.494  0.1515  0.0897 -0.0868
17976W        W34450  18.163  17.888   0.899 -0.2684  0.1140  0.1236
17977W        W34451   2.947  18.439  13.845 -0.1091 -0.1385 -0.2139
17978W        W34452  15.950   9.983   4.477 -0.0036  0.1953  0.1485
17979W        W34453  14.897   5.941  13.404  0.1513 -0.2346 -0.0642
17980W        W34454   1.596   2.744   3.136  0.2708  0.2365 -0.1438
17981W        W34455  17.160  11.645   2.907 -0.0080 -0.1158 -0.2840
17982W        W34456  11.749  14.843  10.645 -0.3043 -0.0621  0.3285
17983W        W34457   7.855   5.263  11.086  0.0772 -0.1720  0.0962
17984W        W34458  16.243   4.325   2.258  0.0259 -0.1278  0.0064
17985W        W34459   4.790   8.020   1.927 -0.0686 -0.1264 -0.2577
17986W        W34460   5.526   5.890  10.072 -0.2192  0.2354 -0.0491
17987W        W34461   6.630  10.353   3.453 -0.1773  0.0399 -0.4911
17988W        W34462  16.120  10.716  11.798  0.2532 -0.1260 -0.0818
17989W        W34463  12.489  14.348   1.244 -0.1211 -0.3493 -0.1875
17990W        W34464  19.017   8.129   1.057  0.0632  0.0013 -0.2184
17991W        W34465   0.653   8.318  13.292  0.2092 -0.4443  0.0071
17992W        W34466  15.847  14.811  13.259  0.2690  0.1069 -0.1930
17993W        W34467   4.805   4.509   1.474  0.2107 -0.0626 -0.0362
17994W        W34468   8.514  10.677   2.437 -0.2713 -0.1755 -0.0907
17995W        W34469   8.256   9.713   3.272 -0.2437 -0.0431  0.3750
17996W        W34470  18.477  10.999  12.693 -0.0346  0.0134 -0.2340
17997W        W34471  11.085  15.468   3.141 -0.2506  0.1687 -0.1134
17998W        W34472   1.753  16.279   9.935 -0.3030  0.1688  0.0097
17999W        W34473  11.126  12.974   0.995 -0.1967 -0.2808 -0.1941
18000W        W34474   7.576   0.433   3.543  0.1707 -0.0731  0.1390
18001W        W34475  11.273  16.375  12.989  0.0087 -0.1594  0.0535
18002W        W34476   5.322  16.058   3.643  0.0423  0.2672  0.3326
18003W        W34477   9.183   4.577   0.918 -0.2083 -0.2827  0.2146
18004W        W34478   4.743   8.187   1.094 -0.5039  0.2096  0.6833
18005W        W34479   0.055  11.902   5.255  0.3717 -0.2091 -0.1144
18006W        W34480  18.733  17.405   5.023 -0.0420 -0.0809  0.3694
18007W        W34481  14.477  13.513   2.640  0.1787  0.0298  0.0859
18008W        W34482   8.050   4.064  14.861  0.0107 -0.0533  0.1895
18009W        W34483  17.940  17.493  10.949  0.1722  0.2172 -0.0656
18010W        W34484   6.660  14.952   3.902  0.0713 -0.3040 -0.2004
18011W        W34485   6.939  17.548  12.761 -0.0405  0.0461  0.0172
18012W        W34486  10.075   4.403  12.073 -0.1015  0.0995 -0.1809
18013W        W34487  17.964  15.008   4.450  0.5497  0.2673 -0.2942
18014W        W34488  17.338  16.668   0.488 -0.0025  0.0148  0.3294
18015W        W34489   2.443  14.632   3.333  0.2511  0.1364 -0.0661
18016W        W34490  18.794  11.482  13.545 -0.4718 -0.0300 -0.0909
18017W        W34491   2.972  10.927   1.753  0.0357  0.1150  0.0791
18018W        W34492  12.291  19.320  12.588 -0.2472  0.0230  0.2001
18019W        W34493  16.462  11.513   3.670  0.0261  0.0622 -0.0610
18020W        W34494   8.857  18.618  13.589 -0.1651 -0.0983  0.1540
18021W        W34495   6.193   9.011   3.104  0.0386 -0.0240  0.2746
18022W        W34496   3.560   7.229  11.749  0.2488 -0.1473 -0.2278
18023W        W34497   2.485  18.861  13.668 -0.4372 -0.1677  0.5048
18024W        W34498   9.696  12.745   3.949  0.4811 -0.0842  0.6376
18025W        W34499   4.636  17.510   2.015 -0.0802  0.1771  0.1828
18026W        W34500   9.543  15.446  14.767 -0.0099  0.2652  0.1259
18027W        W34501   2.990   4.900   1.180 -0.0843  0.2735 -0.1188
18028W        W34502   0.074  12.022   0.644  0.0455  0.0462 -0.1205
18029W        W34503  18.692  13.224   4.213 -0.1680  0.1526 -0.0002
18030W        W34504   2.725  17.061  10.835  0.2182 -0.1877  0.0166
18031W        W34505  16.361   8.984   3.102  0.2648 -0.0550 -0.1893
18032W        W34506   0.303  13.775   3.642  0.1503 -0.2125 -0.1101
18033W        W34507  14.556  18.380   3.992  0.0870  0.1932 -0.2060
18034W        W34508  14.124   6.592   2.417 -0.1472 -0.2862  0.1748
18035W        W34509   5.071   5.124  10.923 -0.2098  0.2031 -0.1135
18036W        W34510  16.356   6.939  13.683  0.1098 -0.0890  0.0719
18037W        W34511   9.498   7.486  10.578 -0.1644 -0.4951  0.1992
18038W        W34512   5.588  15.600  11.013 -0.0796  0.1760 -0.0615
18039W        W34513   4.999  16.132  13.168  0.1696 -0.4257  0.2490
18040W        W34514   5.127  17.067  10.195 -0.0346  0.0933 -0.0544
18041W        W34515   4.267   7.363   3.429 -0.0380  0.0371  0.0582
18042W        W34516   0.438   2.212   4.098 -0.2275 -0.2853 -0.1234
18043W        W34517  14.454  12.296   2.508  0.2445 -0.2090 -0.0199
18044W        W34518   2.079   6.821   0.139  0.0673 -0.1726 -0.2866
18045W        W34519  11.319   0.495  13.975 -0.1350 -0.1294 -0.1942
18046W        W34520  10.065   5.486   0.807 -0.1563  0.3018  0.0235
18047W        W34521   3.090  17.028  10.422 -0.0904 -0.2660  0.0671
18048W        W34522   1.516   3.913   2.626  0.0324  0.2675  0.0600
18049W        W34523  13.852  12.951   0.496  0.1055  0.2139 -0.0396
18050W        W34524  14.843   6.063   4.861 -0.0502 -0.2519 -0.0698
18051W        W34525  14.850   3.197   2.887  0.0679  0.0273 -0.3966
18052W        W34526  16.025   4.868   1.240  0.0456  0.1660 -0.0747
18053W        W34527  11.053   4.246   9.891 -0.0034 -0.2069  0.3608
18054W        W34528  14.208  16.994   0.909 -0.4189 -0.4738 -0.2488
18055W        W34529  12.896   9.693   3.399 -0.0194 -0.0710  0.0132
18056W        W34530   7.521   7.945  11.678 -0.1346  0.4253 -0.1020
18057W        W34531   6.821  16.424   3.664  0.0697 -0.4028 -0.0072
18058W        W34532   3.890   5.873  12.142  0.0221  0.2333  0.0131
18059W        W34533   4.374  10.465  14.043 -0.0817 -0.0420 -0.3294
18060W        W34534   1.528  18.187   1.622 -0.0470  0.1490  0.0170
18061W        W34535   4.698  12.535  14.432 -0.2414  0.0085 -0.0181
18062W        W34536  12.897   3.520   2.305 -0.0592 -0.3006  0.5336
18063W        W34537  12.397   6.184   1.031 -0.0974  0.2045 -0.1728
18064W        W34538   1.752  15.282  11.457  0.0553 -0.1480  0.0252
18065W        W34539  19.242   5.283  13.130 -0.2029  0.0434  0.0184
18066W        W34540   3.709   4.127   4.732 -0.1355  0.1541 -0.0170
18067W        W34541  10.608   3.846  11.738  0.1013 -0.3623  0.1885
18068W        W34542   5.018   4.652   3.831  0.1255 -0.0186  0.3447
18069W        W34543   4.589   1.008   3.924  0.0341  0.0932 -0.3018
18070W        W34544  10.579   6.200  10.577 -0.0527 -0.1807 -0.1012
18071W        W34545   0.662  18.973   1.424  0.2936  0.0757 -0.3636
18072W        W34546   9.475   6.753   1.189  0.1116 -0.1332  0.1475
18073W        W34547   3.871  18.788  13.535  0.1963  0.0757 -0.2484
18074W        W34548   7.444  10.041  14.519  0.0305 -0.1248  0.2287
18075W        W34549   7.123   2.791  10.571  0.2816 -0.0777  0.0127
18076W        W34550   8.181  16.695   3.076 -0.2563  0.0465  0.2483
18077W        W34551   9.663  17.863   2.092  0.0279 -0.1331  0.4691
18078W        W34552   9.449   4.329   4.371 -0.0741 -0.0356 -0.1277
18079W        W34553  17.944  14.507   1.268 -0.1505  0.0166  0.2369
18080W        W34554   8.627  15.684  10.978  0.1955 -0.1744  0.0727
18081W        W34555   1.647   0.135   3.477 -0.2742 -0.0908 -0.2609
18082W        W34556  11.565  17.971  14.649 -0.2488 -0.2107  0.1482
18083W        W34557   1.176  16.455  10.713 -0.0929 -0.0746 -0.1902
18084W        W34558  19.264  17.749   4.840 -0.0814  0.3298  0.3035
18085W        W34559   9.591   9.105  13.394  0.0902 -0.1547  0.3555
18086W        W34560  18.074   7.831   9.846  0.2455  0.0198 -0.0645
18087W        W34561   5.391   4.386  11.949 -0.1065 -0.2065  0.0290
18088W        W34562  14.425   6.532  13.796 -0.0757 -0.0821 -0.0208
18089W        W34563   0.410   6.222  11.652  0.3301  0.0439 -0.1824
18090W        W34564   7.154  16.029   2.871 -0.0222 -0.3268 -0.1266
18091W        W34565   0.415   7.039   3.092  0.1004 -0.1037  0.2709
18092W        W34566  13.211   5.183  14.439 -0.0428  0.0170  0.0378
18093W        W34567   0.904  10.686   2.176 -0.0548 -0.0437  0.3939
18094W        W34568  15.055   6.623  11.787  0.1040 -0.1568  0.3103
18095W        W34569   6.236  19.190  14.043  0.2840 -0.0137  0.1035
18096W        W34570   9.137  19.364  10.287  0.1228  0.3678 -0.1206
18097W        W34571  10.977   2.242  11.590 -0.0599 -0.0559  0.1749
18098W        W34572   5.426  10.379   1.355  0.1640 -0.0300  0.1459
18099W        W34573   6.951   9.856   3.904  0.1059  0.1331 -0.1681
18100W        W34574  14.364  17.550   2.186 -0.2702  0.0924  0.2931
18101W        W34575  15.076   8.180  12.046  0.0608  0.1937  0.2940
18102W        W34576   7.305   3.847  11.692 -0.0386 -0.1787  0.2190
18103W        W34577   2.477   1.471   2.051  0.2317  0.0788 -0.1559
18104W        W34578  17.625  15.747   2.079 -0.1396 -0.0126  0.0213
18105W        W34579  15.022  14.259  11.982  0.0648 -0.1528  0.1110
18106W        W34580  17.244  14.687  14.608 -0.1941  0.1945  0.1651
18107W        W34581   2.954  15.537   0.506  0.2281  0.0822  0.2050
18108W        W34582  11.268  11.772  14.137 -0.2895 -0.0157 -0.0729
18109W        W34583   5.209   8.684   3.188  0.0681 -0.0516 -0.0541
18110W        W34584   9.586   3.076   3.276 -0.1332 -0.0531 -0.1042
18111W        W34585   3.546  10.365  12.994  0.0136  0.0831  0.0821
18112W        W34586  15.363   6.990   1.448 -0.2664 -0.1739 -0.0558
18113W        W34587  15.746   0.441   4.176 -0.2556 -0.1709 -0.0523
18114W        W34588  10.174   8.059  10.468 -0.2421  0.0671  0.0411
18115W        W34589   9.607   8.744  11.982 -0.1829 -0.0789 -0.0371
18116W        W34590  10.104  15.677  10.698  0.0574  0.0374 -0.1025
18117W        W34591  11.549   6.209  13.373 -0.2417  0.0853 -0.0582
18118W        W34592   0.663  13.055   2.775 -0.2014 -0.0623  0.2399
18119W        W34593  17.682  17.914   0.854  0.0655 -0.3267  0.2639
18120W        W34594   4.325  14.434   0.394 -0.2976  0.0117  0.0039
18121W        W34595   7.533   1.958  10.265 -0.4473 -0.0743  0.1965
18122W        W34596   3.320   4.095  11.168 -0.2120 -0.2567  0.0549
18123W        W34597  15.716   1.684  14.362 -0.1945  0.0199 -0.1066
18124W        W34598   1.274  16.913  13.620  0.0184  0.0490 -0.1437
18125W        W34599   8.628   6.355  14.867 -0.1342 -0.2533 -0.1912
18126W        W34600  16.060   3.573  13.745  0.0386  0.0138 -0.0331
18127W        W34601   2.224   4.695   4.548  0.3764 -0.0054  0.2624
18128W        W34602   2.372  19.276   4.293 -0.0003 -0.0674  0.0351
18129W        W34603   2.444  11.512  13.601  0.0621  0.0046  0.1887
18130W        W34604   0.636   7.456  10.632  0.1107  0.1706  0.2169
18131W        W34605   9.840  15.638   2.489 -0.1182  0.0092 -0.0594
18132W        W34606  16.362   5.026  11.258  0.3621 -0.5309  0.0078
18133W        W34607  10.106  12.574  10.313 -0.1134 -0.2867  0.0863
18134W        W34608  11.646  18.949   3.425  0.1458  0.1927 -0.0109
18135W        W34609   0.638   8.543   5.600  0.2485  0.1702  0.0108
18136W        W34610   9.729   5.529  14.696 -0.1031 -0.0891 -0.3574
18137W        W34611   3.381   1.653  11.238 -0.0549 -0.0561  0.0369
18138W        W34612   2.831  17.959   0.767  0.2926 -0.1206 -0.4710
18139W        W34613  13.384  12.860   0.640 -0.3612 -0.1277  0.0138
18140W        W34614   9.130   8.604   4.243 -0.0725 -0.0708 -0.0998
18141W        W34615   0.693  17.908   2.924 -0.1843 -0.2981 -0.2351
18142W        W34616   0.485   0.871   4.684  0.0298  0.0334  0.1032
18143W        W34617  11.593   0.160  10.914 -0.0169 -0.0555 -0.2746
18144W        W34618  14.721  11.102   0.897 -0.1330 -0.2580 -0.2499
18145W        W34619  17.150   0.124  14.136  0.0197 -0.2993 -0.0692
18146W        W34620  19.325   1.461   4.149 -0.1108 -0.5405 -0.1134
18147W        W34621   5.717  17.322  13.288  0.0043  0.0687 -0.1644
18148W        W34622   6.057   6.964   3.374  0.2600 -0.1078 -0.1282
18149W        W34623   8.035   4.777  10.342 -0.2992  0.1893  0.2978
18150W        W34624  14.866   4.344   4.505 -0.1888 -0.2555  0.0212
18151W        W34625  13.663  16.405  12.865 -0.0618  0.0383 -0.1858
18152W        W34626   4.882  16.619   2.469 -0.1575  0.4746 -0.0265
18153W        W34627   1.902  18.127  14.306  0.0794  0.0459  0.2889
18154W        W34628   2.178  15.366   2.335  0.0642  0.3768  0.0921
18155W        W34629   0.759   8.122  14.805 -0.1144 -0.1445  0.0765
18156W        W34630   8.630  16.655  12.424  0.0153  0.4904 -0.2424
18157W        W34631   2.928   1.668   2.095  0.0450 -0.0002 -0.0710
18158W        W34632   6.914  10.423   3.864  0.1982 -0.0849  0.3637
18159W        W34633  14.955  18.654   0.832 -0.1909 -0.0820 -0.1451
18160W        W34634   9.961  10.624   1.550  0.1030 -0.0516  0.3478
18161W        W34635   3.612   9.627  12.471  0.4756  0.0461 -0.1414
18162W        W34636  15.390  12.981   1.754  0.0217  0.1621 -0.1245
18163W        W34637   9.444  11.432   0.675 -0.0511 -0.1504  0.1098
18164W        W34638   0.112   4.263  13.190 -0.0725 -0.1127 -0.0748
18165W        W34639   3.075   9.359  10.740 -0.2469  0.0440  0.1199
18166W        W34640   6.653   4.505  13.937  0.2592  0.1468 -0.0201
18167W        W34641  11.820  14.595   2.018  0.2522 -0.0361  0.0502
18168W        W34642   5.896  13.882  10.748  0.0913  0.1349 -0.4287
18169W        W34643  12.823  19.371   4.570 -0.0877  0.2067  0.1393
18170W        W34644   2.979   8.060   4.560 -0.0454  0.2350 -0.0154
18171W        W34645   0.297  13.125   3.632  0.0314 -0.2744 -0.1274
18172W        W34646  17.660  15.668  11.550  0.1614  0.3920  0.0640
18173W        W34647  15.484  17.394   3.107  0.3250  0.1930 -0.0831
18174W        W34648  17.001  10.243   0.089 -0.2603  0.0528  0.3325
18175W        W34649  17.237   3.386  12.867 -0.1184  0.2216 -0.2590
18176W        W34650   1.609  11.884  14.082  0.1563  0.0563  0.1101
18177W        W34651   2.384   1.327  13.771 -0.0156  0.0760  0.1642
18178W        W34652  10.469   6.611   3.442  0.1961  0.2026 -0.2352
18179W        W34653   9.940   9.339   2.471 -0.0310  0.1353  0.3013
18180W        W34654  11.028  10.729   4.132 -0.1471 -0.0795  0.0801
18181W        W34655   6.668   9.212  12.657 -0.0101 -0.1595 -0.6023
18182W        W34656  16.878  18.934  13.911  0.1906  0.0086 -0.1078
18183W        W34657   2.723   1.299  13.433  0.2137  0.0346  0.0684
18184W        W34658  17.787   2.254  11.062 -0.2698  0.3257 -0.1752
18185W        W34659   4.740  17.821   5.425 -0.1886  0.0367 -0.1855
18186W        W34660  16.384   5.413   5.368 -0.1472  0.1664  0.0839
18187W        W34661  12.026   3.381  12.863 -0.0507  0.0737 -0.0454
18188W        W34662   4.314   8.132  14.307 -0.0516  0.2136 -0.3376
18189W        W34663  13.028  11.848   4.216  0.1679  0.0404 -0.2853
18190W        W34664  10.401  17.317  12.730 -0.0318  0.1042  0.0348
18191W        W34665  18.529   1.086  14.353 -0.2495 -0.1080 -0.1446
18192W        W34666   0.793   7.080   3.831  0.0063 -0.1493 -0.2796
18193W        W34667  16.225  13.806  14.157  0.1099 -0.0065 -0.1597
18194W        W34668  17.283   5.412   0.463 -0.3221  0.1310 -0.2080
18195W        W34669   2.618  13.925   4.530 -0.3345  0.4737  0.0500
18196W        W34670   9.170  16.111  12.936 -0.0982 -0.0208 -0.2691
18197W        W34671  13.018   5.465   4.322  0.1354 -0.1073  0.2793
18198W        W34672   5.959  12.804  12.475 -0.2338 -0.7120 -0.3416
18199W        W34673   0.884  10.369   0.856  0.1756  0.3698 -0.3616
18200W        W34674   2.858  18.283   0.338 -0.0715  0.2351  0.0391
18201W        W34675   0.894  15.991   3.476 -0.2717  0.1138 -0.0106
18202W        W34676   2.440   0.144  12.297 -0.2677  0.0399 -0.0633
18203W        W34677  17.317  13.270   4.407  0.0053  0.0338  0.0358
18204W        W34678   3.609   0.235  14.432 -0.5319 -0.0349 -0.0737
18205W        W34679   3.509   0.302  10.640  0.0058  0.2457  0.1585
18206W        W34680   3.608   3.972   3.211 -0.1000  0.1190 -0.1837
18207W        W34681   3.064   9.607  13.414  0.1432 -0.0226 -0.3343
18208W        W34682  10.681  13.146  11.351  0.0226 -0.1856  0.0395
18209W        W34683  15.362   8.083  12.428 -0.0417 -0.1678 -0.0135
18210W        W34684  10.894  11.578  13.713  0.1239 -0.0468 -0.0299
18211W        W34685  17.155  19.226  11.804  0.1549  0.4026 -0.0653
18212W        W34686  14.156   2.691  12.626 -0.1765  0.2040  0.2192
18213W        W34687  18.420   8.931   2.905 -0.0039  0.4411  0.0790
18214W        W34688  13.384  13.826   5.713 -0.1996  0.0252  0.3581
18215W        W34689  10.467  19.056  11.960  0.1814 -0.2105 -0.3484
18216W        W34690   0.015  11.344  13.953 -0.1311 -0.1318  0.0164
18217W        W34691  18.940  11.099   5.260 -0.1483 -0.0206  0.0967
18218W        W34692   7.073   0.600   3.508  0.0505  0.0558 -0.2585
18219W        W34693  18.287   4.418  10.670  0.1142 -0.0505  0.2523
18220W        W34694   6.426   3.769   1.950  0.0348 -0.0106  0.0762
18221W        W34695   4.383  17.578   2.474 -0.2584 -0.2928  0.1351
18222W        W34696  10.514   6.886   5.523 -0.0843  0.0900  0.1517
18223W        W34697  10.505   2.942   1.980  0.1032 -0.0161  0.1582
18224W        W34698  16.859   6.413  10.919 -0.2042  0.1741  0.0105
18225W        W34699  18.515   7.746  10.324  0.0841  0.0422 -0.0137
18226W        W34700   1.994   1.936   0.152 -0.0949  0.0024  0.1863
18227W        W34701  11.756   7.080  10.399 -0.2178  0.2736 -0.1106
18228W        W34702   0.471  16.175   0.740 -0.0376  0.2493  0.3502
18229W        W34703  17.530  17.316   3.891 -0.2712 -0.3913  0.0195
18230W        W34704   1.442   1.875  12.718  0.0565  0.0957  0.0676
18231W        W34705  13.915  14.960  12.406  0.0225  0.0591  0.3666
18232W        W34706   6.335   7.098  13.937 -0.0196  0.3815 -0.0199
18233W        W34707   4.286   1.387   3.605  0.3441  0.0141  0.2218
18234W        W34708   3.947   7.901   2.065 -0.2474 -0.0093  0.2338
18235W        W34709   1.562  16.129   0.079 -0.0015 -0.1056 -0.0402
18236W        W34710  18.117   2.652  11.191 -0.0042 -0.1816 -0.2990
18237W        W34711   9.769   8.990  12.518  0.2619  0.0516 -0.0381
18238W        W34712  13.427  14.223  11.888  0.1061 -0.1157  0.2088
18239W        W34713  16.683  15.650  11.661  0.0370  0.0389  0.1934
18240W        W34714   3.365   0.928   1.940  0.2233 -0.4221  0.0382
18241W        W34715   3.934   1.702   0.083 -0.1039 -0.2601 -0.0303
18242W        W34716   2.069   4.908  11.826 -0.1144  0.0477  0.2668
18243W        W34717   2.614  10.218   2.336 -0.0646 -0.1797 -0.2828
18244W        W34718   7.991   1.784  10.168  0.0293 -0.2419 -0.0393
18245W        W34719  17.288  15.169  12.210 -0.1021 -0.1600  0.1868
18246W        W34720   2.859   9.991  12.017  0.1783 -0.0096 -0.1503
18247W        W34721   9.797   7.255   3.232 -0.1203  0.0581 -0.2586
18248W        W34722  15.044  11.376   3.100 -0.1013 -0.0809  0.1790
18249W        W34723  18.057   9.388  12.758 -0.4130 -0.0851 -0.4216
18250W        W34724   6.894   0.888   2.548  0.2352  0.0493 -0.2748
18251W        W34725   2.164   7.064  12.331 -0.0675 -0.0017  0.2134
18252W        W34726   2.500   9.334   5.717 -0.1235  0.1586  0.4432
18253W        W34727  17.756  11.472  13.247  0.1486  0.0513  0.0672
18254W        W34728   8.244   0.280   1.387  0.0159 -0.1644 -0.0989
18255W        W34729   4.952   3.515  13.467 -0.0027  0.0615 -0.2945
18256W        W34730  18.250   7.163   1.272  0.0506  0.1213 -0.2850
18257W        W34731   3.698   2.270   2.815  0.2019  0.1197 -0.0880
18258W        W34732  13.489   0.470  14.691 -0.2700  0.2090 -0.1132
18259W        W34733   6.669   9.956  14.067 -0.2076  0.0490 -0.5105
18260W        W34734  16.500  17.384   6.062 -0.0139  0.3527  0.0286
18261W        W34735   5.998  12.259  14.339 -0.0784 -0.2056  0.1700
18262W        W34736   5.561  17.740  14.563  0.0810  0.0503  0.3075
18263W        W34737   4.201   3.933  14.038 -0.1120 -0.2227 -0.3177
18264W        W34738   8.853   3.625   1.069  0.0243 -0.2202 -0.1119
18265W        W34739  14.234   3.622   0.651 -0.0449 -0.1240  0.1964
18266W        W34740   0.216  14.613   4.310 -0.1327 -0.0470  0.0895
18267W        W34741   1.934  12.351   0.273 -0.2756 -0.1292 -0.0838
18268W        W34742   6.061  13.507  11.287 -0.1484  0.3708  0.1688
18269W        W34743   2.341  18.588   2.783 -0.1022 -0.0729 -0.0014
18270W        W34744   5.364   5.467   1.176  0.0076 -0.2266 -0.1499
18271W        W34745  12.662  17.788  14.223 -0.1387 -0.6113 -0.0597
18272W        W34746  12.972   9.234   2.245  0.1427 -0.1496 -0.0313
18273W        W34747  10.216  16.428  10.591  0.0437 -0.2397 -0.0905
18274W        W34748   5.473   4.829   2.085 -0.0408  0.2156  0.1661
18275W        W34749   1.359  18.518   2.591  0.3329  0.0065 -0.1701
18276W        W34750   6.552   0.167  11.305  0.2959  0.2852  0.0812
18277W        W34751  18.637  17.448  14.471  0.0578 -0.1325 -0.0309
18278W        W34752  12.309  10.283  12.149 -0.2327  0.0410 -0.4548
18279W        W34753   2.428  17.202   0.098  0.0355 -0.1608  0.1996
18280W        W34754  13.654  11.657  12.770 -0.1042 -0.5021  0.0550
18281W        W34755   3.358   7.925  14.793 -0.0611  0.0393  0.1024
18282W        W34756  17.744   1.518  10.481 -0.0354  0.1409 -0.0490
18283W        W34757   5.933  12.536   1.088 -0.0105  0.1397 -0.1338
18284W        W34758   2.667  18.567  10.725 -0.3932 -0.0243  0.4566
18285W        W34759  15.719   9.238  11.999 -0.1953  0.0965  0.1651
18286W        W34760  13.231   6.056  13.012  0.5019 -0.1565 -0.1110
18287W        W34761   8.992   1.712  14.253  0.1460  0.4222 -0.0969
18288W        W34762   4.661   3.908  13.324  0.1051 -0.0528 -0.1310
18289W        W34763   8.032  19.219   4.568  0.2213 -0.1177 -0.1689
18290W        W34764  12.995  19.208  13.731  0.3640 -0.1021  0.1173
18291W        W34765   0.427   2.760   5.105 -0.1306  0.0689 -0.0413
18292W        W34766   8.769  12.948  12.870  0.0662  0.0492  0.2168
18293W        W34767  11.658  16.595  13.368 -0.1599 -0.2368  0.0178
18294W        W34768   9.996  11.917   3.543  0.0053  0.2517  0.1023
18295W        W34769   2.959   2.181  11.570 -0.5800 -0.1614 -0.2541
18296W        W34770  10.953   4.142   2.944  0.1589 -0.0459 -0.0880
18297W        W34771  17.026  14.705   1.244 -0.0071 -0.0081 -0.2211
18298W        W34772  11.639  13.432   0.334 -0.2023 -0.0169 -0.2746
18299W        W34773  18.324  14.150  13.659 -0.0782 -0.0549  0.0963
18300W        W34774  12.574  14.308  14.064  0.2272 -0.0896 -0.0729
18301W        W34775   1.435   1.019  10.302  0.1584 -0.3279  0.0274
18302W        W34776   8.510  18.677   1.588  0.2038  0.1297  0.0801
18303W        W34777   4.893  12.487  13.301  0.0820  0.3075  0.0964
18304W        W34778  13.755   5.481   4.929 -0.1960 -0.4639  0.1541
18305W        W34779   6.363  16.795   3.493 -0.1730  0.0670 -0.1848
18306W        W34780   9.722  12.751  11.083  0.0907  0.1116 -0.2737
18307W        W34781   3.055  13.598   0.578 -0.1051  0.0157  0.1286
18308W        W34782   9.881  13.436  12.702  0.0184  0.4461 -0.2337
18309W        W34783   2.612  10.368  13.291 -0.0105 -0.1656 -0.1610
18310W        W34784   5.168   1.850   1.921  0.2911  0.0376  0.3131
18311W        W34785   6.870   3.210   3.361  0.1100  0.0891  0.2987
18312W        W34786   0.243  11.619  13.025  0.1238 -0.1130  0.0400
18313W        W34787   9.856  13.980  12.007 -0.1596  0.0378 -0.0601
18314W        W34788   1.122   9.298   5.188 -0.4042 -0.2815  0.3330
18315W        W34789   6.795  15.109   3.075 -0.1101 -0.1038 -0.0269
18316W        W34790  10.181   7.584  13.111  0.3888  0.1931  0.2733
18317W        W34791  11.627   8.247   2.906  0.2957 -0.0986 -0.1453
18318W        W34792  16.124   7.583   3.577 -0.1478  0.0817 -0.1574
18319W        W34793   0.613  14.384   2.275 -0.0223  0.1297  0.1316
18320W        W34794  18.745   8.194  10.398 -0.1399  0.1767 -0.1860
18321W        W34795  10.741   0.782   4.281  0.0718  0.2438  0.0372
18322W        W34796   0.978  10.215   1.302 -0.3850 -0.0910  0.0114
18323W        W34797  16.172   9.265  12.865  0.0840 -0.2754  0.1080
18324W        W34798   5.016  18.827   2.882  0.0931 -0.1088 -0.1774
18325W        W34799  15.494  18.670   1.540  0.0498 -0.1581 -0.1216
18326W        W34800   6.978  13.775   2.469 -0.1099  0.0679 -0.2211
18327W        W34801  18.874   0.834  12.682 -0.2381  0.1795 -0.1094
18328W        W34802   8.617   8.855  10.082 -0.0884 -0.2579  0.4832
18329W        W34803   1.241  10.371  13.004  0.2990  0.0141 -0.0646
18330W        W34804   2.417   9.309  13.981  0.3497  0.1232 -0.2282
18331W        W34805   8.601  10.262   2.151 -0.0577 -0.1673 -0.3584
18332W        W34806  15.106  18.452   3.664 -0.2949  0.0122 -0.3868
18333W        W34807  16.858   8.318  10.828  0.0041 -0.1668 -0.4887
18334W        W34808  12.341   1.074   1.337 -0.1073 -0.0698  0.0971
18335W        W34809   6.324   1.163   0.396  0.0859  0.0532 -0.2015
18336W        W34810   1.034   4.171  12.243 -0.0206 -0.0056 -0.0730
18337W        W34811  16.577  11.011   0.439 -0.3486 -0.0701  0.0816
18338W        W34812   3.501   9.594  10.636  0.1089  0.2507 -0.0672
18339W        W34813   5.923   8.242   4.818  0.0716  0.0846 -0.0639
18340W        W34814  15.344  11.484   2.628 -0.1603 -0.3608 -0.1506
18341W        W34815  15.494   4.463  13.340 -0.4898 -0.2289  0.1088
18342W        W34816   8.624   9.000   2.498  0.0326 -0.1124 -0.2553
18343W        W34817  14.197  18.308   5.336 -0.2200 -0.3137 -0.0267
18344W        W34818   3.202  13.830  12.547 -0.4018 -0.2270  0.2070
18345W        W34819   9.772   6.624  11.713 -0.3914  0.1737  0.1468
18346W        W34820   5.486   7.245  13.862 -0.2031  0.1304  0.3526
18347W        W34821  17.384   1.828  11.944  0.2230  0.1104  0.2830
18348W        W34822   0.100   9.265  12.557 -0.3813  0.0710 -0.1911
18349W        W34823  14.141  12.362   1.124  0.2459  0.1166  0.1060
18350W        W34824   5.262  12.082  13.339 -0.4629  0.2081  0.0305
18351W        W34825   0.133  10.374  11.555  0.1288 -0.0350 -0.1357
18352W        W34826   7.698  12.948  14.691  0.2713 -0.3192 -0.1195
18353W        W34827   5.787  10.052   3.881 -0.6455  0.1393 -0.0367
18354W        W34828  12.995   6.817  11.743 -0.1186 -0.0224  0.0624
18355W        W34829  19.297   1.203  12.446  0.1597  0.1878  0.0852
18356W        W34830  12.107   9.086  14.716  0.1984 -0.0219 -0.1462
18357W        W34831  11.147  10.342   0.763  0.1775 -0.0304  0.2533
18358W        W34832   8.983  12.455   3.572 -0.2335  0.0785  0.1722
18359W        W34833   0.002   2.478   3.777 -0.1848 -0.3065 -0.0742
18360W        W34834   3.196  15.482   2.819  0.2263 -0.0461 -0.0967
18361W        W34835  11.874   7.051   2.936 -0.2068  0.3581  0.0588
18362W        W34836   3.941   7.598   3.766  0.1899  0.0759 -0.0210
18363W        W34837  10.389  10.497   3.386  0.1948  0.4395  0.2438
18364W        W34838  14.364   9.142  12.632  0.0462  0.0678  0.1643
18365W        W34839  19.301   0.634  13.338 -0.1531  0.2729 -0.2204
18366W        W34840   5.184   4.850  10.161 -0.0643 -0.0414 -0.0144
18367W        W34841   4.471   1.208   3.015 -0.0053  0.0357  0.2910
18368W        W34842  18.080   6.552   3.883  0.1503  0.0916 -0.1844
18369W        W34843   1.688  13.133  13.632  0.0507 -0.1262 -0.0032
18370W        W34844  15.300   7.023   2.027 -0.0828  0.1067  0.2080
18371W        W34845  10.537  19.331  10.996  0.1186  0.2533  0.0665
18372W        W34846   8.500   1.391   0.808 -0.1435 -0.0287  0.2357
18373W        W34847  16.721   7.235   0.235 -0.0864 -0.2927  0.0597
18374W        W34848   7.236  13.186  14.613 -0.1212  0.1576 -0.1230
18375W        W34849   7.484   0.979  14.296 -0.0178 -0.0772 -0.0602
18376W        W34850  12.459  16.185   0.170  0.2621 -0.0916  0.0866
18377W        W34851  12.149  11.292   0.543  0.0659 -0.2606 -0.1707
18378W        W34852   5.402   5.248  10.078 -0.1270 -0.2829  0.1781
18379W        W34853   9.291  10.597  11.477  0.0495 -0.0170 -0.0333
18380W        W34854   0.577   3.960  10.603 -0.4224  0.6260  0.0482
18381W        W34855   8.853   6.176   0.356  0.0654  0.2146 -0.1408
18382W        W34856   1.798  17.100   0.166 -0.1240 -0.3174 -0.1581
18383W        W34857  19.267   2.725  12.942  0.0202 -0.1467 -0.2926
18384W        W34858  18.177   0.208  11.767  0.1638 -0.0917 -0.2046
18385W        W34859  10.292  10.232   4.326  0.2203 -0.0215  0.4594
18386W        W34860  12.609  13.836  11.472 -0.0941  0.1422 -0.0389
18387W        W34861   1.779  18.170   3.902  0.2343  0.1832  0.3214
18388W        W34862  10.477   5.842   1.737  0.1608 -0.0533 -0.1542
18389W        W34863  19.206  13.770  13.330  0.1398  0.0408  0.1392
18390W        W34864   6.714   3.619  14.026  0.2663 -0.0648  0.1195
18391W        W34865  16.765   2.872   2.573 -0.3654  0.0132 -0.3111
18392W        W34866   4.715  15.516  11.806 -0.0563 -0.1737  0.2547
18393W        W34867   7.912  18.942   0.410 -0.1116 -0.0390 -0.2609
18394W        W34868   0.855   9.692   4.014  0.1036  0.0792 -0.2384
18395W        W34869   6.618   1.144  13.835  0.2422 -0.0764  0.1087
18396W        W34870   8.806   8.106   2.252 -0.0348 -0.0252 -0.0338
18397W        W34871   8.832   3.277   2.404  0.2199  0.0556  0.2009
18398W        W34872   6.605   6.203   0.206  0.0020  0.0583  0.0401
18399W        W34873   4.549  15.713   4.796 -0.1384 -0.3334 -0.1156
18400W        W34874   6.104  17.699  12.102 -0.1153  0.1623  0.5005
18401W        W34875  14.728  17.566  12.116 -0.1492  0.0112 -0.4851
18402W        W34876   5.784   2.047  11.050 -0.2760 -0.0085 -0.2696
18403W        W34877  12.740   7.476  11.919  0.0765  0.1171  0.2647
18404W        W34878   2.085   2.558  13.290  0.1938  0.1818  0.2595
18405W        W34879   5.273   7.281  11.842  0.1782  0.0434  0.1275
18406W        W34880  16.950   3.553   0.995  0.2544 -0.0720 -0.4201
18407W        W34881   3.916  16.630   0.497 -0.1607 -0.0507 -0.1880
18408W        W34882  15.225  16.535  12.935  0.1611  0.0922 -0.1843
18409W        W34883  18.998  12.099   1.574  0.1948 -0.0207 -0.2826
18410W        W34884   6.995  12.906  12.747 -0.3352 -0.0474 -0.3516
18411W        W34885  11.463  18.298   1.389 -0.1626  0.2063  0.1327
18412W        W34886  10.755   1.827  11.749  0.0247  0.0506  0.2825
18413W        W34887  14.516   0.573   4.765 -0.3028  0.0151 -0.1095
18414W        W34888  16.930  15.329   4.839 -0.0862 -0.0078 -0.2042
18415W        W34889  14.363   7.289   1.480 -0.3381 -0.2565  0.0028
18416W        W34890  15.038   2.540  13.628  0.1494 -0.0127  0.0205
18417W        W34891   9.767   1.562   4.420  0.1633  0.0015 -0.0316
18418W        W34892  16.108  10.469   2.562 -0.0908 -0.2519 -0.0971
18419W        W34893   5.200   1.491   4.493  0.0532  0.2783 -0.1617
18420W        W34894   6.294  16.226  10.751  0.2844  0.1736  0.2491
18421W        W34895  15.437  10.184  13.134 -0.0008  0.0535 -0.1814
18422W        W34896  17.357  11.707  12.886 -0.0079 -0.2198 -0.1280
18423W        W34897   7.016   0.470  11.433  0.0300  0.0770 -0.1375
18424W        W34898   9.128  15.036  14.310 -0.0885  0.1984  0.0926
18425W        W34899   7.147  17.880   1.917 -0.1494  0.0784 -0.1574
18426W        W34900  17.785  18.874   5.338  0.1717  0.2460 -0.0306
18427W        W34901   2.226   6.549  13.531 -0.1251  0.1483  0.0261
18428W        W34902   4.183   8.315   4.243  0.0795  0.2669 -0.2065
18429W        W34903   1.690   0.120  14.514 -0.1365  0.0128  0.0466
18430W        W34904   3.168   7.427   3.993  0.0452 -0.0129 -0.0154
18431W        W34905   3.579   7.903   3.680 -0.1099  0.2445 -0.0542
18432W        W34906  11.626  11.365   9.385 -0.0264  0.1187 -0.1356
18433W        W34907  16.572  14.572  12.436 -0.2763  0.1163 -0.0550
18434W        W34908   8.266   8.642  11.025  0.0709 -0.0597  0.1867
18435W        W34909  14.150   5.909   9.703  0.4442 -0.0386  0.2569
18436W        W34910   5.500  15.353  13.035  0.4213 -0.0349  0.0509
18437W        W34911   8.035   3.578   8.615  0.1050 -0.0069 -0.5732
18438W        W34912  15.943  12.224   0.126  0.0057  0.1784  0.0773
18439W        W34913   9.436   4.191  10.094 -0.1115 -0.2079 -0.0907
18440W        W34914  10.139  10.602   0.025 -0.0301 -0.0479 -0.0689
18441W        W34915  15.151  18.392   2.861 -0.0462  0.2985  0.2453
18442W        W34916   6.881   1.082   0.853  0.0355 -0.1831 -0.0690
18443W        W34917  13.410  15.547   4.206  0.4533 -0.0324 -0.1705
18444W        W34918   8.919   6.111   2.602 -0.0428  0.1311 -0.4315
18445W        W34919  14.083  16.457  14.866  0.3906 -0.1627  0.0405
18446W        W34920  13.149  19.069  12.176  0.2199  0.0175 -0.0362
18447W        W34921   5.253   7.473   3.547 -0.0158  0.3355  0.1522
18448W        W34922  18.200   4.723   0.815  0.0427  0.2468 -0.1988
18449W        W34923   4.251  19.050  10.994 -0.3311  0.2168  0.0025
18450W        W34924  11.651  16.250  14.700 -0.0585 -0.4363  0.0920
18451W        W34925  12.530  11.694  14.314 -0.3816  0.0462 -0.0938
18452W        W34926  10.446  13.567  14.468  0.0187 -0.0449  0.2280
18453W        W34927   8.241  17.370  10.569  0.2173 -0.0780 -0.0815
18454W        W34928   4.095   0.689   0.732 -0.1835  0.0376 -0.1569
18455W        W34929   7.850  10.644  11.255  0.2994 -0.2148  0.0984
18456W        W34930  15.702   9.289   4.634  0.0063  0.2403  0.1106
18457W        W34931   9.224   8.918  13.734  0.0433 -0.0729 -0.0843
18458W        W34932   0.849   1.717   0.234  0.1362 -0.2705 -0.1139
18459W        W34933   1.438  11.795  11.051  0.0340 -0.1398  0.0845
18460W        W34934  16.040   6.340  13.586  0.0295 -0.0956  0.0152
18461W        W34935   0.636  15.106   4.123 -0.0901 -0.1613 -0.0047
18462W        W34936   8.425   3.393   4.219 -0.1563  0.1716  0.0952
18463W        W34937  11.994  13.882   0.643 -0.1077 -0.0115 -0.2747
18464W        W34938   0.240  17.277   1.846 -0.1107 -0.1071 -0.6445
18465W        W34939  17.015  16.835  12.273  0.0610 -0.3026 -0.0930
18466W        W34940  14.183   0.628  12.549 -0.5362 -0.0113 -0.4215
18467W        W34941   5.531  10.033   0.529  0.5183  0.0178  0.1580
18468W        W34942   0.148  11.275   1.837 -0.4443 -0.0050  0.1763
18469W        W34943   9.673   7.351  14.592 -0.1550  0.2375 -0.0313
18470W        W34944   6.851  19.182   0.369  0.0288  0.1397  0.0574
18471W        W34945   0.823   9.894   5.250  0.1314  0.0504  0.2856
18472W        W34946   0.960  18.626  13.478  0.0059  0.1615 -0.3401
18473W        W34947   7.097  14.455   3.470 -0.1295 -0.3012 -0.5114
18474W        W34948  13.584  18.024  10.252  0.1465 -0.0967 -0.2672
18475W        W34949   5.926  14.570   0.067 -0.1304  0.0956  0.3888
18476W        W34950   4.157   1.140   5.187 -0.2207  0.1248  0.1072
18477W        W34951   1.264  14.824   9.757 -0.1279  0.3734  0.0517
18478W        W34952  16.214   7.981  12.546 -0.2177  0.1912 -0.2087
18479W        W34953   5.296  16.341  12.828  0.2000 -0.2671 -0.2437
18480W        W34954   1.115   5.051   0.066 -0.2529  0.2444 -0.1281
18481W        W34955   5.958   9.136   2.095 -0.1105 -0.1055 -0.0594
18482W        W34956   3.566   3.885   1.906 -0.1259 -0.0496  0.0911
18483W        W34957  12.242   0.514   2.670 -0.3370  0.1638  0.1180
18484W        W34958   6.439   0.001  13.210  0.3152 -0.2240 -0.1244
18485W        W34959   4.127  14.493   3.168  0.2205  0.2349  0.0243
18486W        W34960  17.581   6.405   4.019 -0.0617  0.2793  0.0713
18487W        W34961  17.863   7.862   3.857  0.1387 -0.0781 -0.0489
18488W        W34962  10.955   5.436  13.108 -0.0477  0.0429  0.1724
18489W        W34963  19.172   6.806   5.446  0.1122 -0.1080  0.2480
18490W        W34964  13.120   2.669   0.077  0.1955 -0.2188  0.2599
18491W        W34965   9.081  17.383   0.494  0.1255 -0.1949  0.3097
18492W        W34966   6.803   9.306   1.693 -0.0229  0.1096  0.1520
18493W        W34967   4.196   9.224  11.347 -0.3950  0.1886  0.2690
18494W        W34968   6.118   0.660   2.343 -0.1777  0.0550 -0.1538
18495W        W34969   9.008  13.728   1.125  0.0223  0.0979 -0.2157
18496W        W34970   0.538   0.708  13.706 -0.2511  0.0262  0.1967
18497W        W34971   7.486  14.091   2.485 -0.2443  0.2466 -0.0854
18498W        W34972   9.772   0.528   4.528  0.0373  0.0084 -0.0531
18499W        W34973   2.914   0.980  10.558  0.0980 -0.0883 -0.1356
18500W        W34974  12.261   3.597   3.494 -0.1976 -0.3230  0.0967
18501W        W34975   2.368  18.724  10.360 -0.0119 -0.1516  0.1755
18502W        W34976  10.116  14.812   2.571 -0.4173  0.1225 -0.1052
18503W        W34977  13.848   8.651  13.465  0.1804  0.0622 -0.1740
18504W        W34978  14.390  15.815   2.080 -0.1092 -0.0035 -0.3266
18505W        W34979  15.641   7.605   4.088 -0.1982  0.0947 -0.2715
18506W        W34980   6.817   5.932   3.207  0.0637  0.0074 -0.2287
18507W        W34981   9.039   4.461   4.073 -0.0277 -0.0138  0.0967
18508W        W34982   6.527   0.550   3.403  0.0154 -0.0643  0.2309
18509W        W34983  18.182  13.014   3.491 -0.0395  0.0843  0.0869
18510W        W34984  15.746   4.615   0.837 -0.2646  0.0649  0.3493
18511W        W34985   2.879  11.303   1.429 -0.2478 -0.2056  0.1495
18512W        W34986   5.500   8.515  10.055 -0.0152 -0.0335  0.3005
18513W        W34987   6.756  15.072  12.369  0.1396  0.4894 -0.3116
18514W        W34988   6.113  13.816   0.781 -0.1518  0.3043  0.1029
18515W        W34989  18.219  10.489  11.992  0.0516  0.3200  0.0190
18516W        W34990   3.831   8.359  14.183  0.0586  0.0935 -0.2863
18517W        W34991   4.869  15.962   2.801  0.0183  0.0430  0.0890
18518W        W34992  12.776   0.056  12.312  0.5413  0.3792  0.5233
18519W        W34993  13.872   9.120  13.541 -0.0761  0.0305  0.0970
18520W        W34994  10.528  11.215  11.467  0.0393  0.2428 -0.2883
18521W        W34995  10.032   6.438  13.573 -0.1491  0.0730  0.1739
18522W        W34996   8.051   7.310   0.289  0.3847 -0.2125  0.0671
18523W        W34997   1.498  17.943   2.393  0.1750  0.0552  0.1335
18524W        W34998  13.535   2.044  12.445  0.0472 -0.1816  0.0118
18525W        W34999  11.933   9.790  12.994  0.0929  0.1279  0.1381
18526W        W35000   1.470  18.205  14.016  0.1912  0.1352  0.0628
18527W        W35001   7.644   9.145  12.254  0.2663 -0.0012  0.2014
18528W        W35002  17.356  14.519   5.084  0.1169  0.0884  0.0481
18529W        W35003  14.677  16.276   1.866 -0.1124  0.1913  0.3517
18530W        W35004   1.728   4.702  13.780 -0.3080  0.0867 -0.0941
18531W        W35005  18.602   4.515  13.411  0.1357  0.1381  0.1552
18532W        W35006   7.590  11.906   1.151 -0.0676  0.4185 -0.1112
18533W        W35007  15.208  17.932  13.654 -0.0179 -0.1946  0.1621
18534W        W35008   4.760   6.332   2.060  0.0192  0.4169  0.1561
18535W        W35009   4.937  12.225   4.741  0.1632 -0.2092  0.5164
18536W        W35010   9.086   3.692  10.820 -0.2288 -0.1309 -0.3085
18537W        W35011   3.083  14.448   1.296 -0.1255 -0.0811 -0.0545
18538W        W35012   4.084   0.930   4.771 -0.1597 -0.0353 -0.1629
18539W        W35013  19.316   4.678   3.067  0.1316  0.1661 -0.3719
18540W        W35014  11.841  16.074   2.517  0.0292  0.0204  0.0721
18541W        W35015   6.435   4.293   1.483 -0.2442 -0.0258 -0.2117
18542W        W35016   9.187  10.068   2.993 -0.0395  0.3154 -0.0109
18543W        W35017   8.110   0.061   1.852 -0.0082  0.1511 -0.1837
18544W        W35018   6.132  14.074  14.720  0.0063 -0.0810  0.3334
18545W        W35019   9.758   3.650  14.619 -0.0887  0.0461 -0.0863
18546W        W35020   4.777  10.500   0.840 -0.1730  0.1269  0.2586
18547W        W35021   4.141   7.403   4.163  0.2883 -0.3493 -0.1024
18548W        W35022  14.439   4.142   4.211 -0.2631  0.3142 -0.1167
18549W        W35023  11.702  12.058   0.530 -0.0906 -0.0088  0.2531
18550W        W35024  11.063   0.571   0.946  0.1715 -0.1686  0.0160
18551W        W35025   7.688  12.627   1.105 -0.0046 -0.0707  0.4371
18552W        W35026  11.578   5.896   5.228  0.0912 -0.1431  0.1910
18553W        W35027   3.579  11.243   3.321  0.1008  0.3181  0.2273
18554W        W35028   7.988  16.679  11.647  0.1019  0.1302 -0.0193
18555W        W35029  11.505   3.861   1.649  0.0112  0.2541 -0.2320
18556W        W35030   1.979   1.277   2.861  0.3866  0.1307  0.1918
18557W        W35031   5.853   6.825  14.618 -0.0468  0.0646  0.2419
18558W        W35032  18.032   0.476  13.702 -0.0170 -0.2928 -0.1784
18559W        W35033   8.102   3.385  11.087 -0.4313 -0.1507 -0.5329
18560W        W35034  18.438   6.336  14.534  0.1769  0.6719  0.0511
18561W        W35035   1.701  12.944  12.428  0.3337 -0.0046  0.0121
18562W        W35036  18.958  14.973  14.195 -0.3687  0.2306 -0.1348
18563W        W35037  15.668  14.387   2.511 -0.0657  0.0180  0.0869
18564W        W35038  17.397   8.122   1.327  0.4335 -0.1744 -0.2205
18565W        W35039  16.721   2.591  11.256  0.1686 -0.1048 -0.0225
18566W        W35040  16.050  16.679   3.427  0.1272  0.0480  0.1570
18567W        W35041  16.007  16.142   1.873 -0.0726  0.0126  0.1447
18568W        W35042   4.697   8.518   1.965  0.1042  0.3131 -0.1841
18569W        W35043   5.506  16.679  11.720 -0.0496 -0.1636 -0.1204
18570W        W35044  17.781   2.274   3.018 -0.1128 -0.0158 -0.3702
18571W        W35045  17.743  15.497   4.326 -0.0157 -0.1297  0.0679
18572W        W35046  11.020   6.103  11.531 -0.2450  0.0697 -0.3786
18573W        W35047   1.620  12.185  13.663  0.0051  0.1360  0.2836
18574W        W35048  14.437   4.986  14.767  0.0468 -0.2746 -0.1440
18575W        W35049  14.177   2.381   4.053 -0.0451 -0.0526  0.2426
18576W        W35050   3.007   1.567   1.292  0.2161 -0.3084 -0.1236
18577W        W35051  16.759   4.831  11.922 -0.1074 -0.4737  0.3669
18578W        W35052  12.575  11.184   0.301 -0.4437  0.3126  0.1601
18579W        W35053   3.447   6.480  14.608 -0.0165 -0.2255 -0.2029
18580W        W35054   5.747  18.534  12.971  0.1979 -0.0175 -0.3472
18581W        W35055  18.065  10.754  12.405 -0.3719  0.0999 -0.2009
18582W        W35056  14.869  18.185   1.070 -0.2833 -0.0742  0.1188
18583W        W35057   9.391   6.456  14.091 -0.1488 -0.2465 -0.1979
18584W        W35058   3.155  15.831   4.650 -0.1175 -0.0648  0.0013
18585W        W35059  13.726  11.805   2.205 -0.1494 -0.2817  0.0939
18586W        W35060  17.651   8.958   2.777  0.1443 -0.1382 -0.2794
18587W        W35061   1.447  10.412  12.123  0.1543 -0.0597  0.4233
18588W        W35062   4.149   0.187   0.283  0.2279 -0.0432 -0.0084
18589W        W35063  17.556   5.043   0.287  0.0680  0.1182 -0.0140
18590W        W35064  17.054   6.584  11.422 -0.2241 -0.1803 -0.0992
18591W        W35065  18.630   0.403  13.897  0.0920  0.0248 -0.0292
18592W        W35066   2.994   4.965  12.783  0.1027 -0.0592  0.0583
18593W        W35067  14.037   7.540  14.112  0.2494 -0.0646 -0.1351
18594W        W35068  13.878  18.840   4.138  0.0303 -0.3183  0.2910
18595W        W35069  14.823   5.955   1.304  0.0144 -0.1059 -0.2151
18596W        W35070   2.989   7.240   2.256 -0.2698 -0.1145 -0.0803
18597W        W35071   2.490  14.131  11.837 -0.0114 -0.2209  0.1148
18598W        W35072  10.591   0.026   3.223 -0.1698  0.0457 -0.2436
18599W        W35073   7.044  15.119   4.757  0.0851  0.0507  0.3124
18600W        W35074   5.649   0.161  11.138  0.0553 -0.3196  0.0514
18601W        W35075  17.489  11.976   0.436 -0.1022 -0.2319  0.1694
18602W        W35076   3.459  14.905   4.922  0.0584  0.1768 -0.0163
18603W        W35077   6.338   0.125  10.046 -0.0168  0.3010  0.2257
18604W        W35078   7.115   8.090  10.122 -0.0386  0.3185  0.1217
18605W        W35079  12.427  10.461   2.972 -0.1384  0.2497 -0.0209
18606W        W35080  15.296   7.841   4.378 -0.6485  0.1181 -0.1086
18607W        W35081  12.629   8.333   2.923  0.2054 -0.1364  0.2120
18608W        W35082   7.525  16.791   2.844 -0.1008  0.0562  0.0424
18609W        W35083  14.830   0.852   0.776  0.0463 -0.2908 -0.2900
18610W        W35084   8.972  12.042  14.048 -0.1204 -0.0250  0.3319
18611W        W35085  17.678  15.363   2.386 -0.0965  0.0743 -0.1808
18612W        W35086  10.080  16.083   2.298  0.1281 -0.1348 -0.1693
18613W        W35087  16.511   3.227  11.525  0.1744 -0.1710  0.2652
18614W        W35088   3.042   4.369   2.611  0.0407  0.1488  0.1523
18615W        W35089  15.147   6.852  14.240 -0.1374 -0.2794 -0.0087
18616W        W35090  14.443  13.748   0.727  0.3792  0.4319  0.1109
18617W        W35091  18.974   2.721   4.492  0.1263 -0.0976  0.2721
18618W        W35092  13.296   2.177   2.206 -0.0094  0.0327 -0.0353
18619W        W35093   8.631   6.848  12.613 -0.2755  0.0152 -0.1019
18620W        W35094   6.207   0.637   5.209  0.1193  0.0621 -0.2790
18621W        W35095  18.311   4.873   2.985  0.1678 -0.2123 -0.0372
18622W        W35096  10.222  15.446   0.883 -0.0478 -0.1801 -0.2739
18623W        W35097  17.279   0.016   0.352 -0.0596  0.3216  0.0261
18624W        W35098   6.469   0.537   1.583 -0.4821  0.2147  0.1265
18625W        W35099  10.684  15.495   3.559  0.0794 -0.0252  0.2205
18626W        W35100  14.622  15.393  14.124  0.0669 -0.2431 -0.0218
18627W        W35101   1.622  14.717   1.110 -0.2554 -0.0481 -0.0348
18628W        W35102  16.678   9.867   5.175  0.2629 -0.1198 -0.0677
18629W        W35103   3.519  13.370   0.129 -0.1910 -0.0055  0.0978
18630W        W35104   5.874  16.003  12.533  0.1765  0.0497 -0.5437
18631W        W35105   7.863   5.040   9.526  0.2214  0.2578 -0.0903
18632W        W35106   4.484   8.205   2.916  0.0754  0.2107 -0.1431
18633W        W35107   1.743  15.261  12.619  0.2017  0.1084 -0.2694
18634W        W35108   8.568   9.392   2.157 -0.0603 -0.2237  0.1464
18635W        W35109  16.028  11.146   1.342  0.2339 -0.3024  0.0792
18636W        W35110  15.811   9.616   4.198  0.1428 -0.0725  0.0536
18637W        W35111   7.936  18.200   1.032 -0.1587  0.1278  0.3514
18638W        W35112  12.407  19.159   1.259  0.1107 -0.1392 -0.2126
18639W        W35113   4.776  19.313  14.654  0.0355 -0.2282 -0.0600
18640W        W35114   9.125   6.113   1.759 -0.0431 -0.0518 -0.0893
18641W        W35115  17.853  10.835   2.914  0.0638  0.0876  0.1429
18642W        W35116   5.866  10.961   0.947  0.0774 -0.0363 -0.0783
18643W        W35117   6.433  14.409  10.933 -0.1483  0.2176  0.4387
18644W        W35118  11.690   7.668   3.138 -0.0117  0.1122 -0.1976
18645W        W35119  15.508   2.744  11.646 -0.2052 -0.1022  0.3855
18646W        W35120  15.001   5.052  14.854 -0.0930  0.1780  0.3065
18647W        W35121   1.341  13.658  11.214 -0.0042  0.3044 -0.1500
18648W        W35122   0.277  11.195   2.314 -0.2446  0.2586 -0.0732
18649W        W35123  13.844  10.112   0.601 -0.2290 -0.1971 -0.1811
18650W        W35124  16.936  13.155  12.974 -0.0280 -0.3382 -0.0369
18651W        W35125   6.286   5.290   1.701 -0.1500 -0.0060  0.1677
18652W        W35126  13.637   0.542   1.246 -0.2416  0.1997 -0.3379
18653W        W35127  15.851   2.218   0.953 -0.1958 -0.1647  0.2228
18654W        W35128   4.539   2.079  11.149 -0.1133  0.1186  0.2733
18655W        W35129   3.340   5.970   3.002 -0.0178  0.1281 -0.1889
18656W        W35130   9.116  17.533   1.118  0.1686 -0.1881  0.3075
18657W        W35131  17.277   1.362  12.033  0.1650 -0.0248 -0.0504
18658W        W35132  14.830   1.843  12.793 -0.1581  0.1788  0.4011
18659W        W35133   8.155  18.661  11.090 -0.0235  0.0076  0.3435
18660W        W35134  13.141  11.262  10.870 -0.0258  0.1935 -0.0602
18661W        W35135  14.634   3.678  11.966  0.1406  0.1808  0.0435
18662W        W35136   1.375   6.295  11.790 -0.0125  0.1725  0.0506
18663W        W35137   5.236  10.914   1.522  0.0084  0.2010  0.1974
18664W        W35138  14.095   7.550   1.092  0.2337  0.1035 -0.0151
18665W        W35139  15.931  12.491  10.646  0.0484 -0.0102 -0.2812
18666W        W35140  15.693   8.365  11.528 -0.4042  0.4645 -0.0408
18667W        W35141  11.364   1.841  11.563 -0.1597 -0.0187  0.4469
18668W        W35142  14.904  11.619  13.449  0.1050  0.1654 -0.1564
18669W        W35143   9.929   0.914  10.156 -0.0821 -0.0897 -0.3135
18670W        W35144   9.279  12.840  14.573 -0.1565  0.1372 -0.5001
18671W        W35145   6.036   6.300  11.540  0.0363  0.1652  0.0628
18672W        W35146   5.220  14.099   0.251  0.2346 -0.0062  0.0799
18673W        W35147  15.659   7.856  12.783  0.0232  0.0216  0.0138
18674W        W35148  14.668   9.235   4.721  0.3838  0.2873  0.0062
18675W        W35149  16.797   1.133   3.808  0.1092  0.0227  0.0361
18676W        W35150   1.351  17.548   0.014  0.0362 -0.0275  0.1269
18677W        W35151   8.601  11.203  10.093 -0.1621  0.1159  0.1632
18678W        W35152  15.130  14.500   2.708 -0.1271  0.0297  0.0850
18679W        W35153   4.527  19.075   4.575  0.1154 -0.3661  0.2508
18680W        W35154   1.066   1.563  13.120  0.2028  0.0066 -0.0251
18681W        W35155   8.802   7.348  13.685  0.1162 -0.1423  0.0825
18682W        W35156   9.253  11.140  14.267 -0.0934  0.0170 -0.0744
18683W        W35157  10.252   4.139   4.987  0.0715  0.1070 -0.1874
18684W        W35158   2.114  15.609  11.534  0.0539  0.0871 -0.1420
18685W        W35159  15.593   2.399  14.079 -0.2213 -0.0249 -0.0263
18686W        W35160  10.012   5.448  12.892  0.3062  0.0911 -0.0176
18687W        W35161  12.953   4.376   4.562  0.0799 -0.0464 -0.1972
18688W        W35162  12.128   6.819   2.536 -0.0006 -0.4437 -0.1599
18689W        W35163  10.132   0.574  13.289  0.0985 -0.2471  0.1562
18690W        W35164   1.464  17.286  14.489  0.0465  0.0672  0.3609
18691W        W35165   7.541   7.756  12.144  0.3670  0.1788  0.1870
18692W        W35166  13.397  18.883   0.280  0.1841 -0.2342 -0.2270
18693W        W35167   4.015  16.280  14.564  0.0234  0.2871  0.1315
18694W        W35168  16.302   0.967   0.440  0.1440  0.1132 -0.0929
18695W        W35169  13.838   9.620   0.543  0.0568 -0.3052 -0.3543
18696W        W35170  11.792  16.680   1.692 -0.0481 -0.0872 -0.1128
18697W        W35171   3.583  11.903   3.763  0.0361 -0.3311  0.2651
18698W        W35172   0.781   9.636   1.892 -0.1319 -0.3067 -0.0488
18699W        W35173  11.508  19.029  10.677 -0.1035  0.0830 -0.0235
18700W        W35174  17.641   3.085   4.108 -0.1802 -0.0309  0.5904
18701W        W35175  16.092   8.221   4.631 -0.2698 -0.0118  0.0992
18702W        W35176  11.580   1.807   0.407  0.0116 -0.3343 -0.1811
18703W        W35177  18.846   3.174  14.838  0.0813 -0.0304 -0.0256
18704W        W35178  14.268  13.105   2.510  0.0311 -0.0546  0.1306
18705W        W35179   2.882   0.864  13.169  0.1013 -0.1131 -0.1428
18706W        W35180   9.837   6.721   2.536 -0.0647 -0.1679 -0.1473
18707W        W35181  17.610   0.515   2.884  0.0546 -0.2649  0.1883
18708W        W35182  10.522   8.022   1.770 -0.2036  0.2379 -0.0279
18709W        W35183   1.220   7.494   0.515  0.0505 -0.3504  0.0662
18710W        W35184   9.185   0.474  10.614 -0.0505 -0.2390  0.3962
18711W        W35185   0.313  11.769   3.042  0.1686  0.1555  0.0958
18712W        W35186   2.953   1.105   0.928  0.0526  0.1610  0.2926
18713W        W35187   4.732   3.590  12.855 -0.2133 -0.1663  0.1438
18714W        W35188  17.649   5.426  12.071  0.1786 -0.0729 -0.1338
18715W        W35189  18.265   1.655   4.106  0.0025 -0.1829 -0.1733
18716W        W35190   0.263   5.662  13.179  0.0220  0.3129  0.2383
18717W        W35191   4.757   1.302   4.364  0.0919  0.1174 -0.2117
18718W        W35192  15.131  12.502   0.021 -0.3202 -0.1115  0.0564
18719W        W35193  15.456   2.558  13.295 -0.1214 -0.3236  0.1528
18720W        W35194  17.835  11.858  12.916 -0.0528  0.2514  0.1607
18721W        W35195  17.335   1.245   5.846  0.1885  0.3585 -0.0059
18722W        W35196   6.698   8.423  13.246 -0.1403 -0.1750 -0.5139
18723W        W35197   1.116   9.643  12.137  0.1384 -0.2987  0.2096
18724W        W35198  11.038   9.283   3.589 -0.1161 -0.0237 -0.0736
18725W        W35199   9.881  11.802  13.599 -0.1406  0.0496 -0.2495
18726W        W35200   4.839   8.915  11.219 -0.3078 -0.0511  0.1717
18727W        W35201  13.158   9.258  14.276 -0.0181  0.0168 -0.0850
18728W        W35202  17.361  18.174  12.582  0.1097  0.1556  0.0993
18729W        W35203   2.608   3.920   2.182  0.0176  0.0249 -0.1586
18730W        W35204  13.409   9.150   1.905  0.0311 -0.3293 -0.2155
18731W        W35205  17.488  17.374  10.709 -0.0881 -0.4299  0.0894
18732W        W35206  18.532   4.396   0.734 -0.0360  0.2161 -0.1029
18733W        W35207  10.734  11.976   2.525 -0.0150 -0.1018  0.1089
18734W        W35208  11.435  13.772   4.853  0.0216  0.2176 -0.0808
18735W        W35209   6.999  16.223  10.630 -0.1041 -0.2421  0.0164
18736W        W35210   3.865   0.096  13.999 -0.0993  0.1704 -0.0449
18737W        W35211  14.012   9.671  10.867 -0.0792  0.2770 -0.0380
18738W        W35212  15.583   3.124   3.420 -0.1134 -0.1825 -0.1042
18739W        W35213  13.661   3.722   4.289 -0.4296  0.1039 -0.3378
18740W        W35214   4.445  12.000   3.512 -0.3340 -0.1963  0.0005
18741W        W35215  17.508  19.284  13.310 -0.2182 -0.0089 -0.0230
18742W        W35216  15.785   6.804  11.456  0.1311  0.1757  0.0070
18743W        W35217   3.136  10.016   0.192  0.0514  0.0542 -0.0691
18744W        W35218   2.651   8.084   3.036 -0.0266  0.0751 -0.1743
18745W        W35219   4.392  19.188   0.588 -0.3866 -0.1507  0.0101
18746W        W35220   8.276  17.230   3.045  0.1686  0.4301 -0.0308
18747W        W35221  16.394   1.247   2.592 -0.2373  0.0003 -0.0880
18748W        W35222   2.176   8.724   0.281  0.2011 -0.0182 -0.0566
18749W        W35223  19.172  13.787   0.500  0.1476 -0.2520 -0.3713
18750W        W35224  14.384  10.871  14.025 -0.2656  0.1022  0.1066
18751W        W35225  18.952  19.042   5.192  0.1288  0.4615 -0.1717
18752W        W35226  11.170  17.339   3.172 -0.1085  0.0295  0.0833
18753W        W35227   5.262  17.230  13.100  0.4266  0.0739  0.0388
18754W        W35228  17.829  14.468   9.687  0.1058  0.4050 -0.1593
18755W        W35229   5.013  13.561  10.228 -0.4110 -0.0993 -0.5105
18756W        W35230  18.337   7.151   0.027  0.0817 -0.1120 -0.0114
18757W        W35231  14.588   2.766   2.844  0.0939 -0.0515 -0.1212
18758W        W35232  14.712  17.069  13.994  0.2842  0.2715  0.0788
18759W        W35233   9.913   4.735  10.545 -0.0976 -0.0008  0.3486
18760W        W35234   9.978   3.324  13.697 -0.3332  0.4149  0.0034
18761W        W35235   5.346   5.733   3.910 -0.1625 -0.0026 -0.0346
18762W        W35236   2.228  17.009   3.239  0.0195 -0.0719 -0.1937
18763W        W35237  14.869   8.110   4.804  0.0526 -0.3536 -0.0384
18764W        W35238   7.986  10.235   3.340 -0.1207 -0.0254 -0.2953
18765W        W35239  13.216  14.507   3.815  0.1350 -0.2239  0.0490
18766W        W35240   1.548  19.211   3.091  0.0527 -0.0319 -0.3428
18767W        W35241   0.202   9.274   3.806  0.2178  0.3611  0.2815
18768W        W35242  10.177   2.059  12.015  0.2420 -0.1284  0.2589
18769W        W35243  18.128  11.944  11.669  0.1577 -0.0214  0.2623
18770W        W35244  15.858   7.348   4.438  0.0520 -0.0647  0.0589
18771W        W35245   5.078   8.461   0.446 -0.2755  0.0052 -0.1267
18772W        W35246   8.912  12.184  13.495  0.2236 -0.1056 -0.0430
18773W        W35247  19.111  19.367   3.929  0.2175  0.2312  0.0548
18774W        W35248   0.357   0.818   3.297  0.0256 -0.1455  0.0383
18775W        W35249   6.253  15.107   0.971 -0.1648  0.2928  0.0686
18776W        W35250  14.760   7.996  11.569 -0.0867 -0.1274  0.1897
18777W        W35251  11.354  11.979  12.857  0.2046  0.2083 -0.2316
18778W        W35252  12.114  17.026   1.923 -0.1199  0.1106  0.3342
18779W        W35253  18.066   9.548   0.419  0.1433  0.1680 -0.3217
18780W        W35254  13.506   6.321   1.664  0.3361 -0.1282  0.2191
18781W        W35255  12.517  12.214   0.581  0.1369 -0.0072  0.0810
18782W        W35256   6.555  11.990   4.626  0.1796 -0.0180  0.0378
18783W        W35257   7.326   3.779   3.975  0.0342  0.0366 -0.1894
18784W        W35258  12.298  14.351   4.637 -0.2421  0.3062 -0.1682
18785W        W35259  17.260   9.675  13.626 -0.3075  0.0949 -0.2041
18786W        W35260  15.800  14.973   1.035  0.0206 -0.2125  0.1178
18787W        W35261  14.086   7.614  10.382 -0.0401 -0.2004 -0.0253
18788W        W35262  17.652  10.203  13.777  0.2712 -0.2215 -0.2253
18789W        W35263   0.124   6.171   4.699 -0.0993 -0.0051  0.1718
18790W        W35264  18.881  16.641   1.877  0.1026 -0.0580 -0.0042
18791W        W35265  10.015  10.115   2.447 -0.0313  0.1464 -0.0607
18792W        W35266   4.673  16.127   2.322 -0.2281  0.1134  0.0009
18793W        W35267   4.970  13.599   4.932  0.1298 -0.3167 -0.0860
18794W        W35268  19.354   9.617   3.515  0.3451  0.0014 -0.2399
18795W        W35269  17.944  13.004   2.139  0.0259 -0.1347  0.2804
18796W        W35270  15.132  13.815   9.865  0.2559  0.3461 -0.0265
18797W        W35271  11.183  14.248  13.671 -0.0877 -0.3090  0.1840
18798W        W35272  16.080   7.854  14.697 -0.2312 -0.3231  0.0463
18799W        W35273  16.260   0.250   4.822 -0.0963  0.3008 -0.3070
18800W        W35274  19.187   8.086  14.361  0.2213  0.0424  0.1642
18801W        W35275  16.325  12.104   2.513  0.1084 -0.1555 -0.0326
18802W        W35276  13.854   6.993  12.886  0.1354  0.1976 -0.0183
18803W        W35277   4.538  14.857   3.069 -0.0558 -0.0003  0.1827
18804W        W35278  15.247   9.510   1.220  0.0450  0.0084 -0.1404
18805W        W35279   5.225  18.298  10.441 -0.1156  0.0029  0.0127
18806W        W35280  13.715  17.301  10.776 -0.1158  0.0644  0.1429
18807W        W35281  19.335  12.554  13.989 -0.2625 -0.2171  0.1684
18808W        W35282   1.969  18.283  10.390  0.1059 -0.1572  0.0172
18809W        W35283  17.958   0.093   4.141 -0.2079 -0.2946  0.0449
18810W        W35284  14.522  13.010   1.905 -0.1431 -0.1509 -0.0700
18811W        W35285  14.307   1.992  11.442 -0.2524 -0.0364  0.2011
18812W        W35286  18.617   6.337   0.694 -0.3089 -0.2447 -0.0989
18813W        W35287   7.395  15.501   2.021 -0.1468 -0.0706  0.4797
18814W        W35288   2.375   7.742  10.578 -0.1909  0.2023  0.0837
18815W        W35289   8.371   7.380  12.879 -0.0209 -0.2001 -0.1334
18816W        W35290   0.066  12.126   1.287  0.3367  0.0849  0.1444
18817W        W35291   3.214   1.986   1.122  0.3095 -0.0383  0.0155
18818W        W35292  10.002   0.096   4.011 -0.0325 -0.2904  0.1398
18819W        W35293  11.610  18.351   2.078  0.1764  0.1898  0.1791
18820W        W35294  19.012   3.696   1.081 -0.2282  0.1285  0.2279
18821W        W35295  12.730   3.097   1.299 -0.0534 -0.0279  0.0254
18822W        W35296  18.800   6.666  14.354  0.2007 -0.0823 -0.0547
18823W        W35297  11.981  18.328  12.526 -0.0991  0.1053 -0.1230
18824W        W35298   6.636  14.076   2.217 -0.4830 -0.0152  0.0082
18825W        W35299  13.916  18.002   4.468  0.2436  0.2273 -0.0657
18826W        W35300   2.519   6.051  11.892  0.0255 -0.1036 -0.0789
18827W        W35301   1.416   2.770   0.806 -0.2800  0.2431  0.0542
18828W        W35302  14.871   0.133   4.256 -0.0664 -0.1020  0.0894
18829W        W35303  17.888   7.864  13.334 -0.1188  0.0738 -0.2099
18830W        W35304   7.920   9.966  12.493 -0.2961  0.1234  0.0428
18831W        W35305  13.884  12.878  14.887  0.1298 -0.0175 -0.0962
18832W        W35306   6.515   7.144  11.818 -0.1290 -0.1077 -0.0383
18833W        W35307  10.049   2.103   4.708 -0.1685  0.2939 -0.0415
18834W        W35308  16.488   3.602   1.463 -0.1451  0.0998 -0.1816
18835W        W35309  14.837  16.209   4.131  0.1728 -0.1587  0.0966
18836W        W35310  11.569  10.300  11.674  0.3873  0.3758 -0.1861
18837W        W35311   5.626  11.187  10.026  0.1407 -0.0825  0.0459
18838W        W35312  14.532  11.754  10.742 -0.1805  0.0336 -0.0936
18839W        W35313   3.939   3.300   2.325  0.1349 -0.1662  0.2524
18840W        W35314  11.439   9.107   4.965 -0.2851  0.0798  0.2361
18841W        W35315  10.687  18.638  13.694  0.1145 -0.0818 -0.1543
18842W        W35316   3.336   4.912   4.194  0.1437  0.0204 -0.2042
18843W        W35317   3.249  14.860  12.960  0.0055  0.1694  0.2441
18844W        W35318  14.042   2.809  11.143  0.0510 -0.2828 -0.2894
18845W        W35319  10.125  13.845   1.276  0.0832  0.1087 -0.0894
18846W        W35320  16.346  13.330  14.078 -0.1189  0.0082  0.0155
18847W        W35321   0.980  12.004  11.271 -0.0366 -0.2136  0.0941
18848W        W35322  13.700  18.913   1.121 -0.4815  0.4715  0.0499
18849W        W35323   1.514  10.898   0.105 -0.1055 -0.0049 -0.1600
18850W        W35324  18.504  16.859  11.522  0.1556  0.0092 -0.0926
18851W        W35325   2.193   1.388  10.919  0.1880 -0.0134 -0.3156
18852W        W35326   7.846  14.387   2.539 -0.2317 -0.3119  0.1505
18853W        W35327  16.849  12.147  11.150 -0.0243  0.1341  0.1840
18854W        W35328   5.041  11.277   3.485 -0.0167 -0.1869  0.1987
18855W        W35329  14.768  19.124  14.057  0.2691 -0.0601 -0.0577
18856W        W35330   9.993   3.512  12.408 -0.0095 -0.3646 -0.0526
18857W        W35331  13.622  13.014  10.315 -0.0430  0.1005 -0.2833
18858W        W35332   7.309  11.530  12.896 -0.1021 -0.2208 -0.0731
18859W        W35333   3.234  12.043  12.680  0.1042  0.1085 -0.0421
18860W        W35334  17.364   0.805   0.435  0.3618 -0.1979 -0.0366
18861W        W35335  16.579  18.410   1.568  0.1161 -0.1693 -0.2351
18862W        W35336  11.248  13.251   2.001 -0.0194 -0.1349 -0.0612
18863W        W35337   8.169  18.859  14.834 -0.4388  0.0464 -0.0576
18864W        W35338   3.029   1.927  14.143 -0.2662  0.1109  0.2549
18865W        W35339   9.434   6.996   3.519 -0.0115 -0.0139 -0.1638
18866W        W35340  14.855  16.179  14.615  0.2255 -0.0394  0.0899
18867W        W35341  16.310  16.681  13.481  0.2494  0.0418  0.2059
18868W        W35342   2.935   6.931   2.636 -0.1509 -0.4571 -0.1308
18869W        W35343   9.381  11.797   2.815 -0.0971  0.1797  0.0713
18870W        W35344   4.566   4.949  13.771  0.1451  0.2123 -0.0896
18871W        W35345   5.823  11.983  12.390 -0.0660 -0.1288 -0.1597
18872W        W35346  16.473   3.135   0.458 -0.0021 -0.1518 -0.0798
18873W        W35347   2.851   9.958  10.712 -0.2849 -0.0395  0.0528
18874W        W35348  19.273   7.664   1.814 -0.0626  0.1386  0.1457
18875W        W35349   2.397   4.227  14.449 -0.0284 -0.4981  0.0356
18876W        W35350   4.015   6.262  11.665 -0.0560 -0.1674 -0.3706
18877W        W35351  18.832   6.772   0.881 -0.2181 -0.0559  0.0413
18878W        W35352   2.041  17.473   3.237 -0.0767 -0.0738 -0.2906
18879W        W35353   5.752  17.480  14.183  0.0754  0.1691 -0.1267
18880W        W35354   7.093  16.928  14.857 -0.2707 -0.2900 -0.0218
18881W        W35355   3.670  17.733   3.088  0.1866 -0.2553  0.3383
18882W        W35356  17.568   3.121  11.905  0.0477 -0.1347 -0.3827
18883W        W35357   0.515  12.363  11.212  0.1127  0.4619 -0.0922
18884W        W35358  14.294  18.828   3.789  0.2112 -0.2945 -0.0234
18885W        W35359   6.571  18.784  14.138 -0.0709  0.0370  0.0318
18886W        W35360   8.208   2.757   9.828 -0.0576 -0.0646 -0.1159
18887W        W35361   0.956   7.237  12.761 -0.0424 -0.0646 -0.2119
18888W        W35362   0.532   8.286   1.456 -0.4781  0.0263  0.1374
18889W        W35363   7.817  18.373  11.374  0.1382 -0.0616 -0.1039
18890W        W35364  11.104   1.545  14.792  0.0638  0.2074  0.0998
18891W        W35365   3.968  13.512   2.155  0.4675  0.0943 -0.0051
18892W        W35366   2.212  16.913  13.267  0.1914  0.2022 -0.0479
18893W        W35367   8.557   8.710   4.002 -0.0109 -0.0271 -0.2144
18894W        W35368  10.516  15.403   4.571  0.0077 -0.1238  0.0255
18895W        W35369  16.817   8.534   1.579  0.4052  0.0958 -0.0219
18896W        W35370   9.716   8.822   2.596  0.1956  0.4027  0.0463
18897W        W35371  17.954  19.253  13.556  0.0886 -0.1779 -0.2412
18898W        W35372   9.284   1.271   1.946 -0.3965  0.3652  0.0835
18899W        W35373   3.741  14.076  14.624 -0.0590 -0.3413 -0.0253
18900W        W35374   6.041  17.914  14.742 -0.1812  0.3469  0.1719
18901W        W35375  10.120   1.453  14.749 -0.0837 -0.0192 -0.1012
18902W        W35376  10.026   1.419   2.779 -0.2377  0.0446  0.1349
18903W        W35377  16.712  16.495   1.375 -0.1399 -0.0612 -0.0146
18904W        W35378  12.572   3.074   4.761  0.2584  0.3877 -0.0443
18905W        W35379   5.599  13.570  11.055  0.2435  0.0182 -0.2257
18906W        W35380  10.569  11.156   2.582  0.0626 -0.1028 -0.2882
18907W        W35381   6.276  11.123   4.301  0.1024  0.1110  0.2481
18908W        W35382   3.342  13.004   1.740  0.0988  0.0857  0.0076
18909W        W35383   7.539  16.909   3.738  0.0795 -0.2209 -0.2934
18910W        W35384  11.275   8.756   1.246 -0.1795 -0.0972  0.3155
18911W        W35385   5.837   8.163  10.348  0.0821  0.0249  0.0346
18912W        W35386   0.165  13.403  13.476  0.1337 -0.1902  0.0064
18913W        W35387   4.165  18.493   1.266  0.0646 -0.1750 -0.0122
18914W        W35388  16.960  10.645   4.567 -0.0659  0.1847 -0.0902
18915W        W35389  10.745   9.739   0.374  0.1847 -0.2802  0.4037
18916W        W35390  10.283   7.900   2.840  0.2688 -0.1692 -0.0634
18917W        W35391   7.478   8.482   3.323  0.0737  0.0355  0.0625
18918W        W35392  18.922  10.820   1.661  0.3382 -0.0879 -0.0558
18919W        W35393  17.223  10.246   3.610  0.1377  0.0078 -0.2045
18920W        W35394   4.939  13.761  13.876  0.0798 -0.1982  0.0315
18921W        W35395   1.483  17.896  11.970  0.0190  0.1987  0.0343
18922W        W35396   6.839   6.216  13.838 -0.1786 -0.1450  0.1079
18923W        W35397  10.046   4.930  12.372  0.2098  0.0614  0.3645
18924W        W35398   8.116  19.297  14.506 -0.1629  0.1080  0.0562
18925W        W35399  19.293  15.502   0.175  0.0644 -0.0444 -0.2326
18926W        W35400   0.574  17.622   4.927 -0.2761  0.1159 -0.2271
18927W        W35401  17.817  18.272  13.344 -0.0440 -0.2796 -0.3395
18928W        W35402   6.402   8.372  10.162 -0.2013 -0.3025 -0.2825
18929W        W35403  13.882   4.575   2.320  0.0224 -0.0602  0.0417
18930W        W35404  12.685   3.478   2.847  0.1058  0.0177  0.0720
18931W        W35405  15.763  15.943  14.459  0.1265 -0.0527 -0.0987
18932W        W35406   1.558  11.582   4.814  0.0810  0.2412 -0.5737
18933W        W35407  18.743   0.499   4.992 -0.2812 -0.1542 -0.1495
18934W        W35408  10.539  18.710  11.055  0.2161 -0.1124 -0.4147
18935W        W35409   3.140  17.726  10.956 -0.0257  0.0421 -0.2353
18936W        W35410  12.971   2.571   3.906 -0.0010 -0.1884 -0.2319
18937W        W35411  14.547   3.432   4.066  0.0223  0.2052  0.1694
18938W        W35412   3.827   0.992   2.206  0.1071  0.1962  0.0645
18939W        W35413  13.882   6.352   9.999  0.0423 -0.2896  0.0432
18940W        W35414  18.691  15.591  11.539  0.3397  0.0014 -0.0919
18941W        W35415   6.130  18.205  10.579 -0.0547  0.5716 -0.1152
18942W        W35416  13.776  18.555   0.170 -0.1238 -0.1003  0.2688
18943W        W35417   3.061  14.777  12.301 -0.3525 -0.1569  0.1701
18944W        W35418  12.741  10.121  11.075  0.1353 -0.0163  0.2394
18945W        W35419  18.301  15.684   2.856  0.0762  0.3156  0.3755
18946W        W35420  13.250  10.246   0.760  0.0851  0.1333  0.0594
18947W        W35421   5.407  13.091   4.844 -0.1938  0.0873 -0.2395
18948W        W35422  15.414  16.768   1.028 -0.1472  0.1338 -0.1139
18949W        W35423   0.698   4.340  10.851 -0.0716  0.0022 -0.1777
18950W        W35424  16.415  16.130   0.283 -0.3053  0.2704 -0.1322
18951W        W35425   9.223  12.375   4.552 -0.2287 -0.3087 -0.0092
18952W        W35426   3.581   8.574   0.149  0.0924  0.1581 -0.0066
18953W        W35427  17.405  18.779   1.720  0.1635 -0.0088 -0.0688
18954W        W35428   1.142   1.771   1.347 -0.0088 -0.5628  0.1512
18955W        W35429   2.092   4.017   1.181 -0.0436 -0.1280 -0.0302
18956W        W35430  13.777  15.922   0.823  0.0045 -0.0119  0.0353
18957W        W35431  19.258   3.678  11.767 -0.2596 -0.0767  0.2292
18958W        W35432  10.734  15.653  13.976 -0.0942 -0.1093  0.1421
18959W        W35433   9.861  13.116  13.096  0.0153 -0.1848  0.0059
18960W        W35434  13.509  14.242  10.791  0.2954  0.0528  0.0653
18961W        W35435   3.587  12.481   1.114  0.1606  0.2118 -0.2638
18962W        W35436   5.862  15.949   0.553  0.0816 -0.0066 -0.0969
18963W        W35437  19.308   9.698  12.175  0.2713  0.2001  0.0010
18964W        W35438  11.154   4.130   1.431 -0.0117  0.0481 -0.0834
18965W        W35439  15.195   5.888  11.539  0.1060 -0.1970  0.0441
18966W        W35440  16.810   5.265   4.418 -0.0395  0.0885 -0.0846
18967W        W35441   5.743  13.863   2.290  0.2587 -0.1844  0.1325
18968W        W35442  15.251  11.614  12.865  0.0246  0.2476 -0.0324
18969W        W35443  14.746  13.611   4.570 -0.1683  0.1024  0.1102
18970W        W35444   4.877  17.026   9.686  0.1401  0.0149 -0.1318
18971W        W35445  16.881   5.600  12.620  0.2391  0.2557 -0.3017
18972W        W35446  13.506   0.639  10.306  0.1901 -0.1388  0.0172
18973W        W35447  17.390   4.704  10.881  0.3651  0.1208 -0.1424
18974W        W35448  11.417   8.610  14.733  0.0728  0.2213 -0.0146
18975W        W35449   1.062   8.734  10.761 -0.0525  0.0219  0.2028
18976W        W35450  14.448   6.676  10.518 -0.1907 -0.0242 -0.0357
18977W        W35451   5.619  13.801  12.558  0.2779 -0.1744 -0.3534
18978W        W35452   6.931  15.704  10.408 -0.0997  0.2899  0.2794
18979W        W35453  15.675   0.233  14.101 -0.1757  0.1554 -0.2252
18980W        W35454   2.835   6.453  10.751  0.0557  0.2862 -0.1112
18981W        W35455  17.572  14.732  13.517 -0.0399 -0.1567  0.1740
18982W        W35456   5.397   4.180  11.408  0.1410  0.0378 -0.1592
18983W        W35457   5.990   3.628  10.775 -0.0059 -0.0915 -0.0693
18984W        W35458   9.976   6.509  11.285 -0.4033 -0.0540  0.2520
18985W        W35459  18.639   4.691   0.368 -0.0593 -0.1503  0.2905
18986W        W35460  10.772  17.443  13.679  0.0497  0.4547  0.0850
18987W        W35461  15.561   5.460   4.448 -0.0226 -0.2685  0.1609
18988W        W35462  16.032   4.696  14.444 -0.1188 -0.0918 -0.0167
18989W        W35463   2.049   0.313  10.483 -0.1149  0.0697  0.0297
18990W        W35464  10.755  14.808  14.142 -0.0140 -0.2124 -0.1042
18991W        W35465  13.707   3.590  13.659 -0.2810  0.3182  0.0470
18992W        W35466  13.614   5.451  14.448 -0.2737 -0.1938  0.0533
18993W        W35467   2.154   0.291   9.859 -0.0756 -0.1123  0.1393
18994W        W35468   8.565   6.424   1.719 -0.1320 -0.4405  0.0253
18995W        W35469  15.730   0.472  10.196 -0.2695  0.1942 -0.0894
18996W        W35470  11.020  13.178   0.473  0.0703 -0.0368 -0.0925
18997W        W35471  12.590  10.963  14.487 -0.0296 -0.0425  0.1867
18998W        W35472   0.831  13.607   3.541 -0.1343 -0.3085 -0.2192
18999W        W35473   5.759   5.015   2.850  0.1490 -0.1479 -0.0338
19000W        W35474   5.976  13.979  11.545  0.2813  0.0916 -0.0654
19001W        W35475   2.048   4.122  12.432  0.0743 -0.0585 -0.0995
19002W        W35476  16.334  12.139  11.089 -0.2171 -0.2752 -0.1575
19003W        W35477  16.202   7.436  12.121  0.0875 -0.1750  0.1162
19004W        W35478   6.083  12.676  10.790 -0.2422 -0.0631 -0.1352
19005W        W35479  14.208   2.489  13.107  0.1151  0.0041  0.3932
19006W        W35480  17.752   1.390   0.546 -0.2163 -0.0631 -0.0375
19007W        W35481  16.194   8.473  11.618 -0.3203 -0.1406  0.0175
19008W        W35482   6.890   7.478   1.572 -0.1568 -0.2416  0.1307
19009W        W35483  12.581   6.657  14.784 -0.1347  0.2573 -0.0133
19010W        W35484   1.423  19.047  14.126  0.0069  0.0249  0.2973
19011W        W35485  15.303  13.220   2.234 -0.1536 -0.0908  0.0074
19012W        W35486   3.547   4.886  13.518 -0.0665 -0.1081 -0.1043
19013W        W35487   1.987   1.620   3.220  0.3615 -0.2847  0.3111
19014W        W35488  18.158  18.895   2.521 -0.1821 -0.1576  0.1047
19015W        W35489  11.075   2.699   1.481 -0.1383  0.1632 -0.0089
19016W        W35490   4.813   7.795   2.775 -0.1825 -0.2048 -0.2313
19017W        W35491  15.801  18.360  10.307 -0.0633  0.1322  0.0172
19018W        W35492   3.102   3.911   9.468 -0.2201 -0.5809  0.0735
19019W        W35493   6.419  16.518   4.556  0.1096 -0.1865  0.3718
19020W        W35494   3.192  10.649   4.912  0.1105  0.0840 -0.1203
19021W        W35495   2.299   2.925   9.439  0.4129 -0.2077  0.0350
19022W        W35496  18.562   2.679  10.992  0.4262  0.2858 -0.1147
19023W        W35497   1.494   2.880  13.000  0.0903  0.3468  0.1957
19024W        W35498   8.319  14.292   0.273 -0.1094  0.1530 -0.1783
19025W        W35499  11.670  12.640  11.867 -0.1279 -0.2107  0.3323
19026W        W35500   2.836   2.172  13.699  0.4030 -0.1577 -0.2168
19027W        W35501   6.362   7.469  13.040  0.2034  0.2689 -0.3112
19028W        W35502  16.823   4.146   4.199 -0.1350 -0.2850  0.1996
19029W        W35503   4.778   0.424   3.129 -0.0133  0.0161 -0.1711
19030W        W35504   1.677  17.350   4.508  0.3328  0.1856 -0.2000
19031W        W35505   5.942  10.322   0.534  0.0633 -0.1066  0.3794
19032W        W35506   2.285  13.370   3.690  0.1872 -0.1445 -0.0058
19033W        W35507   6.412  12.382   0.441  0.3835  0.0406 -0.0014
19034W        W35508   9.344  14.902  14.781  0.1097 -0.0491 -0.1244
19035W        W35509   3.715   6.852  12.729  0.1020 -0.0964 -0.0986
19036W        W35510   6.818   8.789   0.703 -0.1273  0.1223 -0.0976
19037W        W35511   9.188  16.107   1.417  0.3226 -0.1910 -0.4389
19038W        W35512  12.162  10.570  13.111 -0.1182  0.2566 -0.0638
19039W        W35513  11.312   4.984   0.424  0.0896 -0.3998 -0.1288
19040W        W35514   8.927  15.371  12.572 -0.0115 -0.1046  0.0135
19041W        W35515   0.784  12.417  12.582 -0.0266  0.0368 -0.0872
19042W        W35516   1.165  12.066   4.614 -0.2532  0.0307 -0.1062
19043W        W35517  17.484   3.751   3.469 -0.1157 -0.0896  0.0310
19044W        W35518  10.798   3.184  14.631  0.3297 -0.0373  0.2420
19045W        W35519   0.673  16.649   4.858 -0.3964  0.1661  0.1919
19046W        W35520  14.531   9.516  14.358 -0.1432  0.0465  0.0602
19047W        W35521  14.480  12.637  11.999 -0.2675 -0.2044  0.0656
19048W        W35522  10.596   7.070   0.114  0.1852  0.4216 -0.0350
19049W        W35523   2.678  18.377   4.310  0.1846 -0.3349  0.3311
19050W        W35524   7.504   8.640   0.141  0.1698  0.2384 -0.1192
19051W        W35525   7.277   5.652  12.540 -0.1335  0.1385 -0.0882
19052W        W35526  16.182  13.485   4.127 -0.2873  0.0055 -0.2018
19053W        W35527   8.349   4.875   4.478  0.2183  0.1208 -0.1369
19054W        W35528  18.444   7.915   2.129  0.0913  0.0110 -0.0616
19055W        W35529   1.493   6.193   0.246  0.1470  0.1346 -0.1248
19056W        W35530  12.684   2.077  11.400  0.0219 -0.2511  0.2267
19057W        W35531  16.635  18.618   1.096 -0.0049 -0.1148  0.0974
19058W        W35532  16.736  12.778  12.707  0.2953  0.0739 -0.0061
19059W        W35533   2.362   3.162   4.612  0.1770  0.0596 -0.0129
19060W        W35534  16.666   1.932  13.187  0.1284 -0.1916  0.0981
19061W        W35535   0.039  12.242  11.219 -0.2826  0.1597 -0.1428
19062W        W35536  15.089   4.756   4.320  0.1728 -0.3520  0.0382
19063W        W35537  12.411   3.022  11.976  0.1359 -0.0419 -0.1964
19064W        W35538   5.965  17.159  10.906 -0.3188 -0.1533  0.0201
19065W        W35539  18.087   5.285   2.015  0.2763 -0.0598 -0.2831
19066W        W35540   0.524  15.489  11.155  0.2921  0.3288  0.0287
19067W        W35541  17.525   5.368   3.207  0.3518  0.0732 -0.3037
19068W        W35542   2.812   0.632   1.155 -0.1694  0.0034 -0.2675
19069W        W35543  11.688   2.045  10.562  0.0693 -0.0120  0.2782
19070W        W35544  19.138   7.491   4.599  0.0401 -0.0617  0.0893
19071W        W35545  18.963  10.961  12.546  0.2006 -0.0907  0.2705
19072W        W35546  18.965  11.955   2.998 -0.0034 -0.2736  0.0363
19073W        W35547  13.216   7.076  13.556 -0.3627  0.1090 -0.1756
19074W        W35548  11.518   1.155   1.130 -0.0785  0.0339  0.1887
19075W        W35549   8.235   1.275  14.493  0.1513  0.0657  0.0019
19076W        W35550   7.686  12.072   3.095 -0.0226 -0.0308 -0.0661
19077W        W35551   0.456   1.846  13.044 -0.0150  0.2956 -0.0257
19078W        W35552  18.199  11.583   4.292  0.1441  0.0865  0.2047
19079W        W35553  10.617  10.957   3.106  0.1923  0.2082 -0.2045
19080W        W35554  13.253   3.118   0.043 -0.6830 -0.0868 -0.2298
19081W        W35555  10.220   3.818   3.637  0.1442 -0.0174 -0.3406
19082W        W35556   2.581  14.893   2.059 -0.2310 -0.0723 -0.1906
19083W        W35557   9.356  16.791  13.582 -0.0935  0.1521  0.2952
19084W        W35558   7.941   5.280  10.582 -0.0022  0.1346  0.2407
19085W        W35559   5.040   5.495  11.763  0.0388 -0.2038 -0.1794
19086W        W35560  13.159   2.434  10.818  0.1942 -0.1554  0.3501
19087W        W35561  12.214  16.387  11.140 -0.0757 -0.2262 -0.0977
19088W        W35562   1.624  17.146  11.286 -0.1035  0.1340  0.0139
19089W        W35563   5.839  15.166   3.047  0.0748  0.0210  0.2992
19090W        W35564  15.963  11.802   3.600  0.1706  0.1429  0.2421
19091W        W35565  12.099  18.066  10.871  0.1770  0.2310  0.3189
19092W        W35566  17.669  17.111  11.096  0.1031  0.4109  0.2628
19093W        W35567  11.486  16.894   3.331  0.1629  0.0769 -0.0083
19094W        W35568   8.226  19.215  14.048  0.1542  0.3463 -0.2147
19095W        W35569  18.837   7.265  10.339 -0.1175  0.0400  0.1150
19096W        W35570   8.501   9.039  11.210 -0.1181 -0.0432  0.0541
19097W        W35571   6.007   9.839  13.527  0.1229  0.1889  0.1294
19098W        W35572  17.632  18.956   2.717  0.1230 -0.5762  0.2958
19099W        W35573  10.927  12.098   2.101 -0.0121  0.4227  0.0339
19100W        W35574  17.829   4.088   3.313  0.1631 -0.1562  0.0760
19101W        W35575  10.039   7.072  12.669 -0.0793 -0.0496  0.2099
19102W        W35576  14.743  10.496   1.393 -0.0659 -0.0044  0.1948
19103W        W35577   4.893  12.104   1.823 -0.0395 -0.0276 -0.2173
19104W        W35578   6.903  14.417   0.962 -0.0859  0.0478  0.1736
19105W        W35579  11.033  14.728   1.561 -0.0724  0.1353 -0.1414
19106W        W35580   5.013   4.277   9.353  0.1724 -0.1324 -0.1567
19107W        W35581  10.763  11.780   4.979  0.3807  0.2411 -0.1527
19108W        W35582   5.231  17.486   5.778  0.3507  0.0241  0.1188
19109W        W35583  13.803  13.956   1.639  0.1478 -0.3821 -0.2953
19110W        W35584  11.162   7.512   4.698 -0.2631 -0.0595  0.1081
19111W        W35585   5.672   3.912  11.790  0.0621  0.1443 -0.2992
19112W        W35586  17.918  13.218  14.797  0.1676 -0.0928  0.3558
19113W        W35587   8.540  17.865  14.310  0.2140 -0.1178 -0.2625
19114W        W35588  14.375  18.162  13.461 -0.1910 -0.1154 -0.2460
19115W        W35589  19.343  14.496   1.043 -0.1174 -0.1245  0.0945
19116W        W35590   1.279  17.224  13.198 -0.0277  0.1835 -0.0531
19117W        W35591  16.140  12.984  11.273 -0.0223  0.0436 -0.3185
19118W        W35592   8.877   1.896   2.165  0.1770 -0.1364  0.1071
19119W        W35593  11.320  10.988   9.558 -0.1704 -0.0271  0.0014
19120W        W35594  12.535   9.736   5.089  0.0512  0.1689 -0.3325
19121W        W35595  12.527  13.624   0.789 -0.1141  0.1890 -0.2678
19122W        W35596   5.310  14.114  13.989 -0.0632  0.2754  0.1802
19123W        W35597  13.533   6.191  13.371 -0.2469 -0.0174  0.2013
19124W        W35598  15.252  13.342   9.996 -0.1575 -0.0548  0.1967
19125W        W35599   4.736  13.209  13.770  0.2802  0.3007  0.1418
19126W        W35600  11.046  16.881   0.105 -0.1102  0.0824 -0.0612
19127W        W35601   4.331  10.739   3.137  0.1071 -0.0507 -0.0161
19128W        W35602  12.984  17.606   0.749 -0.0327  0.0386  0.0749
19129W        W35603  19.083  18.254  14.460 -0.0667  0.1828  0.0675
19130W        W35604  14.511   2.540   1.232  0.0148 -0.3021  0.0066
19131W        W35605  12.143   7.684  13.065 -0.1997 -0.0191 -0.1679
19132W        W35606   4.955   5.776  13.620 -0.0367  0.2415  0.0702
19133W        W35607  17.514   6.344  12.444  0.0696  0.0643  0.2372
19134W        W35608   2.371   8.125  11.708 -0.0294  0.0991  0.0607
19135W        W35609  15.143  10.316  13.723 -0.0358  0.1951  0.0105
19136W        W35610   0.599  13.443   4.473  0.0723 -0.0053  0.3163
19137W        W35611  19.174   0.135   0.311  0.2178 -0.0192  0.1349
19138W        W35612  17.005   1.836   4.008 -0.0403  0.1369 -0.0616
19139W        W35613   6.762   1.059   3.679  0.0748  0.0066  0.2205
19140W        W35614  14.812   5.821   3.772  0.1994  0.0312 -0.2472
19141W        W35615   5.156  10.506   4.411  0.0684 -0.0426  0.3896
19142W        W35616   9.850   1.237  14.364  0.3267 -0.0236 -0.0877
19143W        W35617   5.045   4.182   4.163 -0.0066  0.0148 -0.0294
19144W        W35618   2.602   2.917   0.060 -0.1570  0.0478  0.3309
19145W        W35619  18.815   6.284  10.442 -0.2339 -0.2008  0.2196
19146W        W35620   1.957   0.541  13.215  0.2140 -0.1063  0.1289
19147W        W35621  13.086   8.713  14.211  0.0235 -0.0063  0.4557
19148W        W35622   8.469  11.040  14.658  0.2556 -0.1173 -0.0860
19149W        W35623   4.015  10.978   2.819 -0.0566  0.0618 -0.3578
19150W        W35624  17.479   7.742  12.380 -0.1533 -0.3088  0.3332
19151W        W35625  18.443   5.914  11.829  0.2412 -0.2873  0.0390
19152W        W35626   3.192  11.259   3.023 -0.1207  0.4034 -0.1731
19153W        W35627  17.495   7.154   3.393  0.0066 -0.3405 -0.1108
19154W        W35628  18.760  17.205  11.325 -0.0741  0.0535  0.0966
19155W        W35629  15.096  15.687   2.882 -0.0323 -0.1174 -0.0410
19156W        W35630   0.758   6.418  14.340 -0.1920 -0.1079 -0.2080
19157W        W35631  16.267   1.128   3.097  0.0933 -0.0530  0.1029
19158W        W35632   0.550  19.206  11.456  0.3065 -0.1226  0.0395
19159W        W35633   6.749  18.440   1.009 -0.3211 -0.3057  0.0123
19160W        W35634   5.312  14.020   4.738  0.4376 -0.2911 -0.0360
19161W        W35635   1.010  11.393   3.999 -0.1300 -0.2587  0.1846
19162W        W35636   0.108   3.982  13.650  0.0640 -0.0420  0.1118
19163W        W35637   5.117   4.931  12.390  0.2175 -0.1983  0.0309
19164W        W35638   1.154  14.726  12.615 -0.1547  0.0674 -0.0726
19165W        W35639   6.555   7.963  13.264 -0.1861  0.2460  0.0078
19166W        W35640  11.949   2.893  12.260 -0.2634  0.1342 -0.0712
19167W        W35641   0.891   5.575  14.518 -0.0197  0.3302 -0.0687
19168W        W35642  18.377   1.529  11.540 -0.4237 -0.1634 -0.4368
19169W        W35643   1.051  10.828  14.407  0.0265 -0.1710  0.0224
19170W        W35644   3.517   5.520   4.891 -0.2417 -0.2214  0.2461
19171W        W35645   5.988   6.226  13.899  0.2181  0.0447 -0.0353
19172W        W35646  10.012  14.814  11.133  0.1052 -0.4024 -0.0043
19173W        W35647  17.736  17.352   9.662  0.0805 -0.1869 -0.1090
19174W        W35648  19.004   4.463  12.915 -0.0314 -0.0928  0.0445
19175W        W35649  11.265   5.787  13.221  0.0269  0.0979 -0.0114
19176W        W35650  12.285   0.208   1.114  0.3407 -0.6000  0.2777
19177W        W35651  14.803   4.541   3.399  0.1134  0.0796  0.0627
19178W        W35652  16.299  12.928  14.369 -0.1789  0.0257  0.0475
19179W        W35653  13.497  15.227  12.430  0.0294 -0.0068  0.2455
19180W        W35654  18.579   4.473   2.756  0.2417  0.3548 -0.1126
19181W        W35655   1.168   5.553   0.289  0.0352 -0.2620  0.2830
19182W        W35656  17.499   0.429   1.772 -0.3414 -0.0065  0.1178
19183W        W35657  10.747   4.522   3.130  0.1326 -0.1399 -0.2271
19184W        W35658  10.447   1.187   8.901  0.3400  0.1085 -0.1019
19185W        W35659  18.242  14.642   4.266  0.1657  0.0167  0.1501
19186W        W35660  16.238   1.530  11.896 -0.3869  0.0091 -0.1447
19187W        W35661  12.131  13.695   3.119 -0.1411 -0.0078  0.0057
19188W        W35662  12.654  18.769  14.657  0.1212 -0.0650  0.1166
19189W        W35663  17.664  13.997   3.288  0.0435 -0.1561 -0.1496
19190W        W35664  10.108   1.444  13.564  0.2209 -0.3470  0.1145
19191W        W35665  13.889  11.381   4.557  0.0880  0.2939  0.0695
19192W        W35666   5.896   8.972   0.623  0.2920  0.3165 -0.2891
19193W        W35667  17.382   0.508  11.177  0.1770  0.1905  0.4303
19194W        W35668  15.038   3.843   0.302  0.0456  0.2204  0.1867
19195W        W35669  16.263   3.256  13.428 -0.0260 -0.1640  0.1095
19196W        W35670   6.113   8.449   3.183  0.0574  0.0881  0.1096
19197W        W35671  14.182  13.114   1.516  0.0118 -0.2538  0.0307
19198W        W35672   2.859   2.809  14.495  0.0707 -0.2094 -0.3819
19199W        W35673  15.650   5.521   2.052  0.3839 -0.0969 -0.3416
19200W        W35674   7.352  12.957  11.261  0.0947 -0.0461 -0.2057
19201W        W35675  13.422  13.981   2.096 -0.3694 -0.1418 -0.1664
19202W        W35676  18.994  13.376   2.033 -0.1929  0.0643 -0.1639
19203W        W35677   3.139  17.378  14.435 -0.0291  0.0769  0.1316
19204W        W35678  15.048  13.351   2.702 -0.0958  0.1261 -0.0088
19205W        W35679  18.235  13.801   9.756  0.0462  0.0556 -0.1294
19206W        W35680   3.270   5.155   3.683 -0.2029 -0.0749  0.1006
19207W        W35681   6.684   9.953   0.336  0.0237 -0.3807 -0.1560
19208W        W35682   1.198   2.300   0.739  0.0285  0.0424  0.5467
19209W        W35683  15.509   2.729  13.752  0.1211  0.0830 -0.0484
19210W        W35684  14.671   2.591   0.122 -0.0618 -0.1363 -0.0164
19211W        W35685   9.580   7.387  10.106 -0.0024  0.1890 -0.1483
19212W        W35686   5.246   6.370  11.399 -0.0945 -0.0051  0.1330
19213W        W35687   5.389  14.478   0.928  0.1291  0.0496  0.1128
19214W        W35688   8.596  13.914   4.553 -0.0773  0.1398  0.1958
19215W        W35689  17.273   8.493   1.631 -0.1893  0.0047 -0.1367
19216W        W35690   8.321  10.353   4.544  0.0857  0.0274 -0.2324
19217W        W35691   3.307   7.856   4.247  0.2676  0.1969 -0.0813
19218W        W35692  17.418   1.558  14.196  0.2077 -0.2450  0.1976
19219W        W35693  12.453  17.930   2.833 -0.0589  0.0602 -0.0389
19220W        W35694   3.601   6.972  13.910 -0.2247 -0.1251 -0.1989
19221W        W35695  10.172  18.638  13.905  0.0171 -0.1589 -0.1082
19222W        W35696   4.124  12.135   0.394 -0.2102 -0.0894  0.0475
19223W        W35697  18.787  13.315   5.687  0.2172 -0.2602  0.5055
19224W        W35698  11.939  13.868  13.602  0.1119 -0.2029 -0.0846
19225W        W35699  10.575  16.037   3.661  0.4375 -0.0688 -0.1168
19226W        W35700  16.175  12.865  11.979  0.1073 -0.1083 -0.1930
19227W        W35701   3.238   9.942   1.838 -0.0360 -0.0669  0.0011
19228W        W35702  17.909   3.358  13.810 -0.1037  0.0110  0.1461
19229W        W35703  18.629   0.374  10.943 -0.0728 -0.1480  0.2154
19230W        W35704   9.407   4.693  14.614 -0.0599 -0.0658 -0.0061
19231W        W35705  10.940   0.418   3.236 -0.3331  0.2590 -0.2711
19232W        W35706   4.524   7.024  14.301  0.2886  0.0507 -0.0701
19233W        W35707  12.785  15.362   1.520  0.2436  0.1904 -0.2611
19234W        W35708   8.174  17.607   2.155 -0.1287  0.0052 -0.1736
19235W        W35709  10.242  17.101  14.063 -0.0319  0.0586 -0.1151
19236W        W35710  11.182   4.590   3.924  0.0692 -0.0272 -0.4007
19237W        W35711   8.264   6.535   9.254  0.0002  0.2035 -0.1800
19238W        W35712   4.786  18.636  11.327  0.4188  0.1055 -0.4379
19239W        W35713  18.332   8.015  14.638  0.0678  0.0947 -0.1723
19240W        W35714   6.325   8.885  12.499 -0.0555 -0.2881 -0.1499
19241W        W35715  11.504   3.751  14.247  0.1600  0.3933  0.1073
19242W        W35716  17.763   6.821   1.636  0.0995  0.3409  0.0281
19243W        W35717  15.752   3.262   5.319  0.1797  0.1319 -0.1319
19244W        W35718   3.469  19.050  13.379  0.0251  0.1325 -0.1609
19245W        W35719  19.027   9.156   3.988  0.2066 -0.2966 -0.1680
19246W        W35720  10.422  17.526   3.983  0.0477 -0.2927 -0.1021
19247W        W35721  10.308   0.645   9.917  0.2808 -0.1541  0.0168
19248W        W35722   7.830   2.162   4.011 -0.1421  0.2099 -0.3541
19249W        W35723   1.724  18.365  12.928 -0.1722 -0.0180  0.1718
19250W        W35724  14.606  10.808  14.440  0.0683  0.2481 -0.0189
19251W        W35725   6.450   8.169  13.685 -0.2763  0.1489  0.0718
19252W        W35726  15.056  12.409  10.860 -0.3171 -0.1638 -0.3293
19253W        W35727  12.109   4.528   0.412 -0.3131  0.4109 -0.3822
19254W        W35728   3.069   4.466  10.763 -0.2558  0.1145  0.1592
19255W        W35729  15.979  13.583  11.302 -0.1985  0.2239  0.2207
19256W        W35730  11.262  14.190   2.693  0.0259 -0.2413 -0.1201
19257W        W35731  10.273  15.316   2.640 -0.1928 -0.0849 -0.4138
19258W        W35732   3.990   8.514  11.764 -0.3163  0.0998  0.4767
19259W        W35733  10.677  14.012  14.415 -0.2187 -0.0850 -0.1462
19260W        W35734   0.137   6.681  13.922 -0.1550 -0.5450  0.0066
19261W        W35735  19.251  18.645   4.952 -0.4573 -0.0000  0.1694
19262W        W35736  19.159  16.262   1.070 -0.3861  0.2412 -0.2569
19263W        W35737   7.173  12.373   4.398 -0.0071  0.1829  0.3035
19264W        W35738  10.672   1.296  11.991  0.0834  0.2206  0.3368
19265W        W35739   0.189   2.614  11.577 -0.1515 -0.0904 -0.0153
19266W        W35740  18.001   7.417  14.150 -0.3187 -0.1355 -0.2007
19267W        W35741  14.459  10.437   3.511  0.0707  0.1246  0.1380
19268W        W35742  10.536  19.337   4.288 -0.1707  0.0703 -0.0011
19269W        W35743   6.392  13.557   4.161  0.0934 -0.4999 -0.1166
19270W        W35744   7.768   5.826  14.651 -0.1758 -0.2328  0.0805
19271W        W35745   7.857  15.672   2.219  0.0171  0.0265  0.1944
19272W        W35746   6.087  17.758  10.891 -0.0111  0.0281 -0.1604
19273W        W35747   0.028  17.733  11.604 -0.0278  0.1920  0.1275
19274W        W35748   5.686  14.903  14.519 -0.2813 -0.1359  0.2501
19275W        W35749  18.170  10.993   1.259  0.0658  0.5113 -0.2282
19276W        W35750   3.709   7.222   0.247 -0.0425  0.3918 -0.2444
19277W        W35751  12.272   9.964   2.937  0.1846  0.2368 -0.0686
19278W        W35752   5.696   2.570   4.006  0.0812  0.0507 -0.1315
19279W        W35753  16.471  14.784   4.936 -0.1284 -0.2546  0.1026
19280W        W35754   5.264   4.928  14.550 -0.0833 -0.0712 -0.0624
19281W        W35755  17.009  17.564   3.725 -0.3386 -0.2307  0.2013
19282W        W35756  19.171  15.554   1.877  0.0124  0.0858  0.1496
19283W        W35757   0.465  16.638  13.046 -0.4461 -0.0522  0.1178
19284W        W35758  16.404  14.422   1.341 -0.0070 -0.4260 -0.0562
19285W        W35759  11.794   4.331  12.556  0.0393 -0.0708 -0.0485
19286W        W35760   7.983   0.462  14.691 -0.0303  0.0659  0.1083
19287W        W35761  14.709   5.115  13.384 -0.2822 -0.1853 -0.0980
19288W        W35762   5.634  17.580  10.959  0.2011 -0.2338 -0.1025
19289W        W35763   5.295  14.202  12.472  0.0173  0.0356  0.0821
19290W        W35764   9.162  15.275  13.449  0.0878 -0.5037  0.0612
19291W        W35765   0.647   1.235  13.075  0.1323 -0.0995 -0.0277
19292W        W35766   8.967  15.815  12.227 -0.1559  0.0237 -0.0555
19293W        W35767   3.786  15.352   2.017  0.2066 -0.1464  0.2522
19294W        W35768   1.187  13.869  12.467 -0.0450  0.1278 -0.2564
19295W        W35769   2.434  13.878   3.993 -0.0880 -0.0810 -0.3312
19296W        W35770  11.977  16.024   0.154  0.0670 -0.3981 -0.2176
19297W        W35771   9.877   2.565  12.172  0.1434 -0.1962  0.2841
19298W        W35772  12.589   6.816   9.946  0.1454 -0.2466  0.0628
19299W        W35773   9.167  18.344  11.583 -0.2281  0.2396 -0.1925
19300W        W35774   6.884  18.432  14.827  0.5700  0.2585  0.0098
19301W        W35775   0.621   3.478   0.938  0.0532  0.0754 -0.0382
19302W        W35776  16.646   6.954  12.668  0.2162  0.3606 -0.0041
19303W        W35777  12.841   7.797   2.479  0.2272  0.2935 -0.3361
19304W        W35778  17.667   9.803   0.553 -0.1789  0.1527  0.2637
19305W        W35779  17.553   5.261  14.658  0.1196  0.2200  0.1195
19306W        W35780   7.907  18.204   9.843 -0.3093 -0.2688 -0.0844
19307W        W35781   5.766   5.620  11.997 -0.1600  0.1946  0.1329
19308W        W35782   4.842   3.827   0.363 -0.1440  0.1984 -0.1867
19309W        W35783  10.345  12.973  14.253  0.3158  0.0684 -0.0470
19310W        W35784  11.629  13.969  12.069  0.2737  0.0121 -0.2757
19311W        W35785  10.335  18.143  11.777  0.1457 -0.2669  0.4437
19312W        W35786   9.191   1.375  10.374  0.0957  0.0801 -0.3532
19313W        W35787   9.917   8.108  14.002 -0.1904 -0.3907 -0.0009
19314W        W35788  12.288  17.592  11.966 -0.1238  0.1238 -0.2155
19315W        W35789   1.094  17.055   0.792 -0.1665 -0.1626  0.0664
19316W        W35790   2.746   3.784   2.763  0.1182 -0.1191 -0.0932
19317W        W35791   1.105   3.723   0.682 -0.1891 -0.0858 -0.6216
19318W        W35792  12.747  16.796   4.066  0.3118  0.2235 -0.0612
19319W        W35793   7.101  14.080   2.092  0.1797 -0.1230 -0.1613
19320W        W35794  12.706   2.389   0.461 -0.2493 -0.0501 -0.2099
19321W        W35795   0.404  13.554   2.746 -0.1487 -0.1190  0.1692
19322W        W35796   3.239  15.619  11.808 -0.1299  0.0475 -0.2759
19323W        W35797  15.747  16.819  11.369 -0.4035 -0.0103 -0.0062
19324W        W35798   1.972  16.557   4.208 -0.1780 -0.2067 -0.0301
19325W        W35799   2.127  12.957   1.104 -0.0080  0.0783  0.4382
19326W        W35800   3.770  12.951   0.053 -0.0727  0.1982 -0.3025
19327W        W35801  11.220   8.539   3.756 -0.2033 -0.3544 -0.0919
19328W        W35802   8.695  11.418  12.536  0.1683  0.3881 -0.0030
19329W        W35803  15.523   0.656   0.670  0.1499  0.4938 -0.0556
19330W        W35804   9.042  13.329   3.408 -0.0726  0.4746 -0.0232
19331W        W35805   3.626   6.153   2.606  0.0894 -0.1009 -0.2813
19332W        W35806  13.226  18.336  10.659 -0.2678 -0.0696  0.1092
19333W        W35807   9.039   3.471  11.275 -0.1425 -0.2304  0.1775
19334W        W35808  19.270  13.752  11.123  0.2676 -0.1618 -0.1910
19335W        W35809   2.869   3.788  14.116  0.4073 -0.0696  0.0195
19336W        W35810   6.328   3.449  14.270 -0.0058  0.3097 -0.0832
19337W        W35811  16.334   7.642  11.144 -0.0788  0.0051  0.2311
19338W        W35812   6.056  10.056   1.263 -0.0327  0.0935  0.1010
19339W        W35813   5.734  12.233  13.318  0.1384 -0.1041  0.1202
19340W        W35814  12.474   7.100   4.428 -0.1013 -0.1562  0.0726
19341W        W35815   8.051  18.871   2.788  0.0958  0.3765 -0.1312
19342W        W35816   7.566   1.950  14.663 -0.1958 -0.2122 -0.0838
19343W        W35817  10.928  16.616   5.090  0.2050  0.3368  0.1119
19344W        W35818   9.123   9.191   3.453 -0.1016  0.1622  0.1885
19345W        W35819  16.520   0.025  10.121 -0.0290  0.3712  0.0645
19346W        W35820   5.306  17.195   2.383 -0.0271 -0.1931  0.1751
19347W        W35821   7.387  18.995   4.924  0.0112 -0.0740  0.0593
19348W        W35822   3.052  14.221   4.517 -0.0570 -0.3065  0.1554
19349W        W35823   4.619   3.968   2.620 -0.1436 -0.0353 -0.1536
19350W        W35824  16.615  14.509  13.426  0.2539  0.3679 -0.3082
19351W        W35825   8.282  14.306   3.465  0.0968 -0.0386  0.2708
19352W        W35826   7.823   6.891   4.483 -0.0196 -0.0123 -0.3404
19353W        W35827   9.671  18.069   3.782  0.0271 -0.1667 -0.0339
19354W        W35828   8.689  18.305  11.472  0.0058  0.2022  0.5037
19355W        W35829  10.607  11.162   3.916 -0.2391 -0.3175  0.2591
19356W        W35830  15.515   1.536  12.598 -0.0353 -0.0613 -0.0360
19357W        W35831  13.856  18.640  11.350 -0.0359  0.1400  0.3257
19358W        W35832  13.177  13.088   3.854  0.0217  0.1145  0.2911
19359W        W35833  13.004  15.073   4.790  0.0538 -0.0711 -0.0806
19360W        W35834  15.555   6.764   2.380 -0.0092 -0.0357  0.0477
19361W        W35835  17.901  11.020  14.086  0.1143  0.1198  0.0580
19362W        W35836  14.290   3.024   4.202  0.1909  0.3425 -0.1736
19363W        W35837   6.606  17.498  14.662 -0.0415  0.1793 -0.0967
19364W        W35838   7.868   2.967   2.479  0.0589 -0.0384 -0.0420
19365W        W35839   8.521   4.864  12.065  0.1386  0.2593 -0.0471
19366W        W35840   1.335   1.703   4.356 -0.1205 -0.2518 -0.1816
19367W        W35841   2.724   1.588   9.991 -0.1838 -0.1338  0.0810
19368W        W35842   5.232  15.772  11.987 -0.4009  0.1323  0.2245
19369W        W35843   1.073  10.545  11.647  0.0001 -0.0698  0.0831
19370W        W35844   8.061   3.946   9.473  0.2628 -0.2207  0.1030
19371W        W35845   9.963  11.392  11.757 -0.0550 -0.1450 -0.4731
19372W        W35846  19.029  16.204  10.530  0.2914 -0.1820  0.0912
19373W        W35847  18.022   5.639  14.015 -0.0884  0.0099  0.1773
19374W        W35848   6.537  15.656   0.199  0.0336  0.2276  0.3339
19375W        W35849  18.796  10.536   0.748 -0.0754  0.3632 -0.0669
19376W        W35850   4.124   3.680   1.957 -0.1999 -0.1184 -0.1043
19377W        W35851  15.264  11.022  12.225 -0.1339 -0.0691  0.1624
19378W        W35852   8.319   3.082  10.285  0.0926  0.0937  0.1960
19379W        W35853  17.990  13.935  10.648 -0.1229  0.0311 -0.1467
19380W        W35854  12.857  10.876  12.690  0.0484  0.1779 -0.1017
19381W        W35855  15.774  18.276   1.140  0.2106 -0.3702  0.1108
19382W        W35856  18.355  12.833   3.000  0.1008  0.2066 -0.0624
19383W        W35857  12.691  12.229  13.302  0.1856 -0.2134 -0.3205
19384W        W35858   4.031  12.706  12.694 -0.0148  0.2296  0.0758
19385W        W35859   5.630   6.539  13.591 -0.0250  0.2944  0.1753
19386W        W35860  13.930  15.449  14.769  0.1432  0.2552  0.1023
19387W        W35861   4.667   0.828  10.728 -0.2025  0.0366  0.0315
19388W        W35862   8.380  18.059   2.805 -0.1506  0.2151 -0.0771
19389W        W35863   4.129   9.557  12.904  0.3659 -0.4133  0.4273
19390W        W35864   9.118  15.138   4.224  0.2176  0.2639  0.2346
19391W        W35865   6.323  10.212  12.218  0.0061  0.0879 -0.2194
19392W        W35866  10.539   9.252  13.361  0.0030 -0.1813  0.3205
19393W        W35867  14.936   9.490  11.333  0.2677 -0.4350  0.4320
19394W        W35868   3.995  16.658   2.225  0.0448 -0.0511 -0.0174
19395W        W35869   6.821  13.942   3.345 -0.1145 -0.2358  0.0783
19396W        W35870   1.866  16.133   3.951 -0.2406 -0.0659 -0.2635
19397W        W35871   1.338  12.498   4.849 -0.0942 -0.0000  0.1097
19398W        W35872  12.945  17.812   2.962 -0.0741 -0.0988 -0.0027
19399W        W35873   9.698  10.773  12.432 -0.0147  0.1892  0.0679
19400W        W35874  11.779  10.820   3.069  0.1839  0.0577 -0.3203
19401W        W35875   8.144   3.206  11.554  0.2984  0.1586  0.3159
19402W        W35876   4.994  15.381   1.001 -0.1073 -0.2237 -0.1130
19403W        W35877   3.074   1.320  12.070  0.3768  0.0510 -0.3352
19404W        W35878   9.945   7.700  10.739  0.2949 -0.0647  0.0417
19405W        W35879   7.908  10.126  10.850 -0.1408 -0.3287  0.3173
19406W        W35880  12.940   5.570   0.408  0.1264  0.1223 -0.1861
19407W        W35881  15.549  17.309   0.380 -0.0198  0.2172  0.0914
19408W        W35882  13.748   5.100  13.140  0.2314  0.2089  0.0812
19409W        W35883  13.235   7.808   0.403 -0.2202 -0.2856  0.2255
19410W        W35884   0.085   8.522   5.354 -0.1087 -0.0564  0.0236
19411W        W35885   5.311  16.805  13.655 -0.0176 -0.1537 -0.2444
19412W        W35886   3.133   8.669   4.819  0.1147  0.0825 -0.4008
19413W        W35887  10.807  14.800  10.706 -0.2185 -0.1082 -0.4586
19414W        W35888  10.968  12.690  10.249 -0.0893  0.0633 -0.0728
19415W        W35889  14.646   8.454   0.938 -0.0228 -0.0874  0.1516
19416W        W35890  13.929   1.654  11.378  0.1469 -0.2608  0.0820
19417W        W35891  17.521   3.301  11.383 -0.0877 -0.0756  0.0527
19418W        W35892   3.175   6.810   0.061 -0.0551 -0.0114 -0.3689
19419W        W35893   6.500  17.199   1.684  0.1701  0.2542 -0.0198
19420W        W35894   7.135  13.703  14.652  0.6028 -0.0955 -0.3198
19421W        W35895   8.120   8.781   2.555  0.1529  0.0975  0.0676
19422W        W35896   2.655   6.608  13.230  0.0440  0.0816 -0.0712
19423W        W35897  15.770   5.457   1.217  0.1521 -0.1490 -0.1055
19424W        W35898   2.275  17.100   2.762 -0.3911 -0.1532  0.1923
19425W        W35899   2.433  14.204   3.591 -0.0635  0.0409  0.0787
19426W        W35900  18.307  13.375   3.889  0.0184  0.1155 -0.0763
19427W        W35901  13.720  17.620  13.159  0.3152 -0.0430 -0.0227
19428W        W35902  17.844   3.588   4.001  0.0672 -0.2280  0.4090
19429W        W35903   1.369   4.603  14.811 -0.2916 -0.0792  0.2042
19430W        W35904  12.004  12.749  12.273  0.1734 -0.1404 -0.1957
19431W        W35905   5.746  14.141  11.131 -0.1719  0.0176 -0.0104
19432W        W35906   7.005   4.433  13.124 -0.1657  0.1414 -0.1954
19433W        W35907  18.898  11.689   2.040  0.2737  0.0632 -0.2269
19434W        W35908  17.372  13.057   0.659 -0.0325  0.2812 -0.1786
19435W        W35909   5.631   8.034  13.134  0.0164  0.0389 -0.1470
19436W        W35910   0.667  12.029  13.058 -0.1628 -0.0552  0.0605
19437W        W35911   0.930   7.511  14.586  0.2876  0.0703 -0.1693
19438W        W35912  13.360  12.138   0.993 -0.0659  0.1163  0.2269
19439W        W35913   7.925   0.790   4.125 -0.2480 -0.0635 -0.4875
19440W        W35914   8.085   9.951   4.771  0.1526  0.0597 -0.0396
19441W        W35915  11.219   8.602  13.163  0.3933 -0.1745  0.3577
19442W        W35916   1.968   2.162   1.865 -0.3328  0.0967 -0.0021
19443W        W35917   5.165   0.105  12.123 -0.0362  0.0689  0.0526
19444W        W35918  14.076  17.408   4.784  0.2651  0.1570 -0.1346
19445W        W35919  13.550   4.650   4.600  0.0750 -0.0012  0.0824
19446W        W35920  18.535  15.901  12.868 -0.0523 -0.0441 -0.1353
19447W        W35921   8.553  17.810   0.384  0.0380 -0.0585 -0.0002
19448W        W35922   6.821  15.263   5.331  0.3442  0.0038 -0.1806
19449W        W35923   0.860   7.726   3.234  0.2629 -0.1426 -0.1239
19450W        W35924   5.591  16.255  11.411 -0.2879 -0.1841 -0.1670
19451W        W35925  14.870   8.935   3.190 -0.0933 -0.1581  0.2723
19452W        W35926   3.029  15.978  13.137  0.1616  0.2466  0.2274
19453W        W35927   0.499   2.904   4.548  0.1974  0.0521  0.2084
19454W        W35928  14.032   9.904   4.437 -0.1069 -0.2049  0.4231
19455W        W35929  17.433   9.400  11.627  0.0594 -0.0128 -0.2194
19456W        W35930  18.065  14.804   0.738  0.1958  0.1090  0.3635
19457W        W35931   9.473   8.874   3.525  0.5143 -0.0302 -0.0339
19458W        W35932  10.047   2.743   1.813  0.2356  0.0392 -0.0775
19459W        W35933  13.330   6.554  12.854  0.1402  0.0834  0.3850
19460W        W35934   6.151   7.919   3.949 -0.1250 -0.2587  0.0907
19461W        W35935  12.311   5.180   3.566  0.4852  0.0584  0.1174
19462W        W35936  11.331  18.763   4.224  0.1364  0.1211 -0.2214
19463W        W35937  11.367   0.747   3.100 -0.0957  0.5622  0.1597
19464W        W35938  18.717   7.674   2.553 -0.0897  0.1196 -0.1251
19465W        W35939  17.038   9.763  10.763  0.3139  0.1815 -0.4324
19466W        W35940   3.424   5.954   0.232 -0.2256  0.1488  0.2808
19467W        W35941  18.512   0.333  12.162 -0.2527 -0.1982 -0.0738
19468W        W35942   9.039  19.007  14.518  0.2554  0.0434  0.0493
19469W        W35943   1.692   9.271   3.339  0.2758  0.1271 -0.2939
19470W        W35944  13.213  17.228  10.982  0.2331 -0.3344  0.0010
19471W        W35945  12.951  10.851  14.174 -0.1550 -0.0868 -0.4019
19472W        W35946   9.999   1.394  13.020 -0.2608  0.3590 -0.0682
19473W        W35947   5.076   2.361   0.018  0.1240 -0.0843  0.2421
19474W        W35948  17.304   2.639   2.930 -0.0232  0.0293  0.0116
19475W        W35949   4.167   6.387  12.559 -0.0269  0.0251  0.1306
19476W        W35950  18.306  13.303  12.947 -0.2770 -0.1061  0.1608
19477W        W35951  11.019   8.928  14.547 -0.0540 -0.2716 -0.0482
19478W        W35952   1.888  13.509  11.743 -0.0411  0.2184  0.0057
19479W        W35953   8.894  12.217  10.935 -0.0449  0.0134 -0.3611
19480W        W35954  13.022   1.079  12.438 -0.2375  0.1348 -0.4040
19481W        W35955   1.189  16.615  12.703  0.0070  0.1434  0.0023
19482W        W35956   0.581   5.303  10.947  0.6139  0.0612  0.1401
19483W        W35957  15.963  18.354  11.242 -0.0094  0.0298  0.0101
19484W        W35958  18.553   6.352   2.370  0.0058 -0.0779 -0.0157
19485W        W35959   5.945   8.786   4.762  0.0947  0.1849 -0.2824
19486W        W35960   0.378   2.166  11.699 -0.0444  0.0270 -0.0988
19487W        W35961   5.156  10.466   3.403  0.0620 -0.1582 -0.0431
19488W        W35962  11.158  13.245   3.260  0.0375 -0.2251 -0.1001
19489W        W35963  17.124  11.179   2.169 -0.3021 -0.0304  0.0941
19490W        W35964  12.934   0.554   2.299 -0.3139 -0.1471  0.1245
19491W        W35965  11.316  12.507   4.497  0.3831 -0.0823 -0.0044
19492W        W35966  11.155   4.782   4.504 -0.0301 -0.1142  0.1686
19493W        W35967  12.929  15.615  14.472 -0.3458  0.1415  0.0054
19494W        W35968  18.254  12.742   1.710  0.2169  0.1645 -0.3274
19495W        W35969   2.658   5.421   2.410 -0.4728 -0.0279 -0.3439
19496W        W35970   8.417  14.588   3.017  0.2116  0.0052  0.1262
19497W        W35971   6.981   7.927   9.667 -0.1793 -0.1591 -0.1550
19498W        W35972   1.295  14.048   5.118 -0.1015  0.0523 -0.1339
19499W        W35973   8.850  13.899  13.425 -0.0749  0.2474  0.0924
19500W        W35974  13.924  17.131   1.549  0.1159  0.1232  0.1342
19501W        W35975  10.002   1.876   1.379  0.0683  0.3968 -0.4172
19502W        W35976  12.410  10.839   9.532  0.4465  0.0370  0.2742
19503W        W35977   0.956   1.204   0.228 -0.2779 -0.1078 -0.0940
19504W        W35978   8.986   2.264  10.718  0.0049  0.0417 -0.1057
19505W        W35979  13.776   4.516   1.818 -0.0374 -0.0194  0.0405
19506W        W35980  11.707   0.081   0.905  0.0766  0.1818  0.0742
19507W        W35981  13.109  16.559  12.741 -0.1086 -0.2029  0.0873
19508W        W35982   4.966   2.877  11.853  0.0067 -0.0234 -0.0569
19509W        W35983   0.725  14.397   5.904 -0.3343  0.4741 -0.0109
19510W        W35984  11.992  15.387  13.985 -0.3097  0.3328 -0.0856
19511W        W35985  13.969  13.074   4.034 -0.1056  0.2305 -0.0712
19512W        W35986   1.488   0.161  11.435 -0.3089  0.1180 -0.1919
19513W        W35987   2.258  18.516  11.331  0.0606  0.1195  0.0964
19514W        W35988   7.107  13.418  12.552 -0.0878 -0.2009  0.0301
19515W        W35989  17.923  17.631   4.830 -0.2019 -0.0863 -0.0381
19516W        W35990   8.756  14.570  11.373  0.1394  0.1730 -0.0810
19517W        W35991   6.553   3.607   3.581  0.1542  0.1309 -0.3430
19518W        W35992  15.112   9.332  14.256 -0.0754 -0.1114  0.1912
19519W        W35993  11.118   8.266   0.323  0.2319 -0.1148 -0.0560
19520W        W35994   8.420  19.081   0.334  0.0331 -0.3084 -0.1441
19521W        W35995  14.547   9.070   2.898 -0.3851  0.1643  0.0325
19522W        W35996  16.360  17.201   9.613  0.3029  0.1851  0.0507
19523W        W35997  14.756   5.591  11.548 -0.1269  0.0915 -0.3204
19524W        W35998  13.994   3.840  10.428 -0.0116  0.1314  0.1053
19525W        W35999  18.936   7.481   2.126  0.0155 -0.1650 -0.4688
19526W        W36000   0.898   4.827   1.465 -0.0243  0.0557  0.2285
19527W        W36001   8.015  18.967  12.462  0.1554  0.0148 -0.2747
19528W        W36002   6.973  12.432  14.694  0.2622 -0.0307 -0.0150
19529W        W36003  10.867   0.763  14.100 -0.2936  0.1765  0.0747
19530W        W36004   2.042   1.940  11.841  0.0194 -0.0222  0.0418
19531W        W36005   9.314   8.248  14.879  0.0844  0.3593 -0.0811
19532W        W36006  15.497  13.692   1.176  0.2570  0.0217 -0.2395
19533W        W36007   4.106   0.692  11.799 -0.3039 -0.1170  0.1885
19534W        W36008  12.124   9.033   0.456  0.0407  0.0285  0.1468
19535W        W36009  10.232   3.109  12.145 -0.3113  0.0793 -0.2421
19536W        W36010   2.717  15.413   9.637 -0.0368  0.2079 -0.0496
19537W        W36011  13.247   3.875   1.088 -0.0160  0.0081  0.0549
19538W        W36012  17.821   7.147  10.530 -0.0535  0.0208  0.0969
19539W        W36013   7.840  15.616  11.492  0.3612 -0.0164 -0.1931
19540W        W36014  16.284   5.420   2.559 -0.3456 -0.0815 -0.2080
19541W        W36015   8.362   3.403  11.943 -0.1400  0.0012 -0.1092
19542W        W36016  19.369   4.911   3.520 -0.2819 -0.2377  0.1041
19543W        W36017   1.568   4.234  11.293 -0.1552 -0.0505  0.1631
19544W        W36018  13.035   5.142  13.614 -0.1696  0.0891  0.0904
19545W        W36019  14.796   7.064   2.412 -0.0248  0.0522  0.1342
19546W        W36020  17.022   5.030  10.587 -0.0779 -0.0327 -0.2127
19547W        W36021   1.004  10.866  13.912 -0.1528  0.2775  0.1536
19548W        W36022  14.009  11.271  11.922  0.1136  0.0122 -0.0643
19549W        W36023  11.976   3.323  14.598  0.1141 -0.2221  0.2253
19550W        W36024  10.252   8.435   0.408  0.0925  0.0169 -0.1092
19551W        W36025  16.668   9.911  12.873 -0.1506 -0.1340  0.0408
19552W        W36026   6.720   4.864  14.304 -0.0762  0.0863  0.2003
19553W        W36027  18.818  18.487   5.121  0.2172  0.1297 -0.0729
19554W        W36028  18.823   1.507   1.403  0.5262 -0.0191  0.2048
19555W        W36029   0.988   9.461  14.390 -0.1053 -0.0054  0.0856
19556W        W36030  17.930   1.244  13.129  0.2582  0.3729 -0.1005
19557W        W36031   0.523   0.947   0.271 -0.0426 -0.1487 -0.5257
19558W        W36032   2.656  15.260   5.042 -0.0668  0.0356 -0.2592
19559W        W36033   5.573  16.779   1.772 -0.1099  0.0613  0.1503
19560W        W36034   7.050  17.387   4.705  0.2287 -0.1648  0.0505
19561W        W36035  14.108   1.776   4.826  0.1431 -0.2825  0.0943
19562W        W36036  18.048   0.870   4.761  0.1587  0.1013  0.2271
19563W        W36037   0.165  18.640  13.654  0.0517  0.1280 -0.0171
19564W        W36038  13.298  17.137   5.966  0.0056  0.1398 -0.0405
19565W        W36039  11.424   5.188   2.927  0.3503 -0.0275 -0.1700
19566W        W36040  13.588  18.561   5.981  0.1016  0.0865  0.1162
19567W        W36041  12.328   5.839  12.517  0.4643  0.0515  0.0788
19568W        W36042  14.835  12.731  13.528 -0.3096  0.0082  0.2318
19569W        W36043   5.306  14.625  10.225  0.2895  0.0295 -0.1459
19570W        W36044   1.780  16.012  13.243  0.0049  0.0507  0.3237
19571W        W36045   0.787  16.013   2.948 -0.0201 -0.1066  0.2181
19572W        W36046   8.597  16.833   3.864 -0.3626 -0.1265  0.1229
19573W        W36047   2.035   2.106   4.090 -0.1536  0.3536  0.0945
19574W        W36048   0.223   0.228   3.902 -0.1583  0.2283  0.4406
19575W        W36049   8.393   7.714   2.398 -0.1348  0.0610  0.1076
19576W        W36050   6.576   4.180  12.236 -0.2368 -0.0234 -0.4357
19577W        W36051   3.173   5.966  12.856 -0.2185 -0.3216  0.0327
19578W        W36052  12.218   7.685  11.693 -0.0619 -0.0370 -0.1392
19579W        W36053  13.550  18.727   4.884 -0.2965 -0.0395 -0.0437
19580W        W36054  14.961  11.129   0.390  0.0249  0.3633  0.1521
19581W        W36055   3.702  13.432   5.658  0.0174  0.5557 -0.0029
19582W        W36056   0.191   7.013  11.346 -0.1314 -0.0208  0.0160
19583W        W36057   2.389  18.427   0.115 -0.0956 -0.3475  0.1901
19584W        W36058   3.162   4.516   0.078 -0.0633  0.0259  0.2071
19585W        W36059  17.820  13.938  13.673 -0.3867  0.0022  0.2480
19586W        W36060   8.594  14.891  13.312 -0.0162 -0.0358 -0.0228
19587W        W36061  11.704   0.891   3.444 -0.0858  0.1553 -0.1055
19588W        W36062  16.491  17.687   0.619  0.1321 -0.3538 -0.1826
19589W        W36063  13.038  17.495   4.247 -0.0495 -0.2389  0.2501
19590W        W36064  19.232   5.921   1.573 -0.0225  0.1945  0.0644
19591W        W36065   3.418  16.742  13.865 -0.0552 -0.0511  0.1058
19592W        W36066   0.160  13.591   5.315 -0.0426  0.0585 -0.1684
19593W        W36067   7.694   0.922   3.685  0.4306  0.0889  0.0310
19594W        W36068   8.437  16.068   1.470 -0.2382 -0.0594 -0.1195
19595W        W36069  12.762   1.058  14.008 -0.0497 -0.0857 -0.1134
19596W        W36070   2.008   6.614   4.037 -0.0164 -0.1655  0.1648
19597W        W36071  15.335   0.896   1.508 -0.1337  0.0008 -0.1405
19598W        W36072  13.769   3.761   0.582  0.1912 -0.2113  0.2366
19599W        W36073   3.243  11.210  14.289  0.2805 -0.2905  0.2760
19600W        W36074   7.426  16.506   4.729 -0.2494  0.1975 -0.2815
19601W        W36075   6.487   2.642   4.548 -0.2874 -0.3025  0.1826
19602W        W36076   7.315  15.558  12.217 -0.4294  0.2557  0.1643
19603W        W36077   3.281   0.152  10.189  0.1176  0.3276  0.2229
19604W        W36078  13.869   5.044   0.003  0.0574  0.0418 -0.2245
19605W        W36079   8.724   3.917  11.649 -0.2418  0.2122 -0.0478
19606W        W36080   6.793   1.577   2.461 -0.1292  0.1098 -0.0602
19607W        W36081  14.652  11.567   2.098  0.1369 -0.0560 -0.2262
19608W        W36082  10.897  12.325   1.462 -0.1780  0.0642  0.2025
19609W        W36083  13.375  10.883  11.151  0.1817 -0.1263  0.1532
19610W        W36084  17.783  10.563   5.379 -0.0603 -0.3438  0.2304
19611W        W36085   1.134   4.249  13.279 -0.2064  0.1860  0.3247
19612W        W36086  10.387   3.555  13.835  0.0972 -0.1509  0.0456
19613W        W36087  11.584  18.116   3.218 -0.3605 -0.2549 -0.1496
19614W        W36088   2.606   3.429  12.290  0.2363 -0.3824  0.0589
19615W        W36089  19.210  15.404   3.693 -0.0663  0.0828  0.1352
19616W        W36090   4.457   0.068  14.112 -0.1939 -0.1287  0.0401
19617W        W36091   9.548   5.022   2.486  0.2625  0.0150  0.3068
19618W        W36092   8.006   4.379  10.605 -0.0868  0.1649  0.2084
19619W        W36093   4.625  10.390   0.381 -0.2974 -0.0103 -0.0641
19620W        W36094  18.384  10.682  11.431 -0.1991 -0.2738  0.1825
19621W        W36095  18.430  11.767   5.855  0.0262 -0.4533  0.0581
19622W        W36096  18.227   2.427  13.790  0.2052  0.2765 -0.0961
19623W        W36097   0.362  18.657   0.461 -0.0904 -0.1451  0.0155
19624W        W36098   7.257  18.608   2.153  0.0602 -0.2794 -0.0402
19625W        W36099  10.980   1.890  11.166 -0.4453  0.1633 -0.1253
19626W        W36100  18.311  15.264   4.794  0.1646  0.1284  0.1835
19627W        W36101  18.800  10.599   0.286 -0.1389  0.0105 -0.0542
19628W        W36102   3.818   2.046  11.975  0.1833 -0.1894 -0.2037
19629W        W36103  10.615  16.311   9.604  0.0447 -0.0504  0.0132
19630W        W36104  19.353  19.155   1.988 -0.0102  0.2227  0.0683
19631W        W36105   4.573  12.756  13.623  0.0145 -0.0985  0.1317
19632W        W36106  13.067  17.910   3.963 -0.3920  0.0356 -0.1826
19633W        W36107  13.151   0.819   4.503  0.1223 -0.1517  0.4332
19634W        W36108   0.931   5.928  11.705 -0.1160  0.0175  0.2936
19635W        W36109   5.629  18.481  13.879 -0.2444  0.0894 -0.0075
19636W        W36110   7.844  14.321   4.273  0.0247  0.2036 -0.1795
19637W        W36111   3.583   0.707   4.756 -0.0536  0.1009  0.1449
19638W        W36112   2.958  11.655   3.123  0.2465  0.0346  0.0817
19639W        W36113  13.456   0.162   0.607  0.3026  0.4292 -0.0709
19640W        W36114  17.385   6.428   2.053  0.1513  0.2495 -0.1325
19641W        W36115   2.951   9.577   2.017 -0.1020  0.1324 -0.1551
19642W        W36116   5.251   0.791  11.998 -0.0191 -0.2371  0.0683
19643W        W36117   1.272   2.189   9.491  0.2022  0.0103  0.3664
19644W        W36118  14.109  11.424   3.772 -0.1532  0.2607  0.5552
19645W        W36119  15.906   1.829   3.874  0.4124  0.2480 -0.1517
19646W        W36120  19.350   9.682  13.090  0.2469 -0.1108 -0.4138
19647W        W36121  11.116   0.256  11.779  0.0468 -0.0331 -0.1558
19648W        W36122  17.478   1.752   4.755  0.2942  0.1052  0.0807
19649W        W36123  14.598   8.470  11.877 -0.1492  0.0115  0.3279
19650W        W36124  14.903   4.193   1.904 -0.1186  0.0060 -0.1903
19651W        W36125   1.211   8.998  14.339  0.2267  0.2226  0.0192
19652W        W36126   7.360  18.136   5.023  0.2632  0.0130 -0.4741
19653W        W36127   4.164   6.199   1.463 -0.0993 -0.0171  0.2212
19654W        W36128   9.260   8.834  10.913  0.1618  0.0163 -0.4292
19655W        W36129  18.797   2.426  11.807  0.0303  0.3308  0.2998
19656W        W36130   5.435   0.535   0.162 -0.3655 -0.1047 -0.0615
19657W        W36131  18.574  13.615   2.133  0.0795 -0.1203 -0.0782
19658W        W36132   2.893   2.433   1.807 -0.0628 -0.2537  0.1482
19659W        W36133   7.152   6.498  14.171 -0.2775  0.0310 -0.0228
19660W        W36134   8.846   6.385  12.410  0.0457 -0.0147 -0.0279
19661W        W36135  18.800   3.739  10.341  0.0145  0.1569  0.0596
19662W        W36136  14.920   7.510   2.522  0.1518  0.2847  0.0444
19663W        W36137  18.741  10.749  11.778  0.0483 -0.1284 -0.2508
19664W        W36138  10.553  10.423  11.211  0.1167 -0.5639 -0.2452
19665W        W36139   2.815  15.986  14.136 -0.1765 -0.1283 -0.0427
19666W        W36140  18.225   3.398   0.503  0.1791  0.0273 -0.1752
19667W        W36141  14.305  15.182   5.799  0.0725  0.0833 -0.0028
19668W        W36142  17.925  15.806   2.531 -0.0487  0.0720  0.0466
19669W        W36143   0.075   5.242   9.943  0.0906 -0.1012 -0.0923
19670W        W36144   2.762  10.768  11.338 -0.2312 -0.0643 -0.2101
19671W        W36145  10.951  13.505   1.546  0.1266  0.1998  0.0623
19672W        W36146   1.427  11.046   1.675  0.0954  0.0137 -0.0073
19673W        W36147   4.234  17.212  11.711 -0.1654 -0.1828 -0.0435
19674W        W36148   5.756  16.539  14.631 -0.0003 -0.0746  0.0514
19675W        W36149   7.140  12.322  11.956 -0.1915 -0.1158  0.1272
19676W        W36150  10.025  17.422  11.817  0.0066  0.3842 -0.0899
19677W        W36151   9.549   6.069  11.937 -0.2313  0.0893  0.2965
19678W        W36152   6.221  10.127  14.370 -0.1024  0.2167 -0.5197
19679W        W36153   8.482  13.393  14.577 -0.0532  0.3240 -0.0472
19680W        W36154  17.906  10.153  11.075  0.3980 -0.0964 -0.0437
19681W        W36155   9.577  18.089   3.097 -0.1122  0.0467 -0.0090
19682W        W36156   7.587  12.595   3.450 -0.0145  0.2510 -0.0027
19683W        W36157  10.823   7.834   0.639 -0.1198  0.4087  0.1245
19684W        W36158   3.040   3.234  12.121  0.0435 -0.1111  0.0733
19685W        W36159   6.797   9.081   3.044  0.1934  0.0705 -0.4602
19686W        W36160  12.811   9.345  12.312 -0.1581 -0.1158 -0.0347
19687W        W36161  16.112  10.967  13.105  0.0057  0.1638  0.1813
19688W        W36162   3.322  15.736  14.388  0.0964  0.1350 -0.1091
19689W        W36163   4.228  15.541   1.615 -0.1419  0.0431 -0.2865
19690W        W36164   4.951  16.670   1.447  0.1104  0.0185 -0.0027
19691W        W36165   5.519   5.154  13.621  0.3132 -0.3554  0.2149
19692W        W36166   5.755   0.334   2.275  0.0219 -0.1012 -0.3006
19693W        W36167   0.181   4.818   4.977 -0.0859  0.0339  0.0724
19694W        W36168   2.202  12.113   3.783 -0.2098 -0.2783  0.1033
19695W        W36169   7.931   7.465   1.125 -0.0413 -0.3110  0.0078
19696W        W36170   7.964   5.083   0.888  0.0494  0.2540 -0.0033
19697W        W36171  14.098   1.428  13.300 -0.2170  0.1261 -0.0890
19698W        W36172   0.852  16.153  13.509 -0.2519  0.0041 -0.0649
19699W        W36173   4.310  10.893   4.596 -0.4477 -0.1846  0.3658
19700W        W36174   6.635   0.385   2.412  0.0063  0.1232 -0.0549
19701W        W36175   3.268  10.063  12.269  0.1434  0.0998  0.3886
19702W        W36176  11.848  17.009   2.969 -0.0444  0.0863 -0.1985
19703W        W36177  14.698  10.666  13.627  0.2110  0.2129  0.0445
19704W        W36178  14.713  18.505   3.148  0.2297 -0.0970  0.1399
19705W        W36179   4.276  18.426   1.738  0.0204  0.0882  0.0505
19706W        W36180  13.274   6.549  12.070  0.1643 -0.4579  0.0291
19707W        W36181  12.506   3.422  12.789 -0.0809  0.4220 -0.1791
19708W        W36182   4.971   6.666  13.505  0.0679 -0.0245 -0.2175
19709W        W36183  16.314   8.909   0.847  0.3453  0.1592  0.0360
19710W        W36184   9.635  18.339  11.309 -0.2336 -0.1916 -0.1330
19711W        W36185  19.004  16.462   3.780 -0.2477 -0.0138  0.1748
19712W        W36186  18.302  17.960   4.711 -0.0120  0.2749  0.0434
19713W        W36187   6.141  12.895   1.915 -0.1751  0.0407  0.2883
19714W        W36188  18.958  16.697  11.302  0.0817 -0.1922 -0.2165
19715W        W36189   4.023   7.106  11.424 -0.1506 -0.2725  0.0229
19716W        W36190   3.204  12.132  14.088  0.1700  0.1219  0.0995
19717W        W36191  17.311  13.974  12.053  0.1212  0.2194  0.1668
19718W        W36192   0.934  17.659  14.345  0.1659 -0.1012 -0.1604
19719W        W36193   6.590  15.916   1.565 -0.1743  0.1906  0.0281
19720W        W36194  15.168  16.474   2.036  0.1110  0.1280  0.1098
19721W        W36195  18.835  16.741   5.013 -0.1372  0.2650 -0.2867
19722W        W36196   3.649  10.459   3.575  0.1872  0.0845 -0.2892
19723W        W36197   4.695  15.303   1.412  0.0686 -0.5033  0.0603
19724W        W36198  15.568  14.483   3.091 -0.3326  0.0950  0.1044
19725W        W36199  12.107  16.324   0.699  0.0913  0.2051  0.2138
19726W        W36200  10.518   7.018  13.335 -0.3149  0.0765  0.1117
19727W        W36201  11.625   1.936  12.746  0.0468 -0.2558  0.3691
19728W        W36202   4.505   6.991   0.096  0.1015  0.0193 -0.1309
19729W        W36203  15.672  14.561   0.753  0.0744 -0.1784 -0.3843
19730W        W36204   8.058   6.513   1.863 -0.2834 -0.1099 -0.1822
19731W        W36205  19.255   2.238  11.649  0.4140  0.3257  0.2434
19732W        W36206  19.317  19.223  14.768 -0.1142  0.2175  0.0228
19733W        W36207   8.475  13.830  14.826 -0.3335  0.1690 -0.1067
19734W        W36208  12.509   7.163   0.343  0.2800  0.0516 -0.0180
19735W        W36209   4.076   4.586   0.384 -0.3528 -0.0039 -0.2139
19736W        W36210   5.210  13.569   1.495  0.0935  0.1495 -0.0564
19737W        W36211   8.320   7.610  14.353 -0.3098 -0.2055 -0.0239
19738W        W36212   4.443  13.375  14.703 -0.2912 -0.0319  0.0562
19739W        W36213  18.886  18.233   4.668 -0.2482  0.2868  0.2668
19740W        W36214   9.116   6.533  12.770 -0.2045 -0.0581  0.2043
19741W        W36215   2.138   8.730   0.820 -0.3618 -0.0225  0.0886
19742W        W36216  15.270   3.352  14.110  0.2444 -0.1348  0.2786
19743W        W36217   3.649  12.365  11.245  0.0695  0.3063 -0.1076
19744W        W36218  15.246  19.148   3.309 -0.2666 -0.0889  0.0127
19745W        W36219   6.258  15.036  13.725  0.1564 -0.1766 -0.1655
19746W        W36220  18.072   5.927  10.564  0.3119  0.0896  0.2989
19747W        W36221   5.283   3.589   0.451 -0.0492  0.0096 -0.4197
19748W        W36222   4.082   2.141   1.131 -0.1862  0.0401 -0.1508
19749W        W36223  15.208   1.832  11.208  0.0453  0.2847 -0.3101
19750W        W36224  11.864  12.819   2.605 -0.2998  0.0958 -0.2407
19751W        W36225   0.192  14.863  13.931 -0.1425  0.0577 -0.2397
19752W        W36226  15.558  11.611   2.222  0.0094 -0.2093 -0.0813
19753W        W36227   1.730  12.505  11.650  0.0134  0.2779  0.0472
19754W        W36228   3.941  10.066  13.771  0.0991  0.3442 -0.0253
19755W        W36229  15.844   1.984  12.671 -0.1990 -0.0182 -0.2445
19756W        W36230  10.479   4.383  11.752  0.0278 -0.3793 -0.0321
19757W        W36231   7.211  13.944  14.249  0.3647 -0.2159  0.5170
19758W        W36232   9.799  12.872  14.345  0.2215 -0.0168  0.0253
19759W        W36233   3.721  16.252   2.178  0.0296  0.2355  0.0899
19760W        W36234   5.169   2.194   4.369 -0.1457 -0.0072 -0.1297
19761W        W36235   7.722   4.919   2.063  0.1054 -0.0178  0.0564
19762W        W36236   4.678  15.397   3.761  0.0275  0.2889 -0.1054
19763W        W36237   4.304  17.978   3.768 -0.1180 -0.1235  0.0454
19764W        W36238   0.523   0.944   3.780 -0.1376  0.2142 -0.1402
19765W        W36239   8.616   8.144  13.698  0.0959  0.1945  0.1516
19766W        W36240  12.982  13.783  14.480 -0.1864 -0.1467 -0.2523
19767W        W36241   8.539   2.889  12.367  0.0795 -0.0010 -0.2529
19768W        W36242   1.059   9.709   1.482  0.0293 -0.1989  0.1906
19769W        W36243  14.736   4.005   1.447 -0.1918 -0.1066  0.2605
19770W        W36244  17.580  18.019   0.082 -0.2060 -0.1441  0.0057
19771W        W36245   5.534   1.731   1.128 -0.1631  0.1714  0.2648
19772W        W36246   1.271   3.636  10.558 -0.1997 -0.0077  0.1901
19773W        W36247  10.117   5.451   1.752  0.3651 -0.3184 -0.0372
19774W        W36248  15.694   3.498  11.375  0.0691  0.0779 -0.0972
19775W        W36249   0.032   4.980   1.102 -0.1705 -0.1096  0.2053
19776W        W36250  13.412  11.534   1.873  0.2558 -0.1109 -0.0295
19777W        W36251  11.579   0.284  14.374  0.3144  0.0945  0.2535
19778W        W36252  10.762   3.960   0.024  0.0701 -0.2143 -0.0331
19779W        W36253  18.845  12.604  14.358  0.1723 -0.4889  0.3095
19780W        W36254   4.091  19.237   2.874  0.2834  0.2349 -0.3319
19781W        W36255  12.512   7.188  13.083  0.1123 -0.3412 -0.2812
19782W        W36256  11.664   3.867  13.233 -0.3183  0.2679 -0.2461
19783W        W36257   5.697   8.549  11.103  0.0383  0.0902  0.1812
19784W        W36258  17.245  16.017   1.323 -0.0937 -0.1928 -0.1822
19785W        W36259  18.146  10.050   2.522 -0.4004  0.0854  0.0823
19786W        W36260   4.015   2.284   4.146 -0.2259 -0.0294 -0.2126
19787W        W36261   2.170  17.905   0.456  0.1431 -0.2057 -0.0196
19788W        W36262   9.944   6.782   1.462  0.1605 -0.2559  0.3036
19789W        W36263   9.355  12.360  13.575 -0.3438  0.1065 -0.2176
19790W        W36264   8.326  15.979   2.380  0.1155 -0.2308  0.0807
19791W        W36265  17.393   6.907   1.979  0.0014  0.3914 -0.1145
19792W        W36266   8.019  10.710   4.280 -0.1753  0.1953  0.0259
19793W        W36267   3.624   8.049   3.130 -0.1515 -0.2433  0.1938
19794W        W36268   2.656  12.839  11.465  0.0690  0.4377  0.3801
19795W        W36269   9.182  15.014   5.829 -0.0235 -0.1748 -0.0986
19796W        W36270  14.520  11.991   0.243 -0.2136  0.1219  0.1099
19797W        W36271   3.491  10.985  12.318 -0.1251  0.1967 -0.2040
19798W        W36272  18.323  18.989   3.621 -0.3407  0.2287  0.4412
19799W        W36273   1.423  18.976   0.191  0.0782  0.0632  0.1256
19800W        W36274  14.627  14.301   2.622 -0.1752  0.3126 -0.0691
19801W        W36275  14.485  16.043   2.731 -0.0597 -0.3569  0.2048
19802W        W36276  18.067  16.158  13.514 -0.2920  0.2109  0.0144
19803W        W36277   8.374  13.695   0.396  0.0988  0.0760 -0.1048
19804W        W36278   6.388  13.800   3.058 -0.0109 -0.0435 -0.0999
19805W        W36279  14.333  10.829   4.890 -0.0738  0.0637 -0.0661
19806W        W36280   5.198  19.383   3.168 -0.1282 -0.3331 -0.3904
19807W        W36281   4.443   7.566   1.923 -0.0397 -0.1964  0.0221
19808W        W36282   6.292  17.454  11.719  0.1303 -0.1129 -0.0506
19809W        W36283  17.066   7.098  11.396  0.0383 -0.0960  0.1666
19810W        W36284  16.725   8.278   1.129 -0.2200 -0.1459  0.2250
19811W        W36285   7.084   4.603  14.069  0.3762 -0.1341 -0.2898
19812W        W36286  12.827   4.736  13.260 -0.0515 -0.0351 -0.1587
19813W        W36287   1.186  13.561   4.478 -0.0717 -0.1582  0.1965
19814W        W36288   4.434  15.277   5.604  0.2833  0.0115  0.0021
19815W        W36289   1.091   0.159   2.048  0.1117 -0.0279 -0.2973
19816W        W36290   5.501   9.262  13.481 -0.2826  0.2906 -0.2392
19817W        W36291   0.558   0.150  11.872 -0.0066 -0.1611  0.1077
19818W        W36292  10.791   0.932   3.080 -0.2549  0.1099  0.1989
19819W        W36293  13.492  18.484   0.970 -0.2568 -0.2541  0.2466
19820W        W36294  13.357   5.203   0.914  0.2257  0.3466  0.0729
19821W        W36295  16.911   3.185  13.250  0.1883  0.1269  0.1184
19822W        W36296   3.563   7.079  11.290  0.1458 -0.0486  0.4071
19823W        W36297   9.018  19.302   2.244  0.2881  0.0857 -0.2533
19824W        W36298  10.531  10.171   2.596  0.2503  0.0203  0.0223
19825W        W36299   2.648   7.908  10.928 -0.0594 -0.0986  0.0714
19826W        W36300   6.048   1.124   5.219 -0.0176  0.0465  0.1233
19827W        W36301   6.778  18.355  14.296 -0.0834 -0.1669  0.1006
19828W        W36302   6.162  19.080   1.085 -0.0691  0.2283 -0.0903
19829W        W36303   8.572  15.401  10.540  0.0208  0.0258 -0.0257
19830W        W36304  13.578   4.176  12.644 -0.2360 -0.2210 -0.1459
19831W        W36305  11.836  18.094  10.398 -0.4144  0.1114 -0.2650
19832W        W36306  15.130  14.620   0.494 -0.1137 -0.0225 -0.2327
19833W        W36307   3.041  13.117   4.215  0.0269 -0.1441  0.1152
19834W        W36308  13.868  18.926  11.796 -0.0034  0.2248 -0.0975
19835W        W36309   3.183   0.640  12.859 -0.4611  0.2885  0.0224
19836W        W36310  19.201   2.108   4.024 -0.0077  0.2991 -0.2878
19837W        W36311  11.251   6.378  11.170 -0.0745 -0.1364  0.2342
19838W        W36312   8.124  11.215   9.251  0.1472  0.1438 -0.0652
19839W        W36313   2.584  10.413  13.784 -0.2468  0.0912 -0.5523
19840W        W36314   4.620  19.208   2.901  0.0784  0.0288  0.1306
19841W        W36315  13.973   2.481  12.199 -0.0529  0.3970  0.0899
19842W        W36316   9.975  18.941  13.495  0.0877  0.2566 -0.2137
19843W        W36317   3.326  16.287  13.628 -0.4799  0.2387 -0.0959
19844W        W36318   6.358   4.992  11.153 -0.1760 -0.0003 -0.2645
19845W        W36319  17.874   3.836  13.646  0.3664  0.0436 -0.2328
19846W        W36320  17.633   1.230   4.824  0.3027  0.0389 -0.2101
19847W        W36321   1.476  12.428   5.351 -0.1904  0.2188  0.0012
19848W        W36322   2.812  10.211  12.493 -0.2434 -0.2074  0.2227
19849W        W36323  11.585  18.847  13.934  0.1924  0.0129  0.0950
19850W        W36324  17.354   7.356   0.462 -0.1904  0.1281 -0.0517
19851W        W36325   7.948  16.961   1.425  0.3210  0.1039  0.0719
19852W        W36326   2.996   0.705   2.210  0.3411 -0.1588  0.1412
19853W        W36327  18.056  12.050   5.063  0.0027 -0.4845 -0.2143
19854W        W36328  14.572  11.681  12.488  0.0907 -0.0479 -0.0801
19855W        W36329  18.100  15.668  12.641  0.2916 -0.1273  0.1047
19856W        W36330  18.392   5.532  12.497  0.1497 -0.0490 -0.1251
19857W        W36331  16.800  11.552   0.321  0.1597 -0.0395 -0.2091
19858W        W36332  15.479   4.187   0.576 -0.0655  0.1610 -0.2088
19859W        W36333   3.875  13.673  14.220  0.1064  0.0399 -0.1739
19860W        W36334   9.881  15.444   3.621  0.1240  0.2482 -0.1127
19861W        W36335  18.681   9.086  13.522 -0.3164  0.0713  0.0994
19862W        W36336   3.604   6.636   4.800 -0.1128 -0.1033 -0.2772
19863W        W36337  16.134   2.973  12.552 -0.3167 -0.3883  0.0564
19864W        W36338  17.592  16.969  12.478 -0.0096  0.0245 -0.1456
19865W        W36339   6.028  17.431   4.565 -0.3683  0.0414  0.1281
19866W        W36340  13.245   0.244  12.247 -0.1805 -0.1510  0.0509
19867W        W36341   9.028   5.283   0.199  0.2079  0.0427 -0.2144
19868W        W36342   8.771  10.726  14.362 -0.2445  0.0190 -0.2147
19869W        W36343  10.882  10.593   1.108 -0.3359  0.0407  0.0850
19870W        W36344   0.639   7.106  13.978 -0.3006 -0.2071  0.2683
19871W        W36345   3.609  18.977  10.981  0.0272 -0.1719  0.3323
19872W        W36346  16.724  11.181  14.828  0.1419  0.0226  0.0493
19873W        W36347  13.790  17.937   1.149  0.0524  0.2329  0.0120
19874W        W36348  16.130   8.202   3.271  0.0243 -0.3077 -0.0293
19875W        W36349   3.711  13.375  11.419 -0.0230  0.1286  0.1637
19876W        W36350  17.796   0.643   4.171 -0.1134  0.1354 -0.2851
19877W        W36351  16.735   1.383   9.608  0.0639  0.2448  0.0948
19878W        W36352   2.499   0.641   2.882  0.0017  0.1055 -0.4273
19879W        W36353   8.599  19.208   3.725  0.2950 -0.0323  0.2457
19880W        W36354  16.374  17.658   4.949  0.1013  0.1927 -0.0111
19881W        W36355   2.583  15.709  13.194  0.4354  0.1274 -0.2374
19882W        W36356   0.379  17.768   2.037  0.4865  0.1224 -0.1513
19883W        W36357  10.019  11.155   4.001 -0.2885 -0.2983 -0.2851
19884W        W36358   8.495  19.291  10.203  0.0375  0.0048 -0.1324
19885W        W36359  16.343  17.104   0.605  0.0174  0.1262  0.2338
19886W        W36360  10.380   7.547   4.486  0.3350 -0.0067 -0.1705
19887W        W36361  10.565   0.886   4.718  0.1443 -0.0733  0.3345
19888W        W36362  17.934  12.204   3.363  0.1325 -0.1098  0.2262
19889W        W36363   6.048  11.457   3.897  0.3723  0.1639  0.0193
19890W        W36364  17.318  12.579   4.533  0.0648 -0.3313  0.2649
19891W        W36365   8.323   5.249  10.265  0.0381  0.1341  0.2015
19892W        W36366  10.819   8.764  11.020  0.4461  0.0614 -0.1501
19893W        W36367   4.218   9.139  10.439  0.1385  0.0260  0.0256
19894W        W36368   0.521  12.583  13.705 -0.0936 -0.3862 -0.2243
19895W        W36369  15.929   8.157   0.805 -0.0777 -0.1258  0.0277
19896W        W36370  11.871   5.402   4.186 -0.0138  0.1953 -0.2134
19897W        W36371  16.708  15.971  12.557  0.1965 -0.1307  0.1532
19898W        W36372  15.067   5.818   2.144 -0.2716 -0.3120  0.1801
19899W        W36373  15.252   8.175   1.527  0.2306  0.2058  0.0432
19900W        W36374  13.384  19.054   3.066 -0.1317 -0.0084 -0.0036
19901W        W36375   8.920   7.513   0.718  0.0672 -0.0907 -0.0678
19902W        W36376   6.062   1.269  13.991 -0.2350 -0.2737  0.3958
19903W        W36377  10.503   9.364   2.792  0.1025  0.1149 -0.0425
19904W        W36378  10.607   1.175   0.065 -0.4909 -0.3660 -0.1953
19905W        W36379   3.776  10.927  14.373 -0.1089 -0.3460 -0.0423
19906W        W36380   0.097  12.014  11.783  0.2546 -0.3185 -0.1708
19907W        W36381   4.605  12.910   3.830 -0.6110  0.2678  0.2547
19908W        W36382  10.982  10.027   2.831 -0.1503  0.1886  0.1775
19909W        W36383   7.180   4.319   2.130 -0.1287  0.1055  0.3051
19910W        W36384   2.109   1.927  12.810 -0.0795 -0.0973 -0.0145
19911W        W36385   4.396  19.363   1.631  0.1389  0.2014 -0.1643
19912W        W36386   4.827  19.329  11.803 -0.0097  0.2536 -0.3458
19913W        W36387  13.608  11.715   9.660 -0.2206  0.2053 -0.2580
19914W        W36388   0.452   1.348  10.483  0.2668 -0.1875  0.0484
19915W        W36389  10.783   4.124  13.738 -0.2003 -0.1935 -0.0195
19916W        W36390  11.715   2.278   3.938 -0.0025 -0.2535  0.0917
19917W        W36391   3.277  18.260  12.836  0.1630 -0.1238  0.0884
19918W        W36392   8.925   6.918   0.168  0.0411  0.0111  0.1130
19919W        W36393   4.524  12.964  11.821  0.1792  0.2486 -0.2532
19920W        W36394   6.227  13.920  11.110  0.3266 -0.2719 -0.0193
19921W        W36395  10.963   7.503  12.176 -0.0605 -0.0909 -0.0647
19922W        W36396  19.276  15.401  12.947  0.2921 -0.1277 -0.0873
19923W        W36397   7.017  10.421  11.424  0.0206 -0.0569 -0.0438
19924W        W36398   6.079   7.897  12.837  0.0179 -0.0686 -0.3134
19925W        W36399   3.361  13.902   4.894  0.2624 -0.1750 -0.1819
19926W        W36400  18.549  11.184   4.142 -0.0836  0.0463 -0.2047
19927W        W36401   4.503  12.402  14.017 -0.0129 -0.1244 -0.0443
19928W        W36402  15.724   8.393  12.642  0.0765 -0.0926  0.1378
19929W        W36403  13.805  15.692   3.257 -0.2595 -0.2120 -0.0853
19930W        W36404   4.157  13.968   1.877  0.4744  0.1617  0.1497
19931W        W36405   2.369   2.968  14.245 -0.4224 -0.1583  0.3700
19932W        W36406  11.068   0.495   2.204 -0.0119 -0.2335  0.3244
19933W        W36407  13.397  11.250   4.388 -0.0560 -0.1656 -0.1112
19934W        W36408   9.947   5.340   0.201  0.3092 -0.0875  0.1225
19935W        W36409  13.680  16.171  10.044 -0.2548 -0.2554 -0.0748
19936W        W36410   4.006  18.770   2.804 -0.1254 -0.2934 -0.0223
19937W        W36411  13.058  14.702  11.064 -0.3098  0.0076 -0.2008
19938W        W36412  13.504  11.380  11.203 -0.2666 -0.3170  0.2174
19939W        W36413   9.251  18.434   2.749  0.2302  0.2439 -0.0158
19940W        W36414  18.358  18.608   5.477  0.1787  0.2020  0.2295
19941W        W36415   3.541  17.210   0.956 -0.2719  0.0478  0.2411
19942W        W36416   2.027   4.958  14.094  0.0059  0.0670  0.0116
19943W        W36417   3.705   3.396  13.221  0.0888  0.0523 -0.3911
19944W        W36418  12.270  14.108  13.242 -0.0730 -0.0660 -0.0230
19945W        W36419   0.526   5.943  12.219  0.1110 -0.0679 -0.3639
19946W        W36420  14.969   2.178   4.524  0.0757 -0.5029  0.2841
19947W        W36421   4.905  18.640  10.330 -0.1385 -0.4240  0.0000
19948W        W36422  12.262  10.164  14.034  0.3620 -0.2365  0.3231
19949W        W36423  15.158   5.796   2.814 -0.2580  0.0646  0.0942
19950W        W36424  19.102   2.687   2.330  0.2863  0.0236 -0.3236
19951W        W36425  12.336   1.088   3.931  0.4332 -0.1375 -0.1683
19952W        W36426   2.598  19.373   0.433  0.2398  0.1756  0.3379
19953W        W36427   2.347  12.545   1.858  0.1393  0.1502 -0.2491
19954W        W36428  12.468   0.337   3.520 -0.0525 -0.3280 -0.1670
19955W        W36429   1.707  13.217   1.153  0.1076  0.2432 -0.3283
19956W        W36430  17.504  10.825   2.360  0.0447  0.1526 -0.2226
19957W        W36431  17.441   7.828  14.194  0.0398 -0.3280  0.4042
19958W        W36432   3.347   4.122  14.760 -0.0270 -0.1691  0.0694
19959W        W36433   8.400   6.740   3.461 -0.0805 -0.3083 -0.1671
19960W        W36434  17.057   1.288  12.541 -0.3303  0.1661 -0.0575
19961W        W36435   6.323   6.572   1.915 -0.4638  0.1125  0.2308
19962W        W36436   4.437  11.936  10.384  0.0169  0.1325  0.1562
19963W        W36437   4.159   7.901   4.823 -0.2001 -0.2529 -0.0604
19964W        W36438  10.774  18.131  11.974  0.0759 -0.0943  0.2502
19965W        W36439  10.089  16.259   3.229 -0.1151  0.2287  0.0963
19966W        W36440   5.283   1.812  14.299  0.1939  0.1360  0.5492
19967W        W36441   5.868   2.860   2.905 -0.1488  0.0183 -0.1316
19968W        W36442  12.068   3.091   2.048 -0.3098  0.1352 -0.0615
19969W        W36443  11.255   8.018   4.348  0.1656 -0.2016  0.2788
19970W        W36444   3.063  14.368   2.867  0.0108 -0.0647  0.0652
19971W        W36445  19.227  17.150   2.719 -0.3502 -0.0632 -0.1817
19972W        W36446  15.325  12.801   4.685  0.2304 -0.1463  0.0384
19973W        W36447  15.469   0.248  14.564 -0.0623  0.1255  0.2836
19974W        W36448  16.364  10.893  12.355 -0.0683 -0.0346  0.0904
19975W        W36449   4.077  13.706   4.800  0.0425  0.3251  0.3758
19976W        W36450  13.054   2.869   4.700  0.1342  0.3193 -0.1639
19977W        W36451  16.138  14.104  10.585 -0.0279  0.1960  0.2872
19978W        W36452   4.310  14.592  10.090  0.0465 -0.0136  0.0139
19979W        W36453   9.173   2.441  12.805  0.1755 -0.2209  0.0089
19980W        W36454  11.304   6.064   1.092  0.1506  0.0726  0.2684
19981W        W36455  14.316   4.010   1.179 -0.0920  0.3238  0.0882
19982W        W36456  15.144   3.640  13.709  0.0182  0.2213  0.1933
19983W        W36457  19.318   7.865  14.854 -0.4309 -0.0608 -0.0907
19984W        W36458  18.037   1.120   1.508 -0.1573  0.0569 -0.3440
19985W        W36459  17.705   4.061   4.833 -0.3348 -0.1256 -0.1270
19986W        W36460   2.240   4.918   5.640 -0.2850 -0.0773 -0.3285
19987W        W36461  14.481  19.230  13.080  0.0207  0.2184 -0.3505
19988W        W36462   6.100   5.284   9.448  0.0209  0.2124 -0.2656
19989W        W36463   6.870  18.760  10.553  0.1342 -0.2495  0.3896
19990W        W36464   1.289  18.714  11.163  0.1301 -0.1487  0.3007
19991W        W36465   9.659   1.644   1.916 -0.0368 -0.0273  0.0724
19992W        W36466  14.762  14.505  11.324  0.3553 -0.2149 -0.1012
19993W        W36467  10.222  14.783  12.644 -0.3590 -0.1047  0.3295
19994W        W36468  15.315   9.628   1.755  0.4512  0.1324 -0.1742
19995W        W36469  17.980  18.118   3.856  0.3133  0.0041 -0.2142
19996W        W36470  10.154  12.058   4.228 -0.1705 -0.3320  0.0480
19997W        W36471  19.371   7.931  11.390  0.2162 -0.0792 -0.1292
19998W        W36472  10.821   0.537  11.476  0.0283  0.4683 -0.2317
19999W        W36473  11.587   8.564   2.102  0.0467  0.2633 -0.2008
20000W        W36474  17.725   9.171   4.727 -0.0978 -0.0216  0.0720
20001W        W36475  11.895  13.595   1.244  0.0364  0.3307  0.2331
20002W        W36476   5.489  11.243   3.724 -0.1267 -0.3400 -0.2661
20003W        W36477   5.126   9.929   9.667 -0.1796  0.0648 -0.1255
20004W        W36478  12.623  18.035   0.807 -0.2324  0.0771 -0.0694
20005W        W36479  18.051   5.191  14.168 -0.1557  0.0400 -0.1359
20006W        W36480  11.829   3.759   2.818  0.3679 -0.0884 -0.0141
20007W        W36481   8.449   7.615  11.286  0.0466 -0.0717  0.0660
20008W        W36482  16.830   8.972   2.380 -0.3719 -0.1357 -0.1542
20009W        W36483  11.671  11.088  11.287  0.1779 -0.0254 -0.1716
20010W        W36484  11.142  10.778   3.208 -0.0190 -0.0690  0.0167
20011W        W36485  16.212  16.888  14.612  0.0068 -0.0860  0.0879
20012W        W36486   1.089  14.195   2.107  0.3397  0.0247 -0.0358
20013W        W36487  14.464   0.457   1.676  0.1615 -0.2773  0.3964
20014W        W36488  13.100  12.697   4.469 -0.2235 -0.1635  0.2503
20015W        W36489   9.953  12.970   2.407  0.0344 -0.0802  0.3240
20016W        W36490  16.582   3.544   3.459 -0.3532  0.0296 -0.0952
20017W        W36491  13.100   5.686  14.627  0.1563  0.3889  0.2249
20018W        W36492  15.486  14.497   3.869  0.0668  0.0762 -0.1565
20019W        W36493   7.368   4.147  14.031 -0.1322 -0.1289  0.0514
20020W        W36494   7.489  18.040  12.781 -0.1084 -0.1671  0.2386
20021W        W36495  14.288   7.608   3.395 -0.0244  0.0259  0.2346
20022W        W36496  15.510  12.921  10.517  0.1592  0.1141 -0.0352
20023W        W36497   9.081  11.795   1.936 -0.0836  0.0963  0.0058
20024W        W36498   8.205   4.920  12.876 -0.0163 -0.1484  0.3152
20025W        W36499  17.857   0.674  10.775  0.3085 -0.0250 -0.0095
20026W        W36500  15.306  18.569   5.020  0.1209 -0.1823  0.1467
20027W        W36501  16.717  16.651   4.953  0.2225  0.1468  0.0939
20028W        W36502  15.005   7.582   0.720 -0.2692  0.2818  0.1666
20029W        W36503  14.145   3.398   3.218 -0.2444  0.0225 -0.2426
20030W        W36504  18.659   7.217  12.492  0.1653 -0.1485 -0.1893
20031W        W36505   0.232   1.353   2.347  0.0865 -0.0107 -0.1186
20032W        W36506  17.809   6.361   3.561 -0.0824 -0.0437  0.0610
20033W        W36507  14.288  18.334   2.782 -0.2935  0.1031  0.2134
20034W        W36508  11.788   3.821  11.034  0.0249 -0.1068  0.0245
20035W        W36509   6.789   1.957  12.341  0.2050 -0.0289 -0.2213
20036W        W36510  17.905  12.759  14.434  0.1841 -0.0562 -0.1766
20037W        W36511   6.124  14.354   0.593 -0.3238 -0.1808  0.2324
20038W        W36512  12.002   3.997   0.241 -0.2847 -0.1466  0.2199
20039W        W36513   7.038  12.455   2.630  0.0355  0.1637  0.2645
20040W        W36514   0.003  11.104  11.206 -0.1511  0.3816  0.1716
20041W        W36515  13.881   2.988   3.034  0.1499 -0.2813 -0.1272
20042W        W36516  13.692  11.124  10.835  0.0778 -0.3295  0.2406
20043W        W36517  14.935   0.246  13.190 -0.1789 -0.1472  0.0461
20044W        W36518   8.714  17.391  14.551 -0.4220  0.0405  0.2253
20045W        W36519   9.540  12.156  12.076 -0.2920  0.0560 -0.0394
20046W        W36520   7.245  11.482  11.337 -0.0844 -0.0640 -0.1537
20047W        W36521  18.185  13.345  10.709  0.1754  0.1555  0.0426
20048W        W36522   1.704   0.396   0.004 -0.3684  0.0165 -0.0358
20049W        W36523  12.644   8.867   4.227  0.3778 -0.0290 -0.0161
20050W        W36524   9.932  19.032   1.628 -0.3870 -0.0913 -0.0461
20051W        W36525   6.359  10.915  14.624 -0.1031 -0.0235  0.1222
20052W        W36526   2.824   8.504  11.847  0.1797 -0.0199  0.0660
20053W        W36527  16.027   6.419   4.681 -0.0427  0.4836  0.2462
20054W        W36528   7.383   0.013   4.545  0.0345  0.2712 -0.2619
20055W        W36529   0.959   2.124   1.705 -0.1862 -0.0600 -0.2131
20056W        W36530  13.730  17.112  12.295  0.1069  0.0523 -0.0879
20057W        W36531  11.013  17.628  11.905 -0.2482 -0.2286 -0.0158
20058W        W36532   4.634   2.880  12.350 -0.0956  0.5408 -0.1607
20059W        W36533   6.168   3.375  12.822  0.0944 -0.3465 -0.1875
20060W        W36534   7.481  15.275   3.861 -0.2956  0.0300 -0.2290
20061W        W36535  11.714   4.383   1.562 -0.0568  0.0593 -0.1400
20062W        W36536   4.859   8.276   2.433  0.1427 -0.3783  0.1437
20063W        W36537  16.814   0.419  14.348  0.0051 -0.0992  0.0143
20064W        W36538  12.884   1.880   4.342  0.1425  0.1649  0.3679
20065W        W36539   5.924  13.801   4.133 -0.0265  0.0520  0.0469
20066W        W36540  16.742  13.758   5.459 -0.2814  0.1524  0.1975
20067W        W36541  15.622   9.423  11.530  0.1954  0.2577 -0.2309
20068W        W36542   6.540  18.163   0.197 -0.1544  0.0541 -0.0808
20069W        W36543   8.905   8.457  12.293 -0.1664 -0.1756 -0.0949
20070W        W36544  19.093   7.985   1.502  0.4674  0.0739  0.1699
20071W        W36545   7.130  16.579   0.321 -0.2224  0.1485 -0.1260
20072W        W36546   0.883   9.429   0.082  0.0598  0.2790  0.2784
20073W        W36547  10.270  19.080  14.466 -0.1185 -0.1439 -0.1319
20074W        W36548  11.447  15.985  11.407 -0.4384  0.1186 -0.2410
20075W        W36549  18.204  13.556   1.378  0.0948 -0.2295 -0.0407
20076W        W36550  12.787  19.301   5.095  0.1278  0.3378 -0.0627
20077W        W36551   1.380   1.964   0.153 -0.1761  0.1056  0.0450
20078W        W36552   7.333   5.388  12.987  0.1893  0.0192  0.0147
20079W        W36553  12.310   5.558   0.329 -0.0260  0.0861 -0.0133
20080W        W36554   2.088  10.932   0.360  0.1118  0.0603  0.0029
20081W        W36555   3.899  16.766  12.118 -0.2028 -0.0003  0.1332
20082W        W36556   8.958   4.792  13.853  0.0391  0.2117 -0.0894
20083W        W36557   3.242  14.150  13.713  0.0888  0.2844  0.1242
20084W        W36558  16.460   6.829   3.202 -0.0627 -0.0612  0.0684
20085W        W36559  19.024  17.246   3.876 -0.0012 -0.1423 -0.1015
20086W        W36560   1.445  11.566  13.620 -0.2971 -0.0488  0.0030
20087W        W36561   6.705  10.142   1.216 -0.1078 -0.1139  0.0859
20088W        W36562   7.516   0.915  13.794  0.2106  0.0830  0.0009
20089W        W36563   4.547   1.120   1.296 -0.1806  0.0906  0.0085
20090W        W36564   4.633   6.158  10.537 -0.0678 -0.2419 -0.0475
20091W        W36565  17.026  12.241   3.210 -0.0701 -0.0157  0.2453
20092W        W36566  16.887  17.330   2.368 -0.1412 -0.0871  0.3330
20093W        W36567   7.092  17.698   3.893  0.5478  0.2006 -0.1405
20094W        W36568   8.228  10.985   4.611 -0.0055 -0.2076  0.2541
20095W        W36569  18.581  16.138   1.989  0.1183 -0.0743 -0.0748
20096W        W36570  10.486   0.723  13.739 -0.0784 -0.1551  0.1193
20097W        W36571  15.049   5.257   2.061  0.0875  0.1173  0.2083
20098W        W36572  18.448   0.618   4.606 -0.0431 -0.0303 -0.0417
20099W        W36573   5.155  10.027   4.586 -0.0172  0.0645  0.0244
20100W        W36574   0.515   3.608   4.675 -0.2624 -0.0552  0.1491
20101W        W36575  15.130  13.664   4.064  0.3433  0.0523 -0.0589
20102W        W36576   9.759  15.026  11.930 -0.2179 -0.1774 -0.2478
20103W        W36577   7.001   6.079  12.753 -0.0244  0.0714  0.0601
20104W        W36578  15.094   3.072   3.504 -0.4539 -0.0729  0.0617
20105W        W36579  17.887  14.777   4.870  0.1760  0.2042 -0.0213
20106W        W36580  13.267   7.803  12.979  0.1166  0.0835  0.1411
20107W        W36581   6.910   6.720  13.750  0.1348  0.1568  0.3156
20108W        W36582  11.364  18.223  14.197 -0.2898 -0.3862  0.2646
20109W        W36583  11.599  15.416   1.974 -0.1502 -0.1314 -0.3977
20110W        W36584  18.015   3.385  11.353  0.1569  0.0679  0.1778
20111W        W36585   5.683   3.600   1.388 -0.1645  0.0679 -0.2221
20112W        W36586  14.030  13.342   0.242  0.1211 -0.1717  0.1226
20113W        W36587  19.112  11.586  10.587 -0.1502 -0.1859  0.2949
20114W        W36588   7.926  18.487   2.171 -0.1498 -0.1718 -0.0056
20115W        W36589   3.596  15.704  10.587 -0.0840 -0.1334 -0.5159
20116W        W36590   3.965  16.588  13.745 -0.1566 -0.1725  0.1998
20117W        W36591   0.232   6.427   0.840  0.0195  0.1364  0.1420
20118W        W36592   7.490  15.373   3.376 -0.3742 -0.0141 -0.0547
20119W        W36593   4.353   4.295   1.453 -0.1669  0.0603  0.2524
20120W        W36594  17.680   8.513   1.018 -0.2570  0.0772 -0.3079
20121W        W36595  17.364   1.437  11.532 -0.1421 -0.2630  0.0660
20122W        W36596   6.724   2.287   2.827  0.0612  0.3470  0.1491
20123W        W36597   8.918   8.802  14.751 -0.1174  0.0551 -0.1518
20124W        W36598  19.232   5.042  10.783 -0.1077 -0.2937 -0.0172
20125W        W36599   7.422  15.277   0.643 -0.1755 -0.4825  0.4496
20126W        W36600  10.599  17.040  13.218  0.2869  0.0928  0.0816
20127W        W36601   3.315   4.093  13.207  0.0116 -0.2313 -0.1498
20128W        W36602   0.136  16.681  14.749 -0.0389  0.0832  0.1364
20129W        W36603   7.699  16.298  12.754  0.2350  0.0437 -0.0185
20130W        W36604  15.965  16.914  11.851 -0.2566  0.0567  0.3331
20131W        W36605  13.919   0.488  10.613  0.0982 -0.1355  0.0182
20132W        W36606  11.509  17.055  13.032 -0.2170  0.1104  0.3669
20133W        W36607   4.658  10.507   3.495  0.0928 -0.0474 -0.0221
20134W        W36608  10.998   0.913   2.543 -0.0096 -0.0749 -0.3619
20135W        W36609  14.770  13.315   3.732  0.1271 -0.1043 -0.0746
20136W        W36610   4.857   9.660   4.369 -0.0997  0.0379  0.0346
20137W        W36611  17.749  11.415  11.099 -0.0181  0.0581  0.0297
20138W        W36612  18.839  18.825  13.929  0.0255  0.1297 -0.3189
20139W        W36613  18.506   2.994  11.404  0.2621 -0.2954  0.0683
20140W        W36614   1.969   7.375  10.517 -0.0716  0.0792  0.0117
20141W        W36615  15.011  16.160   3.623  0.0790  0.1893  0.7409
20142W        W36616  14.968  17.024  12.962  0.0664  0.0982 -0.2861
20143W        W36617   4.336   7.281   9.722  0.1991  0.1424 -0.0233
20144W        W36618  13.282  15.517   2.475  0.1991 -0.4170  0.0460
20145W        W36619  10.627   2.770  12.199 -0.2332  0.1157  0.3978
20146W        W36620  13.319  17.431   0.391 -0.2945  0.2777 -0.4433
20147W        W36621  15.569   8.651   5.350  0.3416 -0.2944 -0.1771
20148W        W36622   0.335  17.840  12.529  0.0061 -0.1465 -0.0848
20149W        W36623   0.304  15.455  14.056 -0.3694 -0.0846  0.3388
20150W        W36624  11.223   8.493   4.297 -0.2016  0.3076  0.0803
20151W        W36625  13.959   3.061   1.839 -0.0035  0.0165 -0.2238
20152W        W36626  16.704   4.356   1.247 -0.2067 -0.3487 -0.3183
20153W        W36627  18.945  13.069   3.090 -0.1077  0.1067  0.1934
20154W        W36628  13.217   0.905   1.058 -0.3366 -0.0900  0.1277
20155W        W36629   6.491   2.051   2.375  0.0148 -0.1200  0.2087
20156W        W36630   1.405   1.513   2.542  0.2025 -0.1673 -0.0754
20157W        W36631   4.294   9.640   1.001 -0.1465 -0.3036  0.1245
20158W        W36632  18.194  14.366  10.837  0.2556 -0.2088 -0.2727
20159W        W36633  18.849  16.767  12.450  0.0636  0.1191  0.3097
20160W        W36634   8.424   7.675  13.777  0.3675 -0.3480  0.0422
20161W        W36635   7.573   8.136   0.959 -0.0546  0.1964 -0.0342
20162W        W36636   9.502   6.101   8.998 -0.1340  0.0485  0.1331
20163W        W36637  17.915  14.075  10.128 -0.0731  0.1399  0.0594
20164W        W36638  15.281  15.098   3.885 -0.1483 -0.0846  0.1461
20165W        W36639   4.681  11.870  11.497 -0.3124 -0.2456 -0.2685
20166W        W36640  12.103   8.719   2.255  0.0636  0.2634  0.1888
20167W        W36641   8.878  12.754   4.370  0.5073 -0.0176  0.3081
20168W        W36642   1.462   9.966  13.838 -0.0405 -0.2850 -0.1714
20169W        W36643   2.831   5.520   4.684  0.1377  0.0236  0.0056
20170W        W36644  13.944  18.160  11.307  0.0007  0.0482  0.2390
20171W        W36645  18.118  10.410   5.044  0.0047  0.0944 -0.0524
20172W        W36646  14.812  14.624  12.346  0.2396 -0.1171 -0.2753
20173W        W36647   4.075   2.181   0.611  0.0827  0.4286  0.1396
20174W        W36648  19.096  10.481   2.347  0.0040 -0.2024  0.0127
20175W        W36649   1.290   5.057   3.833  0.1719  0.0647  0.0148
20176W        W36650  18.272  19.330  14.784  0.2865 -0.3109  0.0962
20177W        W36651   8.580   5.481   0.228  0.0499 -0.0707 -0.0790
20178W        W36652  12.679  17.487   3.249 -0.1006 -0.0390 -0.2158
20179W        W36653   3.566  17.886   0.079  0.2171  0.3027 -0.1833
20180W        W36654  15.992  17.454   4.207  0.0615  0.3462 -0.3393
20181W        W36655  18.759  11.100   2.063 -0.2246 -0.0963 -0.0200
20182W        W36656  16.755  10.066   3.396  0.4231  0.2518  0.2330
20183W        W36657  13.339  10.211   1.397 -0.0322  0.2942 -0.1822
20184W        W36658  15.137  11.656   1.844 -0.0066  0.1299  0.1859
20185W        W36659   0.156  14.239   2.026 -0.1961 -0.0993 -0.1157
20186W        W36660  11.320  16.588   1.030 -0.2337 -0.0261  0.1772
20187W        W36661   5.065   5.958   3.461 -0.0317  0.1384  0.0274
20188W        W36662   9.612  13.941   1.084  0.2205  0.1096 -0.2516
20189W        W36663   2.884   7.382  13.514 -0.4377  0.0050  0.2024
20190W        W36664   3.985  16.057   5.393 -0.1560  0.0791 -0.0406
20191W        W36665   9.989  10.630  10.595 -0.0852  0.0117 -0.1884
20192W        W36666   7.030   0.456  14.476  0.1610 -0.1038 -0.1584
20193W        W36667   6.954  10.747   4.263  0.2983 -0.2167  0.1915
20194W        W36668   3.103   7.323  11.532  0.2374  0.1340  0.3948
20195W        W36669   0.239   8.915   0.783 -0.2933 -0.1411 -0.0267
20196W        W36670   2.710  19.048  10.607  0.3097 -0.0450  0.0700
20197W        W36671  13.301   7.024   2.218  0.2332  0.0157  0.1326
20198W        W36672   7.002   9.315   4.446  0.1322  0.1486 -0.1697
20199W        W36673   0.286   2.068  14.176  0.3774  0.2021 -0.2496
20200W        W36674   2.181   2.640  12.377  0.0419  0.3401  0.3458
20201W        W36675  18.888   7.274   0.577 -0.0404  0.0291 -0.1618
20202W        W36676  18.149  12.175   2.547  0.0753 -0.0091  0.0172
20203W        W36677  11.902  17.258   5.163  0.2539 -0.1861  0.0863
20204W        W36678  13.256   5.534  12.259  0.2170 -0.1549 -0.4978
20205W        W36679  10.849  13.656  13.036 -0.0042  0.1505 -0.0359
20206W        W36680  16.388   2.054   4.139  0.1619 -0.2491 -0.2515
20207W        W36681  11.561   6.889   2.543  0.1101 -0.1752 -0.1429
20208W        W36682   1.910   6.279   5.348 -0.3290  0.0425  0.2923
20209W        W36683   7.431  11.767   9.416 -0.0826 -0.2817 -0.0886
20210W        W36684  19.170   2.543  12.515  0.2103  0.1576  0.1634
20211W        W36685  10.095   2.379   1.451  0.2749 -0.2173  0.1002
20212W        W36686   4.518  16.093  14.308 -0.1167  0.0587  0.0509
20213W        W36687   1.776   4.813   1.353  0.1095  0.0272 -0.0906
20214W        W36688   9.228  14.122  13.779  0.0299  0.2379 -0.0058
20215W        W36689  10.700   3.958   4.875  0.1015 -0.0166  0.2982
20216W        W36690  14.705  12.789   3.810 -0.1449  0.3338 -0.1634
20217W        W36691  15.690  13.192   0.396 -0.1406 -0.0629 -0.1762
20218W        W36692   0.212  15.294  14.543 -0.1046 -0.0972 -0.2049
20219W        W36693   6.187  16.679  12.138 -0.2404 -0.2968 -0.0350
20220W        W36694   6.922  19.155  12.048  0.3035  0.0164 -0.1589
20221W        W36695   4.284   1.741   0.974 -0.1943 -0.0919  0.0232
20222W        W36696   7.158   7.316   0.541  0.1661 -0.2478 -0.0997
20223W        W36697   3.282   1.239   4.562 -0.0956  0.0412  0.1329
20224W        W36698  16.291  17.256  11.825 -0.3679  0.4561 -0.2134
20225W        W36699  15.132  14.932  11.347 -0.5200 -0.2439 -0.0158
20226W        W36700   5.929  13.702  13.499 -0.2692 -0.2156 -0.0211
20227W        W36701  16.442  16.439  11.057 -0.3482  0.0677 -0.0065
20228W        W36702   2.862  17.518  14.879 -0.1022 -0.1284 -0.0458
20229W        W36703   6.877  14.732  10.647 -0.1730  0.1801  0.1731
20230W        W36704  18.871   2.079  11.354  0.0579  0.2854  0.0516
20231W        W36705   3.112   3.878  11.535 -0.2287 -0.4006 -0.1860
20232W        W36706   6.496   7.599  13.653 -0.0620  0.2013  0.0263
20233W        W36707  10.025  18.193   3.423  0.0947  0.3898  0.0106
20234W        W36708  12.280  16.933  11.399 -0.1080 -0.1951 -0.0324
20235W        W36709  15.599  17.197   1.768  0.0767  0.1452  0.1726
20236W        W36710   7.706  11.629   4.187 -0.1766 -0.1219 -0.1791
20237W        W36711   8.881  17.633   9.469  0.3451  0.2881  0.0243
20238W        W36712   3.998   9.219   2.320  0.1671  0.2501  0.2240
20239W        W36713   4.849   2.989   1.115  0.0185 -0.1839 -0.1719
20240W        W36714   5.527  13.635   1.903  0.0687 -0.0245  0.2745
20241W        W36715  16.926  14.210   1.198  0.1303  0.0579 -0.0754
20242W        W36716  12.104   8.092  12.260  0.0513 -0.0304  0.2855
20243W        W36717  14.647  15.170   3.127 -0.0931 -0.0613  0.3041
20244W        W36718  17.534   2.586   0.456 -0.0117 -0.0423  0.0747
20245W        W36719   4.478  10.215   3.162 -0.1029 -0.2050  0.3061
20246W        W36720  14.572   2.503  12.406 -0.2339  0.1642 -0.1791
20247W        W36721   7.891   8.428  10.522  0.1011  0.4480  0.0856
20248W        W36722  10.906  15.171  14.841 -0.1140 -0.2687  0.1362
20249W        W36723   9.660  17.808   0.324 -0.2129 -0.1024  0.0857
20250W        W36724   3.675  11.563   4.988 -0.0157 -0.0313  0.2913
20251W        W36725   1.965   3.448  11.353  0.0516  0.3567 -0.1131
20252W        W36726  17.135   6.142   4.219  0.0829  0.3416 -0.0429
20253W        W36727  13.188   1.674   4.735  0.4304  0.1933 -0.0467
20254W        W36728   1.152   2.910  11.923 -0.0665 -0.2917  0.0417
20255W        W36729   2.334  18.705  12.732  0.0511 -0.1374  0.1386
20256W        W36730   1.939  12.945   3.541  0.0931  0.1235 -0.2933
20257W        W36731  18.677  13.565  12.186  0.3463 -0.2213 -0.0374
20258W        W36732   0.583   1.771   1.468  0.5432 -0.2488  0.0694
20259W        W36733  14.352  18.381   4.843 -0.1959 -0.1196  0.0360
20260W        W36734   3.463  13.169  11.956  0.3431  0.3072 -0.0670
20261W        W36735  18.812  11.705   3.448  0.0325 -0.3375  0.0457
20262W        W36736  14.045   1.960  12.193  0.1296  0.1241 -0.0136
20263W        W36737  16.050   6.536   3.214 -0.6671 -0.5612  0.2959
20264W        W36738  13.261   7.935  13.735  0.1847 -0.2694 -0.0209
20265W        W36739  12.758  17.651  12.177  0.1518  0.0408 -0.0286
20266W        W36740  10.521  14.297   2.516 -0.0911 -0.1100 -0.2760
20267W        W36741   3.028  14.789  13.403 -0.1995  0.2402  0.0602
20268W        W36742  17.169  15.284   3.188  0.3389 -0.0176 -0.0353
20269W        W36743  13.761   9.965   1.496  0.0014  0.1008  0.2165
20270W        W36744   4.977   3.739  10.707 -0.1574  0.1725 -0.0044
20271W        W36745   3.071  10.287  13.111  0.0789 -0.0485  0.0797
20272W        W36746  11.249  15.328   4.707 -0.1103 -0.1837  0.0184
20273W        W36747   8.284   5.102  13.377 -0.2812  0.1055 -0.1662
20274W        W36748   4.782   7.828  11.077 -0.0129 -0.2816 -0.0033
20275W        W36749  13.072   7.508  14.432  0.0857  0.1471 -0.4736
20276W        W36750  10.445   9.318   2.202 -0.0283  0.0970  0.0529
20277W        W36751  11.401  14.259  13.245  0.1194 -0.3019 -0.1711
20278W        W36752   1.676  15.042  14.336  0.2321  0.1411  0.1049
20279W        W36753  12.245   2.563  14.234  0.0527  0.1889 -0.1873
20280W        W36754   9.239   0.312   1.020  0.2061 -0.0813  0.0447
20281W        W36755   8.110   7.312  10.394  0.0944  0.0059 -0.0391
20282W        W36756   5.401   2.122   2.352 -0.1381  0.2083 -0.1009
20283W        W36757   6.790  15.533  12.238 -0.0401  0.0827 -0.0987
20284W        W36758   7.575  17.300  12.058  0.0434 -0.3505 -0.0392
20285W        W36759   5.142  13.972   1.985  0.0117 -0.4941  0.1896
20286W        W36760   9.653   2.978  10.545 -0.1067 -0.0518 -0.1389
20287W        W36761  18.305  11.238   0.885 -0.1096  0.0733 -0.0141
20288W        W36762   2.346  13.228   2.398 -0.0510 -0.3272  0.2045
20289W        W36763   1.142  13.909   1.116 -0.0493 -0.0920 -0.0258
20290W        W36764  17.816   4.475  10.860  0.3486  0.2963  0.3518
20291W        W36765  14.341   7.971  13.836 -0.0500  0.0279 -0.0951
20292W        W36766  16.018   6.786  12.099  0.2372  0.0506  0.3696
20293W        W36767  13.530   8.444  14.674  0.3766  0.0911  0.0864
20294W        W36768  14.153   5.827  12.613 -0.0549 -0.0934  0.2115
20295W        W36769   1.843  14.430   3.439 -0.2607  0.0984  0.1014
20296W        W36770   7.419  16.751  13.557  0.0621 -0.0134  0.1483
20297W        W36771  11.304  12.046   1.682  0.0264 -0.3096 -0.3147
20298W        W36772  11.567  14.745  13.280 -0.4152 -0.0454  0.0408
20299W        W36773   5.926   6.668   2.884 -0.0781  0.1146  0.3791
20300W        W36774  16.407   3.819   2.103  0.1530  0.2996 -0.0782
20301W        W36775   0.346  15.679   0.651  0.1343 -0.0030  0.0322
20302W        W36776  12.745  10.069   3.142  0.0553 -0.2410 -0.3063
20303W        W36777  16.092  10.351   5.769 -0.0169  0.0827 -0.0523
20304W        W36778   5.759   7.619   1.239 -0.1075 -0.0909  0.3021
20305W        W36779   3.815  17.182   1.766 -0.3606  0.0809 -0.3632
20306W        W36780  17.131  13.010  12.435  0.3226 -0.1681  0.0248
20307W        W36781  18.898  18.379  11.017 -0.3681 -0.3788  0.0336
20308W        W36782  14.037   0.079   4.744  0.3782 -0.2813  0.2718
20309W        W36783   5.131  12.186   0.730  0.0136  0.0810  0.0063
20310W        W36784   2.460   4.215  11.258 -0.2304 -0.1880 -0.0570
20311W        W36785  14.472  14.060  11.232 -0.1422 -0.2342 -0.0697
20312W        W36786  16.760   2.197   5.466 -0.0923  0.1028  0.1018
20313W        W36787   5.328   7.715   1.897 -0.1088 -0.1569  0.1158
20314W        W36788   9.595  10.930   4.506  0.1373  0.2036  0.1498
20315W        W36789  15.794  10.388   0.539  0.1661 -0.1108 -0.2816
20316W        W36790  17.953  18.430   3.359 -0.3089 -0.2081  0.2826
20317W        W36791  17.884   1.672   5.078  0.1514 -0.1179  0.1531
20318W        W36792  16.378   4.304  10.505  0.1643 -0.2355  0.3940
20319W        W36793   5.768   1.217  12.716  0.2089  0.0999 -0.1804
20320W        W36794   8.128  14.487  13.464  0.0232  0.5352  0.1263
20321W        W36795  17.369   2.034   1.607 -0.0311  0.0846  0.0431
20322W        W36796  15.899  17.472   4.731 -0.3214  0.1132  0.1123
20323W        W36797  14.001   4.060   2.122  0.2416 -0.0009  0.0434
20324W        W36798  19.002   3.173   1.133 -0.0508 -0.1267  0.1032
20325W        W36799  13.155  15.811   3.849 -0.0583  0.0704  0.3830
20326W        W36800   4.315   8.055  14.872  0.0863  0.2137  0.0153
20327W        W36801  12.845  13.157  12.596  0.1170  0.4086 -0.0689
20328W        W36802  14.375   6.440  14.308  0.1462 -0.0373 -0.0822
20329W        W36803   7.167  18.702  12.102  0.1359 -0.2470 -0.1005
20330W        W36804  16.851  10.890  12.373 -0.1597 -0.4216  0.0640
20331W        W36805  13.606   9.515  10.026 -0.0241  0.2388 -0.0187
20332W        W36806   8.004  10.514  11.706 -0.2346 -0.0945 -0.1053
20333W        W36807   7.844  19.228  11.517 -0.2114 -0.1935  0.4857
20334W        W36808   6.199   2.424   1.597 -0.1954 -0.1078 -0.1360
20335W        W36809  18.300   3.765  12.134  0.2017 -0.2074 -0.0621
20336W        W36810  19.110  12.102   5.877  0.4243  0.2007  0.2065
20337W        W36811  12.176   5.742   1.440  0.0720 -0.2629 -0.1673
20338W        W36812   0.743  17.408   4.523  0.2508 -0.0688 -0.1840
20339W        W36813   0.999   6.245   4.187 -0.0571  0.1591  0.2714
20340W        W36814  14.287   1.343   3.972  0.0082  0.1266 -0.2043
20341W        W36815   5.559   8.980   2.459 -0.0745 -0.2004  0.1314
20342W        W36816   2.696  16.454  13.227 -0.2055 -0.3886 -0.0458
20343W        W36817  18.612   3.911   0.907 -0.0381  0.0992  0.2761
20344W        W36818  10.577   7.895  13.177 -0.0980  0.0230  0.1111
20345W        W36819  13.313  10.919   5.216 -0.1686  0.1130 -0.1616
20346W        W36820  12.942   3.470   0.378  0.1094 -0.0297 -0.4037
20347W        W36821   9.824  10.579   2.672 -0.0088 -0.1656  0.2539
20348W        W36822   4.392   8.880  11.636  0.1834 -0.0250  0.1129
20349W        W36823   5.326   3.008   1.350 -0.0051  0.3954  0.1672
20350W        W36824  17.000   9.578   1.587 -0.1467  0.0281 -0.0441
20351W        W36825   7.558   2.065   3.153  0.1422  0.1376 -0.2862
20352W        W36826  16.120  14.572  13.626  0.1372 -0.1901 -0.1027
20353W        W36827   8.846   7.619   3.785  0.1294 -0.1471 -0.1604
20354W        W36828   8.949  11.565  10.296 -0.1305  0.0391  0.0689
20355W        W36829   8.237   6.012  14.821 -0.3224 -0.0011  0.0894
20356W        W36830   8.919   5.902   3.959 -0.1877  0.2061  0.1756
20357W        W36831   8.681   4.090  13.222  0.0832  0.1046 -0.1975
20358W        W36832  12.452   6.930  14.373 -0.1774 -0.0317 -0.0399
20359W        W36833   2.638  11.435   3.498 -0.0703 -0.3042 -0.1550
20360W        W36834  12.204  19.331  12.105 -0.2503  0.0270 -0.1161
20361W        W36835   5.486   7.359   0.934  0.0857 -0.2239  0.0195
20362W        W36836  14.019   4.775   2.742  0.0914 -0.0805  0.1421
20363W        W36837  15.065   6.757  13.409 -0.6509  0.2124  0.3170
20364W        W36838   7.772   0.949   0.622 -0.2933  0.0764  0.2593
20365W        W36839  12.110   8.195   3.019 -0.1723  0.0006  0.1638
20366W        W36840  17.798   7.353   3.857  0.6705 -0.0334 -0.1563
20367W        W36841  16.140   8.489   1.141 -0.1038  0.1797  0.1380
20368W        W36842   9.412  17.654   3.830  0.1333 -0.0355 -0.0522
20369W        W36843  13.350   8.094  11.395 -0.4603  0.1955 -0.2891
20370W        W36844   9.059   3.888   9.608  0.0699  0.0869  0.1266
20371W        W36845  19.382  14.069   2.633 -0.1945  0.2128  0.2216
20372W        W36846   5.899  11.934  11.041  0.0368 -0.5073 -0.1460
20373W        W36847  18.498   5.441  11.560  0.0795 -0.0174 -0.0570
20374W        W36848  11.662  14.413  11.573  0.1584  0.4182 -0.0378
20375W        W36849  14.463   1.328  10.685 -0.0009  0.1503 -0.1500
20376W        W36850   5.185   1.031  12.404 -0.1438  0.1898 -0.0188
20377W        W36851   8.893   9.846  14.468  0.0269 -0.4008  0.0269
20378W        W36852  11.555   0.922  14.147  0.0943 -0.2701  0.0717
20379W        W36853   6.651  17.146   0.172 -0.1889  0.0238 -0.3311
20380W        W36854  13.045  15.303   3.826  0.0018 -0.1872 -0.0140
20381W        W36855  16.904   9.586  14.351  0.0389  0.0271  0.0884
20382W        W36856   3.544  15.785   2.080  0.0581  0.1365  0.1163
20383W        W36857   9.460   4.890   1.238  0.2267  0.1152  0.3252
20384W        W36858   9.137   3.810   3.386  0.2577  0.2211 -0.0207
20385W        W36859  16.775   2.257   4.370  0.0315 -0.0399 -0.1625
20386W        W36860   7.641   3.494  14.357  0.0926  0.1877 -0.1102
20387W        W36861   9.045   4.347   3.507 -0.3866  0.0337 -0.2164
20388W        W36862  15.556  10.403   4.513  0.1540 -0.0879  0.0908
20389W        W36863  15.921   4.921  11.641 -0.3363 -0.2099 -0.1343
20390W        W36864  15.561   3.789  12.421 -0.3348  0.3187 -0.2980
20391W        W36865   3.097  11.570   0.829 -0.0860 -0.1102 -0.2098
20392W        W36866  15.695  18.901   5.260 -0.0305  0.4121 -0.1742
20393W        W36867   3.477  10.601   4.448 -0.1703 -0.0610 -0.0645
20394W        W36868   8.898  14.104  14.719  0.1716  0.0490 -0.3654
20395W        W36869   2.130   8.790   3.849 -0.3100 -0.3654 -0.1122
20396W        W36870  14.788   6.743  11.357  0.0059 -0.0232 -0.1935
20397W        W36871   6.844  12.798   2.187 -0.2399 -0.2137 -0.1662
20398W        W36872  17.998   0.285   2.085 -0.3812 -0.0147  0.1250
20399W        W36873   6.054   8.695  12.842 -0.0456  0.3214 -0.0662
20400W        W36874  17.997   8.965  11.670 -0.3217  0.0599 -0.2829
20401W        W36875  11.592   8.358   0.340 -0.2624  0.0426  0.3651
20402W        W36876   1.034   0.127  11.639 -0.0259 -0.1419 -0.2090
20403W        W36877  18.487   4.442  14.384  0.1590 -0.1832 -0.0665
20404W        W36878  10.841   5.668  11.340  0.0599 -0.0783 -0.0854
20405W        W36879   2.845   1.583  13.860  0.1108  0.2501 -0.2335
20406W        W36880   5.431  14.067   0.693  0.0704 -0.1869  0.0773
20407W        W36881   8.079  17.316   1.075  0.3243 -0.0071  0.3606
20408W        W36882  16.943   8.244  13.725 -0.5586  0.0136  0.0411
20409W        W36883   2.045   5.773   1.358 -0.1470 -0.0014  0.0808
20410W        W36884  16.043  10.388  10.465 -0.1593 -0.3247 -0.0259
20411W        W36885   8.814   5.774   2.264  0.0006 -0.2207 -0.0803
20412W        W36886   5.163  14.408  14.383 -0.3146  0.1936 -0.3064
20413W        W36887   4.035   6.754   1.308  0.2669  0.1280 -0.0926
20414W        W36888   0.739   5.130   1.940  0.3804  0.1948 -0.0168
20415W        W36889   9.700  17.964  10.491 -0.0894  0.2567 -0.1533
20416W        W36890  10.611  16.107   3.154 -0.3125  0.1184  0.1846
20417W        W36891   3.830   5.302  11.760 -0.1856 -0.1236  0.0869
20418W        W36892  10.169   3.505   0.519  0.1073 -0.1236  0.0927
20419W        W36893  12.640  14.442  11.566 -0.0958  0.1320 -0.1566
20420W        W36894   1.685   7.125  10.874  0.2123  0.2636 -0.2544
20421W        W36895   7.495  15.914   1.743  0.0705  0.1144 -0.1083
20422W        W36896   3.759   4.928  11.034  0.1256 -0.1051 -0.1927
20423W        W36897   1.279   9.669  13.243 -0.0038 -0.3767  0.2326
20424W        W36898  14.968   2.333   1.231  0.3349  0.2433 -0.0843
20425W        W36899  15.410  11.050   5.153  0.4172 -0.0120  0.0932
20426W        W36900  17.439   8.987  14.463  0.1189 -0.0432  0.1385
20427W        W36901   6.193  14.561   1.087  0.1127  0.2746 -0.2343
20428W        W36902  17.714  18.972   1.376  0.4350 -0.0795 -0.2274
20429W        W36903   2.445   6.536   0.205  0.0559  0.0744 -0.2733
20430W        W36904  19.200  16.807  12.793  0.0639  0.0520  0.0469
20431W        W36905   8.448  18.572   2.083 -0.2617 -0.1583 -0.1403
20432W        W36906  12.489  18.200   1.300  0.1184 -0.3963  0.0584
20433W        W36907  10.500   8.711   1.813  0.0823 -0.0547  0.0402
20434W        W36908  16.745  10.349   4.898 -0.2216  0.1806  0.0917
20435W        W36909   6.071  15.736   2.263 -0.0677  0.0048  0.1447
20436W        W36910  14.689  17.892   4.129 -0.1244  0.1942 -0.1578
20437W        W36911   4.386  11.237   2.235  0.1953  0.0465  0.1342
20438W        W36912   8.299   5.322   0.619 -0.4584  0.2146  0.1463
20439W        W36913  16.487  15.038  12.272  0.1836 -0.0132  0.0737
20440W        W36914   7.623  11.827  13.340  0.2407 -0.4316  0.2221
20441W        W36915  17.663   3.893  13.227 -0.0550  0.3757 -0.0242
20442W        W36916  15.490  15.909  11.681  0.0185  0.2695  0.2497
20443W        W36917   7.254  13.619   2.044  0.1085 -0.0757 -0.0538
20444W        W36918  12.369  13.406  13.013 -0.1984  0.0758 -0.3135
20445W        W36919  17.686  12.954   3.764  0.3004  0.0312  0.1321
20446W        W36920  12.328  14.457   5.136  0.1611 -0.4490 -0.2187
20447W        W36921  10.831  14.795   0.264  0.1722  0.3416  0.0536
20448W        W36922   8.556  16.559   3.439  0.2322 -0.2050 -0.0808
20449W        W36923  17.676   1.605   0.092 -0.2714  0.2096  0.3944
20450W        W36924   7.199  12.904   2.478 -0.2789 -0.0566 -0.0135
20451W        W36925   0.317   3.930   2.244 -0.2037 -0.1809 -0.1760
20452W        W36926  10.983   5.816  12.527  0.2088  0.2014  0.0278
20453W        W36927   4.556  16.963   1.127  0.0612  0.0699  0.0086
20454W        W36928   0.410   0.473   2.524 -0.1077  0.0793 -0.0165
20455W        W36929  17.981  16.724  11.466  0.0673 -0.4036 -0.2416
20456W        W36930   8.547  16.379  14.392 -0.2477  0.0198  0.0348
20457W        W36931   4.549  15.754  13.003 -0.0167 -0.2211 -0.1634
20458W        W36932   9.676  10.044  13.278 -0.1299 -0.0770 -0.1728
20459W        W36933   4.246  11.970   1.043  0.0735  0.1078  0.2423
20460W        W36934  13.136  17.441   4.745  0.0238  0.0136  0.0073
20461W        W36935   5.671  16.815   3.096 -0.1685  0.1195 -0.3889
20462W        W36936   6.151   7.250   4.556 -0.2295  0.3396 -0.0113
20463W        W36937   9.665   1.522  13.351 -0.1385  0.0042 -0.0874
20464W        W36938  18.352  12.632   0.675  0.0367  0.0682  0.0449
20465W        W36939  13.299   4.212  14.120 -0.0710  0.2337  0.2051
20466W        W36940   3.061  16.934  14.279  0.1843 -0.1702  0.3092
20467W        W36941  11.487   6.938  12.805  0.3675  0.1507 -0.0132
20468W        W36942   1.831  17.662   3.672  0.1528 -0.0765 -0.1759
20469W        W36943  16.959  12.945  14.684  0.3528 -0.0547 -0.1170
20470W        W36944  11.794  14.272   0.945 -0.1746  0.2162 -0.0945
20471W        W36945  16.893  14.333  13.885  0.0325  0.2209  0.1944
20472W        W36946  16.937   8.986  14.504 -0.3402  0.2701  0.4990
20473W        W36947   5.939  12.532   3.442  0.0055  0.2907  0.0756
20474W        W36948   7.400   0.153  13.268  0.1504  0.3152  0.2524
20475W        W36949  10.867  14.452   2.876 -0.1019  0.1620  0.0118
20476W        W36950   5.010   9.174   0.839 -0.3983  0.0243 -0.2947
20477W        W36951   4.852  11.684   3.269  0.1270  0.1076  0.3161
20478W        W36952   3.847  12.256  14.152 -0.2039  0.4161 -0.2597
20479W        W36953   8.313  18.164   0.054 -0.1735 -0.4025  0.1334
20480W        W36954  10.475  19.020   2.299 -0.1457 -0.0180  0.1414
20481W        W36955   2.687  12.117   4.193 -0.4414  0.3516  0.1409
20482W        W36956  15.936  16.165  11.210 -0.2947  0.4006  0.0225
20483W        W36957   0.591   9.166   2.365 -0.1934  0.1999 -0.0579
20484W        W36958  13.652  14.510  11.226  0.0934 -0.0836  0.1817
20485W        W36959   6.314   6.483  12.021 -0.1293 -0.1882  0.0302
20486W        W36960   1.839   1.285   5.322 -0.1261 -0.2980  0.2741
20487W        W36961   1.398  18.723   0.676 -0.1603  0.1360  0.0653
20488W        W36962  10.134   4.605   3.127  0.0617  0.1074 -0.0162
20489W        W36963   2.863  10.557  14.594 -0.0927 -0.0664 -0.0505
20490W        W36964  11.183  14.879  11.563  0.0585 -0.0462  0.0685
20491W        W36965  12.328   2.941   1.679 -0.0888  0.3205 -0.1500
20492W        W36966   0.230   3.807  12.074  0.0963  0.0649  0.3145
20493W        W36967   6.466   7.894  11.867 -0.0590 -0.2685  0.1147
20494W        W36968   1.629   1.045   2.364 -0.4100  0.1141 -0.0469
20495W        W36969  15.410  12.679   4.198 -0.0986  0.2219 -0.1741
20496W        W36970  10.624   7.025  10.451  0.1503  0.0321 -0.1113
20497W        W36971   8.300   1.943  14.887  0.2433 -0.0956  0.1631
20498W        W36972   3.331  16.903   2.801  0.1692 -0.1291 -0.0700
20499W        W36973   5.196  13.073   1.728 -0.3247  0.3811 -0.0581
20500W        W36974   2.380   9.515  13.002 -0.1624 -0.0224  0.0756
20501W        W36975   1.707   4.710  11.102  0.1030  0.1596  0.1790
20502W        W36976   0.855   8.603  14.564 -0.1788 -0.2250 -0.2516
20503W        W36977   0.592  16.584  11.946 -0.1619  0.2062 -0.0851
20504W        W36978   6.689   4.291   1.004  0.1105 -0.1525 -0.0391
20505W        W36979  18.975   0.087   1.942  0.1604 -0.2121 -0.3186
20506W        W36980   2.060  13.900   0.878  0.2083  0.1973 -0.0524
20507W        W36981   5.734  13.320   5.242 -0.0881 -0.1971  0.0821
20508W        W36982  16.520  11.862   5.609  0.0469  0.1704 -0.4202
20509W        W36983   6.824  14.234   4.765  0.2410  0.0888 -0.2511
20510W        W36984   4.654  15.194   0.001  0.0935  0.3153  0.1952
20511W        W36985  13.946   5.837  13.558 -0.3158 -0.1320 -0.1683
20512W        W36986   5.438  15.115  11.274 -0.0039  0.0107 -0.1025
20513W        W36987   2.367  10.475  14.736 -0.0113 -0.3514 -0.1999
20514W        W36988   0.477  19.142   0.616  0.3359  0.2803 -0.1297
20515W        W36989   7.951   3.491   1.091  0.1302  0.2196  0.4270
20516W        W36990   3.570  14.878   1.559  0.1089  0.0030 -0.2743
20517W        W36991   1.933   9.870  11.835  0.0909  0.1184 -0.0206
20518W        W36992  18.870   9.081  14.306 -0.1381 -0.1295  0.2776
20519W        W36993   6.021   8.899  11.185  0.0947 -0.1326 -0.0651
20520W        W36994  12.683   3.206   5.229 -0.0207 -0.2489 -0.2183
20521W        W36995   5.462   5.136   2.478  0.1894 -0.3772 -0.4609
20522W        W36996   4.105  17.882   2.680 -0.0523 -0.0763 -0.2075
20523W        W36997   7.132   1.354   2.820 -0.1658 -0.1128 -0.5314
20524W        W36998   7.937   5.070  14.136 -0.0451  0.1557  0.2046
20525W        W36999  16.706   4.482  14.689  0.4268  0.2199 -0.4340
20526W        W37000   3.113   4.126  12.081  0.1442  0.0691  0.1362
20527W        W37001   9.235  10.837  11.045  0.0594 -0.2851  0.0292
20528W        W37002  16.415   6.053  13.005  0.1227  0.3307  0.1203
20529W        W37003  10.838  10.500   4.994 -0.1719  0.0125  0.0462
20530W        W37004   5.987   3.048  13.237  0.1495  0.2359 -0.1228
20531W        W37005  13.985   2.455  11.511  0.1410  0.1199 -0.4355
20532W        W37006  14.227   4.563  10.715 -0.0019 -0.0522  0.0336
20533W        W37007  18.676   6.943   1.325  0.0320 -0.0784  0.0036
20534W        W37008  15.360   0.976   0.210  0.0644  0.0320  0.2530
20535W        W37009   5.622  12.526  11.129  0.1127  0.0407  0.0036
20536W        W37010   7.069  17.864  11.912 -0.1231 -0.1071 -0.4748
20537W        W37011  12.558   1.123   0.440 -0.0398 -0.2059 -0.0066
20538W        W37012  14.915   8.719  11.514 -0.0323 -0.0148 -0.1283
20539W        W37013  13.101   1.935   3.001 -0.3033 -0.1067 -0.1270
20540W        W37014  17.210  17.107   0.779  0.1222 -0.2035  0.0409
20541W        W37015  17.966  17.037   1.013  0.1904  0.0438 -0.3326
20542W        W37016  11.949  15.033  11.061  0.2773 -0.4794 -0.2735
20543W        W37017   0.498  19.008   2.206  0.1243 -0.0222 -0.2955
20544W        W37018  13.823  10.683   3.115 -0.2515 -0.2583 -0.1599
20545W        W37019  15.741   8.772  12.335 -0.3560 -0.3277 -0.0198
20546W        W37020  10.761   0.658   3.673 -0.0196  0.1534  0.0461
20547W        W37021  13.759   9.101  10.830  0.1866  0.1748  0.0577
20548W        W37022   8.606   2.821   1.656  0.2060 -0.0846  0.0665
20549W        W37023  12.476   3.847  14.194  0.1279  0.3825 -0.3040
20550W        W37024   9.185  11.140  13.717 -0.1533  0.0187  0.3254
20551W        W37025  10.434  18.377   2.132 -0.3900  0.0596 -0.2127
20552W        W37026   7.217  12.284   5.570 -0.0467  0.2278 -0.0600
20553W        W37027   8.338   1.942   0.763  0.3090 -0.3636 -0.1265
20554W        W37028  12.741   9.196   2.982  0.2276 -0.0832  0.1019
20555W        W37029   0.971   1.797  11.194  0.0469 -0.1662 -0.0328
20556W        W37030   2.478  19.337  11.856 -0.2240 -0.0103 -0.0531
20557W        W37031  16.501  16.258  13.247 -0.2899  0.0619  0.1383
20558W        W37032   4.978   7.952   3.585 -0.1847  0.1896 -0.1022
20559W        W37033  14.910   7.812  12.420 -0.1309 -0.1869 -0.2773
20560W        W37034   6.147  14.047  12.031  0.0722  0.2255  0.3577
20561W        W37035  11.266   2.222  10.756 -0.2281 -0.0874 -0.0108
20562W        W37036  16.846  14.236   2.536 -0.2536 -0.5028 -0.1432
20563W        W37037  16.824  18.175   1.998 -0.0431 -0.1432 -0.1789
20564W        W37038  11.146  10.603  11.279 -0.0484  0.2507 -0.1956
20565W        W37039   3.189  16.649   0.193 -0.0715  0.0754 -0.0336
20566W        W37040   0.674   4.766   0.162  0.1800  0.0025  0.3404
20567W        W37041   5.266   8.232   1.976 -0.2439 -0.0043  0.0862
20568W        W37042   2.472   7.889   3.798 -0.2228 -0.0404 -0.0243
20569W        W37043   0.761  11.174   2.978 -0.0087 -0.1792  0.1633
20570W        W37044   1.845   7.776   1.878  0.3202  0.0843  0.1272
20571W        W37045  17.414   3.820  13.706 -0.1388 -0.0041 -0.1723
20572W        W37046   7.441   4.517  13.331 -0.0544  0.1012  0.0829
20573W        W37047   3.285  17.406   2.949  0.2580 -0.2857  0.2200
20574W        W37048  12.139   8.505   4.613 -0.0357 -0.0228  0.0465
20575W        W37049  19.118   7.029  14.087 -0.0254  0.1654  0.2314
20576W        W37050  17.577   2.756  11.539 -0.2304 -0.0107 -0.0415
20577W        W37051   4.072   2.643  10.831  0.0959 -0.2871 -0.1453
20578W        W37052   8.708   5.540   8.891 -0.0871 -0.1422 -0.0947
20579W        W37053  16.251  12.728  10.335 -0.2371  0.0068  0.2549
20580W        W37054  17.381   3.735  12.580  0.0609 -0.0500  0.4310
20581W        W37055   3.742   8.570  12.196 -0.0613  0.1049 -0.4976
20582W        W37056   7.028   1.479   3.818  0.0499  0.0877  0.2224
20583W        W37057  18.683  14.248  11.812  0.1543 -0.1170 -0.2417
20584W        W37058  11.794   7.629   1.550  0.1956 -0.0229  0.0978
20585W        W37059   3.517  10.682   2.955 -0.4471  0.0388 -0.0115
20586W        W37060  10.668   8.904   2.986 -0.0093  0.0222 -0.3084
20587W        W37061  18.983  15.687  12.584 -0.0889 -0.2316 -0.0058
20588W        W37062   2.469  13.627   9.930  0.2440  0.0984  0.1107
20589W        W37063   1.509  10.579   4.988 -0.0028 -0.4673 -0.0807
20590W        W37064   4.478   3.430  13.569 -0.3269 -0.0810 -0.3090
20591W        W37065   0.396  13.381   3.212  0.1511 -0.1704 -0.2486
20592W        W37066   7.525  17.311   4.435 -0.1411  0.1353  0.2388
20593W        W37067  16.465   1.684   5.811 -0.1416 -0.0649  0.0950
20594W        W37068  10.219   8.543  10.753 -0.0048  0.1089 -0.1420
20595W        W37069  10.620   3.369   0.187  0.0315 -0.2181  0.3107
20596W        W37070  16.804   7.596   0.611 -0.2782 -0.2670 -0.1781
20597W        W37071  16.000  19.332   4.482 -0.2406 -0.1730  0.2567
20598W        W37072   7.477  10.847  12.631 -0.2069 -0.0561 -0.2281
20599W        W37073  13.336  10.653  12.508  0.0818  0.2484  0.1158
20600W        W37074   5.503   5.762  10.576 -0.4222 -0.1389 -0.3902
20601W        W37075  18.079   9.825   4.270  0.3479  0.1843  0.0342
20602W        W37076  14.115  14.229  12.575  0.0673 -0.2893  0.1578
20603W        W37077   1.332   3.761  13.030  0.0162 -0.1741 -0.1197
20604W        W37078   6.057   4.310  14.724 -0.2183 -0.0773  0.0491
20605W        W37079  15.362   8.087  13.052  0.1559 -0.0396 -0.2829
20606W        W37080  15.999  12.277   2.919  0.0981  0.1038  0.3004
20607W        W37081   7.848  15.529   1.653  0.0966  0.2836  0.0511
20608W        W37082  16.323   8.544   1.737  0.1293 -0.1840 -0.2137
20609W        W37083   8.082  13.705  12.358  0.2167 -0.0419 -0.1055
20610W        W37084   5.617   7.634   9.063  0.0062  0.0616  0.0367
20611W        W37085   0.387  18.190   5.389  0.0393 -0.0189 -0.1691
20612W        W37086  10.724   7.384   2.362 -0.1438 -0.5583  0.3756
20613W        W37087   1.527   7.324   5.660  0.1677 -0.0869 -0.1654
20614W        W37088  18.157  12.010   1.368 -0.0222 -0.0022  0.1237
20615W        W37089   9.444  11.166  12.316  0.1778  0.1925  0.1342
20616W        W37090   3.229   7.693  13.712 -0.3539  0.2138  0.3101
20617W        W37091  13.115  14.542  11.581 -0.0028  0.0442  0.0747
20618W        W37092   6.702   4.280  10.115  0.0893  0.1905  0.0731
20619W        W37093   2.549  13.924  14.296  0.1645  0.0307 -0.1867
20620W        W37094   5.272  17.368   0.953 -0.0593  0.0489 -0.2598
20621W        W37095  15.358  15.598  12.711  0.2319  0.1490 -0.2035
20622W        W37096   4.150   2.858   2.359 -0.0552  0.0055 -0.3317
20623W        W37097   0.879  13.307   4.830  0.1401  0.2074 -0.1310
20624W        W37098   6.652  18.642   2.301 -0.0260  0.0930  0.1255
20625W        W37099  15.260   1.408   5.095 -0.2192  0.1223 -0.1140
20626W        W37100   2.082  14.778  11.471 -0.1057  0.0888 -0.1166
20627W        W37101   7.435  16.376   2.513 -0.0526  0.5050  0.2266
20628W        W37102   1.044  14.703   3.072 -0.0632 -0.1897  0.0871
20629W        W37103  18.535  14.560   3.532  0.0629 -0.5703 -0.1244
20630W        W37104   5.498   9.286   0.747 -0.0447  0.0172  0.0400
20631W        W37105  12.788   9.134  12.913 -0.1829 -0.1877 -0.0391
20632W        W37106   7.007   0.570   0.461  0.1049 -0.1069  0.1651
20633W        W37107  12.631  18.069   4.175  0.0726 -0.0030 -0.1140
20634W        W37108  13.276   0.519  14.255  0.3503 -0.1766 -0.1552
20635W        W37109  18.848  11.395   0.748  0.2725  0.1315  0.1463
20636W        W37110   3.391  11.460  13.513 -0.1773 -0.1978 -0.1302
20637W        W37111   0.029  15.411   1.040  0.0548 -0.1723  0.2845
20638W        W37112   2.983   3.102  11.000 -0.0842  0.1394  0.0315
20639W        W37113   9.145   1.009   1.467  0.1436  0.0972  0.1293
20640W        W37114   8.192  12.249   4.897 -0.0419  0.3528 -0.2976
20641W        W37115  19.062   7.219  12.750 -0.2220 -0.2599  0.1176
20642W        W37116  18.797   9.856   3.220  0.0034 -0.1862  0.1250
20643W        W37117  14.449   1.078   0.550  0.0661 -0.3525 -0.0749
20644W        W37118  18.018   6.897   0.366  0.1090  0.0550 -0.6991
20645W        W37119  10.678   0.296   0.756  0.1024  0.3174  0.0695
20646W        W37120   6.876  10.578  12.570  0.4251 -0.0230  0.0438
20647W        W37121  10.567  17.085   4.478 -0.0284  0.2466  0.1121
20648W        W37122  14.346  13.070  14.749 -0.0350 -0.3173  0.1439
20649W        W37123  14.509   8.493  10.532  0.0149 -0.1294 -0.1579
20650W        W37124  11.755  10.053  10.715  0.2411  0.1337  0.1399
20651W        W37125   8.687   0.497  13.000  0.1600 -0.1789  0.1608
20652W        W37126  13.507   4.114   0.129  0.1753  0.0024 -0.2232
20653W        W37127   1.386   8.444   4.852 -0.3248  0.0227 -0.1494
20654W        W37128  14.276  11.195   2.670  0.2238 -0.1046 -0.1243
20655W        W37129  12.612   2.559  14.591 -0.0224 -0.6186 -0.2088
20656W        W37130  11.960   2.709  10.470 -0.0943  0.3173  0.0037
20657W        W37131  13.980  14.397   1.439 -0.1941  0.0042  0.1222
20658W        W37132   3.201   6.408   1.971 -0.2801 -0.0483 -0.1809
20659W        W37133   4.149   8.126  13.305  0.0455 -0.1956 -0.1680
20660W        W37134  19.377   5.429   4.048  0.1287 -0.1480 -0.2018
20661W        W37135   7.449   0.780   3.173 -0.1018  0.1701  0.1466
20662W        W37136   1.781  14.086   0.419 -0.1857 -0.1728 -0.1753
20663W        W37137   3.043  16.343   5.234 -0.1584 -0.0784  0.1637
20664W        W37138   4.516   5.360  11.687  0.1113  0.0318 -0.1229
20665W        W37139  10.744   4.378  13.365  0.1786 -0.1434  0.1356
20666W        W37140   6.545   3.368  14.850  0.0149 -0.4577 -0.2636
20667W        W37141   6.265   3.571   3.200 -0.3817 -0.2347 -0.3584
20668W        W37142  17.644   0.103  13.904  0.1508  0.0451  0.2180
20669W        W37143   8.290  18.251   1.393  0.1074 -0.2228 -0.0495
20670W        W37144   8.909   6.832   1.338  0.0885 -0.0016 -0.2857
20671W        W37145  17.396  18.976  13.665  0.0457  0.3284 -0.0979
20672W        W37146  12.150   8.400   1.129 -0.1789 -0.0631  0.1505
20673W        W37147  13.781   0.450  14.282  0.0181  0.2035 -0.0611
20674W        W37148   3.603   5.747  11.734 -0.3135  0.0698 -0.1363
20675W        W37149  16.300  11.654   0.558 -0.1843 -0.0608 -0.4124
20676W        W37150   7.280   6.096   2.770 -0.1527  0.0342  0.0950
20677W        W37151  13.817   0.964   2.239  0.0494 -0.1034  0.0947
20678W        W37152   6.951  15.353   0.032  0.0103 -0.2344 -0.0587
20679W        W37153  15.818   7.680   0.300  0.1599 -0.1396  0.1280
20680W        W37154  10.850   0.679   1.585 -0.1296 -0.1363  0.1704
20681W        W37155  10.116   5.503  12.387 -0.2071 -0.0048 -0.1427
20682W        W37156   7.447  16.313  10.828  0.3757  0.0337 -0.3272
20683W        W37157   1.376  15.366  13.142  0.1393 -0.0681  0.0473
20684W        W37158  15.206  17.156  13.418  0.0775 -0.0673 -0.0878
20685W        W37159   6.373   1.023   3.237 -0.0192  0.0805  0.0221
20686W        W37160   1.354   7.597  12.639  0.2149 -0.0012 -0.0764
20687W        W37161   8.828  18.752  14.100  0.2231  0.0314  0.2187
20688W        W37162  11.915   5.122   1.999 -0.2874 -0.0274 -0.1463
20689W        W37163  11.231   0.982  13.131  0.1889  0.1000  0.1236
20690W        W37164   4.475   2.765  14.064 -0.2287 -0.0280  0.0797
20691W        W37165   9.916   1.714  10.777 -0.2998 -0.3571  0.2749
20692W        W37166   7.228  16.465   3.416  0.3320  0.2367 -0.1768
20693W        W37167   8.525  12.248  12.197  0.0066 -0.4768 -0.0997
20694W        W37168  11.774   1.716  14.740  0.0474  0.1737 -0.1708
20695W        W37169   6.983   3.130   0.162  0.0291  0.2213  0.0322
20696W        W37170  18.321  10.109  12.278 -0.2383 -0.2474  0.0528
20697W        W37171  14.314  16.734  14.162 -0.0819 -0.0038  0.0806
20698W        W37172  18.991  10.118  10.823 -0.0092  0.1214 -0.0101
20699W        W37173  17.435   7.596   0.977  0.2034 -0.1399  0.1937
20700W        W37174   1.673  13.405   0.186  0.2227  0.2242  0.2091
20701W        W37175   7.675  18.528  12.962  0.4435 -0.0682 -0.5327
20702W        W37176  16.884   9.923   2.179 -0.5729 -0.2396  0.1891
20703W        W37177   4.085   9.199  13.674 -0.5054 -0.0392  0.1568
20704W        W37178   2.435  14.618   2.816 -0.1984 -0.0210  0.0782
20705W        W37179  12.120  16.453  13.343 -0.3239 -0.0192  0.0149
20706W        W37180   8.381   8.155   5.211 -0.3018 -0.0241  0.1763
20707W        W37181   2.437   0.536  14.065 -0.2954  0.0253 -0.1445
20708W        W37182  17.661  16.845   5.208  0.3989  0.2093  0.5528
20709W        W37183   4.588   0.926   0.491 -0.0703  0.3301 -0.0332
20710W        W37184  10.608  16.464  12.300  0.0987 -0.0035 -0.0975
20711W        W37185  11.150  12.928   3.674  0.0986 -0.0202  0.1330
20712W        W37186  11.461   2.259   4.712  0.1873  0.2444 -0.0104
20713W        W37187  15.307  16.721   1.576 -0.2269 -0.0112 -0.2211
20714W        W37188   1.709  18.263  13.446 -0.2381 -0.0832 -0.0170
20715W        W37189   4.551   4.626   4.797  0.0495  0.2137 -0.3140
20716W        W37190  17.480   0.496  12.291 -0.3515  0.2297  0.3190
20717W        W37191   1.644   3.158   1.071 -0.3896 -0.0384 -0.0489
20718W        W37192   9.577  15.368  14.136  0.0469  0.0028 -0.1314
20719W        W37193   0.315   0.492  14.161 -0.0333  0.2377 -0.1375
20720W        W37194  15.247  10.799   3.779 -0.2538  0.0786 -0.4792
20721W        W37195  17.731   6.498   0.011  0.2072  0.1039  0.3171
20722W        W37196  15.324   0.922  12.796  0.2706  0.0142 -0.0608
20723W        W37197  18.208   9.620  13.173 -0.6636  0.3518  0.0444
20724W        W37198   0.883   4.850  10.679 -0.2550  0.1619  0.1288
20725W        W37199  12.055   9.478   2.913 -0.0907  0.2387 -0.1535
20726W        W37200  12.932   8.122  13.252 -0.0387 -0.1531  0.0036
20727W        W37201  13.398  19.285  12.569  0.6071  0.2300  0.1151
20728W        W37202   2.325  16.131   2.940  0.1274 -0.0396  0.1639
20729W        W37203  19.062   9.592   1.156 -0.4802  0.1097  0.0451
20730W        W37204  12.376  17.910  12.425  0.1422  0.1546 -0.2724
20731W        W37205  16.825   3.296   2.862  0.1196  0.1422  0.2196
20732W        W37206  16.686  18.102   0.806 -0.0501  0.2925 -0.3545
20733W        W37207  12.591  15.268  14.687  0.1299 -0.0497  0.0907
20734W        W37208   8.446  17.314   3.934  0.0222 -0.3545  0.2128
20735W        W37209  10.452  12.922  10.950 -0.1987 -0.1985  0.2854
20736W        W37210   3.039   0.509  13.478 -0.2716 -0.1219 -0.3752
20737W        W37211   5.314  19.235   9.609 -0.1304 -0.0386 -0.0037
20738W        W37212  14.128   9.365   2.759  0.1568 -0.0697  0.3477
20739W        W37213  13.915  17.043   4.412  0.0333  0.3327 -0.3343
20740W        W37214  18.326  14.101   1.220 -0.1534 -0.1480 -0.1950
20741W        W37215   9.763  11.835  11.786 -0.0108  0.0045  0.1237
20742W        W37216   6.833   7.825   0.417 -0.0333 -0.1462  0.1207
20743W        W37217   8.189   0.802  12.029  0.1376  0.0045 -0.2661
20744W        W37218   1.430  19.019   1.890 -0.1980  0.1768 -0.0975
20745W        W37219   5.215  13.349   5.276 -0.1529  0.0102  0.0595
20746W        W37220   5.022  15.830  14.043  0.0891  0.4053 -0.1007
20747W        W37221   8.204   6.999   3.829 -0.1413  0.0766 -0.0068
20748W        W37222   1.648  18.119   0.667 -0.0281 -0.4114 -0.0734
20749W        W37223   9.423   6.030   4.064  0.2287  0.1250 -0.3593
20750W        W37224   6.829   2.387  12.164 -0.2714 -0.0219  0.1532
20751W        W37225  16.108  13.307   4.927  0.1150 -0.0066  0.0263
20752W        W37226  18.639  18.898   3.250 -0.0769 -0.5779  0.3787
20753W        W37227  10.480   6.649  14.146  0.1671 -0.2933  0.0019
20754W        W37228   0.978  11.438  13.864 -0.1158 -0.0129 -0.0537
20755W        W37229  17.768   5.687   9.658  0.1055  0.2777 -0.2225
20756W        W37230  18.025   2.590   4.777 -0.1479  0.2954 -0.0370
20757W        W37231   4.359   3.890  14.814  0.0238 -0.2210  0.2124
20758W        W37232   5.032   7.242  10.835  0.0530  0.0127 -0.2267
20759W        W37233   5.000   5.920  12.446 -0.1432 -0.2069  0.1293
20760W        W37234   8.191   1.262   4.022  0.3474 -0.2852  0.3761
20761W        W37235  12.565   8.113   1.218  0.2203 -0.0859 -0.3386
20762W        W37236  12.870  11.648   0.174  0.1984 -0.1132  0.1292
20763W        W37237  10.082  18.493   0.935 -0.1408 -0.0032 -0.3243
20764W        W37238  12.683   1.269  10.574  0.0281  0.0489  0.1572
20765W        W37239   7.558  10.432   0.642  0.1468  0.0392  0.4125
20766W        W37240   7.533  12.593   0.541  0.2452 -0.3944 -0.1832
20767W        W37241   9.416   3.660   9.951 -0.2307 -0.2201 -0.1138
20768W        W37242  10.329  16.082   5.398 -0.1461  0.3316 -0.3087
20769W        W37243   9.763   2.702   2.834 -0.0380 -0.1209 -0.0646
20770W        W37244  17.402  14.367   1.294  0.1181  0.0016 -0.3043
20771W        W37245   2.798   0.328   2.546  0.0845 -0.1855  0.2013
20772W        W37246  14.074  16.012  10.964  0.4320 -0.0482  0.0175
20773W        W37247   8.225  18.572   0.369  0.0041 -0.0125 -0.0985
20774W        W37248   8.364   8.575   4.632 -0.0945 -0.3336  0.1170
20775W        W37249  11.969  12.813  13.497  0.2155 -0.0691 -0.3380
20776W        W37250   6.365   6.652   1.336  0.0204 -0.0021 -0.2747
20777W        W37251   9.345   1.999  12.529  0.2223 -0.0813 -0.1695
20778W        W37252   2.813   9.304   2.846  0.2418 -0.2876 -0.2474
20779W        W37253  15.184   1.070   9.665  0.0273 -0.0555 -0.2013
20780W        W37254  17.671   6.883   3.796 -0.0330 -0.1159  0.1282
20781W        W37255  14.875   6.589   1.621  0.0870  0.0555 -0.0309
20782W        W37256   4.581  14.603   0.862 -0.3345  0.0902  0.2152
20783W        W37257  10.390  16.836  13.659  0.1126  0.0189 -0.0639
20784W        W37258  12.286   9.544   2.432 -0.1740  0.1659 -0.1436
20785W        W37259  16.679  10.869   1.783 -0.2099  0.0878 -0.0693
20786W        W37260   0.339   6.897   2.566  0.2946  0.2028 -0.0114
20787W        W37261  13.369   9.483   3.369  0.0147  0.1684 -0.1299
20788W        W37262  13.503   5.965   2.046 -0.3192 -0.0788  0.1080
20789W        W37263   7.326   2.307   4.814  0.1204 -0.1975  0.1474
20790W        W37264  13.677   4.909  14.477 -0.1473  0.3668 -0.0948
20791W        W37265   4.085   0.449  14.281 -0.1306 -0.1149 -0.0097
20792W        W37266   3.319   9.512  11.575  0.0232 -0.5826 -0.1264
20793W        W37267  13.105   6.675   2.535  0.1659  0.1630 -0.0056
20794W        W37268   7.138   6.668  11.493  0.0548 -0.0796 -0.2758
20795W        W37269   3.323   7.232   2.601  0.2640 -0.0547  0.3903
20796W        W37270   3.143   3.884   4.428  0.0729 -0.1091  0.1543
20797W        W37271  14.029  14.386  13.531 -0.4078 -0.3753 -0.1266
20798W        W37272   9.080  16.419  12.494  0.2953  0.0447  0.1628
20799W        W37273  15.742   6.686   3.623  0.4472  0.0878  0.0468
20800W        W37274   4.552  10.794  11.929  0.0067 -0.0281 -0.1458
20801W        W37275  11.082   4.841  14.800 -0.2079  0.0837  0.0089
20802W        W37276   4.883  17.049  11.016 -0.0651 -0.2132  0.1225
20803W        W37277  15.304  15.969   4.085  0.1410 -0.1364  0.2734
20804W        W37278  13.581  15.626  13.397 -0.1518 -0.3976  0.0028
20805W        W37279   7.499  10.182   1.637  0.0367  0.1649 -0.2425
20806W        W37280   2.439  14.241   1.068 -0.1484  0.2399 -0.4580
20807W        W37281  17.595  18.314  11.495 -0.4044 -0.2215 -0.2135
20808W        W37282   7.060  15.144   4.189 -0.1531 -0.1124 -0.3362
20809W        W37283   1.097  15.195   4.475  0.2911 -0.2089 -0.2563
20810W        W37284  15.559   6.781  11.848 -0.0249  0.0835 -0.0538
20811W        W37285  16.611   7.352   2.291  0.1939  0.3080  0.2263
20812W        W37286   0.661  18.672  14.542 -0.2402  0.1129  0.0733
20813W        W37287   5.845  16.478   1.174  0.1253  0.2258  0.4577
20814W        W37288  18.300   8.424   1.717  0.2693  0.0342 -0.0841
20815W        W37289   5.496  11.160  10.575 -0.0720 -0.1035  0.1380
20816W        W37290   5.742  15.639  14.288 -0.0463 -0.2093  0.0881
20817W        W37291  18.182   3.142  12.060  0.0720  0.1953  0.0221
20818W        W37292   4.771   8.732  10.761  0.2421  0.2137  0.3718
20819W        W37293   7.023   6.022   1.764 -0.3003 -0.4438 -0.1317
20820W        W37294   6.880  10.015   2.165  0.3929  0.1598 -0.1375
20821W        W37295  14.069  18.205   0.435 -0.0224 -0.0879 -0.1964
20822W        W37296   8.410  16.906  11.658 -0.0930  0.2155 -0.1728
20823W        W37297   7.468   2.084   2.162 -0.1483  0.1002  0.0130
20824W        W37298   4.412   6.159  14.644 -0.1596  0.3573  0.0514
20825W        W37299  12.960  13.610  12.705 -0.0625  0.2013 -0.1044
20826W        W37300   6.202   7.049  10.461 -0.0130  0.3313 -0.0459
20827W        W37301  17.615  14.402  14.846  0.2634 -0.0201  0.3143
20828W        W37302   4.732  13.190  13.230 -0.1424 -0.2008  0.0899
20829W        W37303  16.010   0.719  12.243  0.1397 -0.0317 -0.2006
20830W        W37304  14.533   1.395   2.820 -0.0436  0.1590  0.0622
20831W        W37305  14.288  18.490   2.236  0.2338  0.3242 -0.3792
20832W        W37306  16.731   5.698  13.119 -0.6593 -0.2342 -0.2459
20833W        W37307  14.618   3.555   0.288 -0.0368 -0.0412  0.2139
20834W        W37308   9.294   9.742  12.861 -0.1392 -0.2036  0.0808
20835W        W37309  12.868   0.522  12.500  0.2420 -0.1790 -0.0949
20836W        W37310  14.176   1.748  10.978 -0.1371 -0.2184  0.0493
20837W        W37311  15.918   7.042   3.265 -0.0482  0.0240  0.3990
20838W        W37312   4.672   6.932  13.176 -0.0435  0.2164  0.2233
20839W        W37313  15.576   2.964  12.586  0.3181 -0.0423  0.2062
20840W        W37314  16.291  10.752  10.212  0.0194  0.0936 -0.0629
20841W        W37315   8.620  11.694   4.454  0.0355 -0.2633 -0.4673
20842W        W37316   2.104  18.028   0.941 -0.2429  0.2523  0.2877
20843W        W37317   7.494  18.073  11.510  0.2500  0.0087 -0.1615
20844W        W37318  12.717  13.497   0.262  0.0487  0.0820 -0.0852
20845W        W37319   4.427   2.150   2.355 -0.2468  0.2063 -0.0255
20846W        W37320   3.553   6.213  14.169 -0.0416  0.1723 -0.2730
20847W        W37321   8.426  17.812   1.747  0.0888 -0.1194 -0.1190
20848W        W37322   5.598  14.654  12.583 -0.2051  0.0412 -0.1530
20849W        W37323  13.623   4.890  11.347 -0.0961  0.2426  0.0926
20850W        W37324   4.654  14.470  14.267 -0.1017 -0.2103  0.0263
20851W        W37325   2.755  18.762   0.520 -0.3883 -0.0108 -0.1077
20852W        W37326  14.785  16.886   5.145  0.0716  0.0584  0.3964
20853W        W37327   5.621   2.043   1.522  0.0671  0.1888  0.0045
20854W        W37328   5.077   5.833  14.074  0.2558 -0.1657 -0.0964
20855W        W37329  13.641   3.016  13.636  0.0402 -0.2131 -0.1687
20856W        W37330   4.396   8.580   1.116 -0.0207  0.0887  0.2438
20857W        W37331  11.074  16.338  14.805  0.0363 -0.2602  0.2444
20858W        W37332  17.834  14.313  12.207  0.0400  0.0975 -0.2672
20859W        W37333   4.042   3.569  14.456  0.0288 -0.1545  0.1287
20860W        W37334   0.504   4.871   1.044  0.5038 -0.1232 -0.1704
20861W        W37335  14.189   1.169  14.586  0.4656  0.1085  0.0149
20862W        W37336   4.356  18.643  12.493 -0.0696  0.3249  0.1300
20863W        W37337   6.495  13.468   0.946 -0.0528  0.1355 -0.2354
20864W        W37338  11.803   6.890  13.481 -0.2805  0.2115 -0.2323
20865W        W37339   1.526  12.965   1.985  0.4085  0.0617 -0.0301
20866W        W37340   4.544  15.165   4.200 -0.2780  0.1703  0.0019
20867W        W37341   6.572   9.031   4.919  0.0524  0.0101  0.1735
20868W        W37342  10.405   2.900   2.736  0.0537  0.2080 -0.1016
20869W        W37343  12.984  19.343   0.735  0.1943 -0.1856  0.0293
20870W        W37344   5.639  16.246   3.996  0.2763  0.0118 -0.2973
20871W        W37345   3.871   0.015  12.905 -0.2172 -0.1578 -0.0004
20872W        W37346  11.606  12.738   9.739  0.2246 -0.0482  0.8163
20873W        W37347   1.826  18.468   3.483  0.0328  0.0745 -0.2569
20874W        W37348  10.819   9.907  11.052 -0.1220 -0.1588  0.2184
20875W        W37349  10.094  14.028   1.776 -0.0038  0.3571 -0.1114
20876W        W37350  12.385   2.231   0.091  0.0735 -0.0995 -0.0565
20877W        W37351   4.334   7.864   4.384  0.0524 -0.1100 -0.0994
20878W        W37352  13.514   1.334  11.140  0.0274 -0.2573 -0.0152
20879W        W37353   0.883   5.872   0.073 -0.0599  0.0959 -0.2271
20880W        W37354   2.405  19.278   1.344 -0.0688 -0.1442  0.3399
20881W        W37355   3.591   6.307  11.862  0.0657  0.3051  0.1842
20882W        W37356   6.302  12.418   3.777 -0.0140  0.0227  0.0973
20883W        W37357   9.256  10.819   4.815  0.1469 -0.1572  0.3562
20884W        W37358  13.483   4.237   1.390  0.1586 -0.0010  0.0778
20885W        W37359  18.333   0.165  13.395  0.0952 -0.0762  0.2870
20886W        W37360  16.355   8.181  11.281 -0.2447 -0.2574 -0.0651
20887W        W37361  10.791   4.445   1.294  0.0133  0.1709 -0.0724
20888W        W37362   4.545  12.230  13.548  0.1375 -0.1300  0.2837
20889W        W37363   2.009   9.853   4.357  0.2553  0.0453 -0.0961
20890W        W37364  10.514   0.219  10.051  0.0289 -0.4392 -0.3505
20891W        W37365  14.273   3.557  12.289 -0.1275  0.1572 -0.3517
20892W        W37366   0.043  16.313  14.391  0.1498 -0.1807 -0.0058
20893W        W37367  13.358   3.627  10.981  0.3275 -0.0598 -0.2870
20894W        W37368   8.455  17.426  11.830 -0.1315  0.1309 -0.0712
20895W        W37369  14.530   6.665  11.839  0.0139  0.0642 -0.0873
20896W        W37370  15.784   8.060   4.074  0.1045  0.1440 -0.2265
20897W        W37371  18.844   6.952  13.689 -0.0808  0.3631 -0.2051
20898W        W37372  13.646  10.037  10.575 -0.2356  0.4261  0.0258
20899W        W37373   0.708   2.776   2.209 -0.2525  0.1672 -0.2303
20900W        W37374  14.615   7.914   0.980 -0.4110  0.0957  0.3512
20901W        W37375  11.719   5.408  13.186  0.0253  0.1172 -0.3524
20902W        W37376   7.505  17.880  14.879  0.0524 -0.0461 -0.2433
20903W        W37377  16.174   7.889   5.077  0.1293  0.0226  0.1432
20904W        W37378   8.466  18.219  12.358  0.0607 -0.0064 -0.0591
20905W        W37379  15.862   1.871   2.067 -0.2893  0.0860 -0.3444
20906W        W37380   6.761  10.672   3.049 -0.0673  0.1109  0.2274
20907W        W37381   0.838   9.470  13.105  0.0325  0.5674  0.0337
20908W        W37382   7.620  11.763  11.533  0.2509 -0.0032 -0.1360
20909W        W37383  11.490  13.281   3.724 -0.0528  0.0250  0.1890
20910W        W37384   4.966   2.580  13.916 -0.2677  0.0051 -0.1847
20911W        W37385   5.970   0.544   8.660 -0.2441  0.1023  0.1635
20912W        W37386  14.008   8.649  10.676  0.0050 -0.2871 -0.0492
20913W        W37387   4.363  18.926   3.727 -0.0567 -0.0886 -0.0828
20914W        W37388   4.678   0.050  10.887  0.0147  0.1388  0.1926
20915W        W37389  13.030   8.444  13.746  0.0356 -0.1109 -0.0128
20916W        W37390   0.711   6.513   3.917 -0.0965  0.2165  0.0406
20917W        W37391   6.691   8.803  10.154 -0.3234 -0.2587 -0.1005
20918W        W37392   4.206  15.298   4.634 -0.3032 -0.2464  0.1234
20919W        W37393   4.973   2.675   4.430 -0.1925  0.0363  0.0800
20920W        W37394   0.337  13.522  10.130 -0.1053  0.1948 -0.1778
20921W        W37395   9.187  18.183  12.389  0.0578  0.3391  0.2067
20922W        W37396   9.024  11.335  12.095  0.1006 -0.1690  0.1171
20923W        W37397  14.737  15.185   1.536 -0.0634  0.2999 -0.0243
20924W        W37398   8.725   0.220   1.112  0.0717 -0.0298  0.0304
20925W        W37399   8.925   6.720  11.163 -0.0334  0.1176  0.1507
20926W        W37400  17.751   8.435   3.639 -0.0185 -0.1602 -0.0259
20927W        W37401   0.884   9.034  11.294 -0.0171 -0.2712 -0.0450
20928W        W37402  11.665  11.551   0.825  0.1715 -0.1290 -0.1095
20929W        W37403  14.506  10.206   1.762  0.0009 -0.3902 -0.1476
20930W        W37404  13.272  12.472   3.019 -0.1066  0.0353  0.1806
20931W        W37405   6.431   0.685  10.769 -0.0286  0.0877 -0.0504
20932W        W37406  14.886   7.551   4.668  0.0212 -0.1055  0.3258
20933W        W37407  13.264   5.740  11.448 -0.4939  0.0192  0.2438
20934W        W37408  17.676   1.992  14.106  0.0535 -0.0054 -0.0409
20935W        W37409   5.866  11.791  14.276  0.2857 -0.0002  0.2619
20936W        W37410  10.398  14.946   3.645  0.2545 -0.1083  0.1316
20937W        W37411   6.902   3.683   0.225  0.0160 -0.1709 -0.2326
20938W        W37412   6.644  14.853  11.030  0.0091 -0.0171 -0.0010
20939W        W37413   3.791   3.197   9.431 -0.1633  0.2527  0.1503
20940W        W37414  12.675  15.261  13.231 -0.0051  0.2698 -0.0139
20941W        W37415   9.178   8.363  13.820 -0.2084 -0.1081 -0.0877
20942W        W37416   0.111   5.037   1.626  0.1816  0.3197  0.1196
20943W        W37417  15.481  18.787  11.191 -0.1369  0.3182  0.1415
20944W        W37418  14.759  18.593   4.642  0.4554 -0.1338  0.2591
20945W        W37419   3.464  15.421  13.948  0.1730  0.1208  0.2761
20946W        W37420  10.080  11.236  14.200 -0.4564 -0.2086 -0.0768
20947W        W37421  11.703  14.969   1.682 -0.1032 -0.0829 -0.0514
20948W        W37422  13.348   8.233   2.217 -0.2970 -0.3526 -0.2767
20949W        W37423  15.992  14.157   4.876 -0.2738 -0.0740 -0.0272
20950W        W37424  12.279   5.035   1.158  0.0930  0.2250 -0.5168
20951W        W37425   3.971   4.968  13.808 -0.2502  0.1687 -0.1840
20952W        W37426  16.053   5.451  11.321  0.1103  0.1031 -0.2764
20953W        W37427   8.498  11.494   0.944 -0.0013 -0.1716  0.2054
20954W        W37428   5.624   4.784  12.140  0.0168  0.1613  0.1544
20955W        W37429   4.535  15.789   1.116  0.1597  0.1075  0.1424
20956W        W37430   2.882  19.233  11.019 -0.2203  0.0901 -0.1149
20957W        W37431  17.257  18.881  12.620 -0.0800  0.0950 -0.1697
20958W        W37432   3.056  19.264   2.731 -0.0734  0.1754  0.1334
20959W        W37433   3.568  13.935   4.430 -0.1003  0.1601  0.1487
20960W        W37434   8.265   5.785  11.768 -0.5658 -0.3947  0.0679
20961W        W37435  15.167  15.831  14.880  0.3321  0.1193 -0.3487
20962W        W37436   4.253   1.258   2.170 -0.1216  0.2325 -0.1029
20963W        W37437   4.833  14.573   2.339 -0.1640  0.2249  0.2721
20964W        W37438  13.019   9.034  13.820 -0.3184  0.0202  0.3836
20965W        W37439   1.086   0.250  13.105  0.2398 -0.3974  0.0470
20966W        W37440   1.827   2.027   3.537  0.1009 -0.1277 -0.1472
20967W        W37441  14.657   3.841  13.117 -0.0048  0.3254  0.2759
20968W        W37442  10.661  14.215  13.305 -0.2228 -0.2568 -0.3821
20969W        W37443  14.251   9.619   0.128 -0.0332  0.1524 -0.1919
20970W        W37444  14.491   0.703  13.852 -0.0664  0.4170 -0.3581
20971W        W37445  11.323  18.598  10.903 -0.1603  0.2441  0.1160
20972W        W37446   0.042   3.061   0.402  0.0872  0.3452  0.3670
20973W        W37447   8.808   2.544  14.431 -0.2746 -0.2062 -0.1460
20974W        W37448  15.493  10.853  11.762 -0.1403 -0.0142 -0.4213
20975W        W37449   0.222   4.608  12.795  0.1650  0.0809 -0.0977
20976W        W37450  16.006  10.518   5.194  0.1062  0.2440  0.0440
20977W        W37451  14.960   8.678  14.132  0.0534 -0.2278 -0.3115
20978W        W37452   9.130  13.725  12.982 -0.1295  0.0649 -0.2055
20979W        W37453   8.264  14.095   2.629  0.1336 -0.0181  0.2722
20980W        W37454   5.085  12.747  12.493  0.2745 -0.1006 -0.0190
20981W        W37455  19.029  11.705   4.537 -0.0684  0.1281  0.3712
20982W        W37456   5.759  10.222   4.381  0.0617 -0.0136  0.1212
20983W        W37457  11.243  13.522   2.811  0.0645  0.0119  0.1060
20984W        W37458  15.662  12.810   0.791  0.3037  0.0855 -0.0589
20985W        W37459  19.064   8.303  11.574 -0.0221 -0.0775 -0.1187
20986W        W37460   8.379  16.896  14.294  0.0376  0.3550 -0.1988
20987W        W37461   9.916   3.601  11.349 -0.0751  0.4064  0.3988
20988W        W37462   6.015  10.135   0.020 -0.1776  0.0439 -0.0375
20989W        W37463   5.463   1.949  13.827  0.0061 -0.0924 -0.1057
20990W        W37464  18.164   3.174   9.349 -0.0731 -0.0300  0.1917
20991W        W37465  10.851   5.636   4.654  0.1038  0.1959  0.1079
20992W        W37466  17.366   5.891   0.484 -0.3524 -0.3182  0.3445
20993W        W37467  13.192   7.279  12.051  0.1796 -0.0807  0.1524
20994W        W37468  13.068  14.640   3.096 -0.2008  0.1774  0.2114
20995W        W37469   7.782  13.856  14.127 -0.3196  0.1262  0.1178
20996W        W37470  18.612  14.837   3.148  0.0274  0.2522 -0.1024
20997W        W37471  16.515   1.664   4.425 -0.0638  0.2932 -0.2217
20998W        W37472   2.288   5.447  12.818  0.0178 -0.3009 -0.2096
20999W        W37473   7.055  15.123   3.593 -0.1571 -0.2412  0.2947
21000W        W37474  14.327   4.374   1.649  0.2662  0.1269 -0.0602
21001W        W37475  16.099   6.654  10.975  0.2874  0.2244  0.3752
21002W        W37476   5.706   8.679   3.474 -0.0624 -0.1564 -0.0707
21003W        W37477   3.035   6.696   0.531 -0.2487 -0.5135  0.0907
21004W        W37478  10.116  17.344   3.636 -0.0443 -0.1014  0.2483
21005W        W37479  14.657   8.478   0.280  0.3111  0.3705 -0.1203
21006W        W37480   5.811  14.671  10.855  0.1219 -0.1061 -0.2536
21007W        W37481  16.436  18.422   5.401 -0.2013 -0.4293 -0.0525
21008W        W37482   0.189  13.078   1.275 -0.1099 -0.0719  0.0763
21009W        W37483   9.820  19.194  12.644 -0.0141  0.1633  0.0015
21010W        W37484  10.086  17.078  13.188 -0.1075 -0.0744 -0.0850
21011W        W37485  14.486   8.341  13.410 -0.0680 -0.2908 -0.1661
21012W        W37486   5.496  11.469   5.550  0.1709 -0.2065 -0.1387
21013W        W37487  13.727   1.359   4.094 -0.0995 -0.1910 -0.0005
21014W        W37488   3.433   7.185  14.711 -0.0184  0.0206  0.1024
21015W        W37489   3.955  14.795   3.509  0.0902 -0.2217 -0.1515
21016W        W37490  16.926   5.634   0.783 -0.3440  0.0359  0.2189
21017W        W37491   9.214  12.743   2.789  0.1542  0.0790 -0.1306
21018W        W37492   7.747   6.992  10.581 -0.2010  0.0954  0.0430
21019W        W37493  15.526  18.840  14.209 -0.1159  0.0897 -0.1378
21020W        W37494   3.416   5.577  10.484  0.1395 -0.1014 -0.1300
21021W        W37495   6.115  11.857   1.874  0.1219 -0.2803  0.0739
21022W        W37496  19.268  10.481  14.271  0.0177 -0.2289 -0.0538
21023W        W37497   7.279   6.985  13.788 -0.0972 -0.1170  0.1132
21024W        W37498   4.891   6.779   0.280 -0.0119 -0.2279 -0.0984
21025W        W37499  10.403  12.707   2.014 -0.4060 -0.0277 -0.4371
21026W        W37500  12.600  13.571  14.286 -0.1497  0.1131 -0.1109
21027W        W37501   6.302  13.048   4.004 -0.0034 -0.2306  0.0537
21028W        W37502  16.435   9.562  14.141 -0.0644  0.1849 -0.1524
21029W        W37503   1.858  17.122   4.983 -0.2052  0.0008  0.0087
21030W        W37504   8.160   0.285  12.850 -0.1909  0.3437 -0.2440
21031W        W37505  16.592   9.668   3.851  0.0973  0.4727 -0.3722
21032W        W37506   6.918   7.795  13.821  0.0025  0.2230  0.0785
21033W        W37507  17.111   9.928  13.122  0.0300 -0.1237  0.1471
21034W        W37508   0.611   8.166  12.555 -0.1219 -0.0501  0.3594
21035W        W37509   4.010   5.635   0.929  0.0324 -0.2998 -0.5014
21036W        W37510  15.539  11.425  12.069  0.1706  0.0164  0.1939
21037W        W37511   7.812  16.129  14.825  0.2481  0.1112  0.3323
21038W        W37512  13.517  16.188   4.396 -0.1636 -0.1713  0.3616
21039W        W37513   3.171  11.603  13.984 -0.0009 -0.1839 -0.1557
21040W        W37514   0.584  16.035   3.970  0.0251 -0.2608 -0.2898
21041W        W37515   2.796   6.403  13.706  0.3747  0.0779  0.0799
21042W        W37516  11.888   5.457  14.624  0.1117  0.0552 -0.1105
21043W        W37517  10.904  10.530   2.396  0.1013 -0.1765 -0.1176
21044W        W37518  16.286   0.705  14.296 -0.0841  0.2324 -0.1967
21045W        W37519  19.261  15.041  11.970  0.0649  0.0899 -0.0063
21046W        W37520  10.227   3.896  12.012 -0.1084 -0.1550 -0.0065
21047W        W37521  17.650   6.234  10.527 -0.2422 -0.0614  0.2488
21048W        W37522  14.217   9.235  12.016 -0.0513  0.2758  0.1372
21049W        W37523   9.426  12.901   5.189 -0.0629 -0.0670  0.0079
21050W        W37524   8.900  19.046   0.172 -0.1177 -0.0280 -0.0872
21051W        W37525   0.189  11.157  12.038  0.3869  0.2175  0.1476
21052W        W37526  19.318   9.329  14.567  0.1206 -0.0229  0.0837
21053W        W37527  13.357  10.008   3.453 -0.0050 -0.0604 -0.1271
21054W        W37528   2.240   6.450  11.539  0.2084  0.0042  0.0956
21055W        W37529   2.178   4.844  13.588 -0.3484 -0.1410 -0.1567
21056W        W37530   7.710  12.374  11.075 -0.2127 -0.2250  0.0343
21057W        W37531   1.257   1.354   1.204  0.2717  0.1817  0.1615
21058W        W37532  11.794   3.901  10.197 -0.0178  0.3647  0.0801
21059W        W37533  18.263  14.240  13.018  0.2177 -0.0842  0.3190
21060W        W37534   6.610  10.656  13.603 -0.1727  0.1329  0.1460
21061W        W37535  11.084   7.436  14.192 -0.1220 -0.0074  0.0100
21062W        W37536  15.802   3.033  11.080  0.0448 -0.3138 -0.0180
21063W        W37537  13.538  12.658  12.947 -0.0865  0.1008 -0.1111
21064W        W37538   1.019  12.114   5.061 -0.1882  0.0343 -0.1590
21065W        W37539   6.730  13.324  14.455  0.0545 -0.0835  0.1740
21066W        W37540  11.669  18.089   0.909  0.1099  0.1799  0.1696
21067W        W37541   0.622  11.894   2.618 -0.3082  0.0724  0.0598
21068W        W37542   9.549  15.996  11.753 -0.3948 -0.1995 -0.0282
21069W        W37543  16.256   0.787  12.642 -0.1816 -0.1637 -0.0486
21070W        W37544   1.938  17.998   2.651 -0.1523 -0.1054 -0.0313
21071W        W37545  13.744   7.714   3.268  0.5084 -0.4488  0.0189
21072W        W37546  10.762   5.404   3.489  0.2268  0.4538  0.3726
21073W        W37547   8.945   8.936  10.466 -0.0119  0.1852  0.1148
21074W        W37548   1.965  10.195  14.523  0.2251  0.0418 -0.2437
21075W        W37549  11.707   5.418  11.152  0.1153  0.3421 -0.2671
21076W        W37550   3.083   6.350  13.251  0.2238  0.1594  0.0064
21077W        W37551   0.655   4.705   4.738  0.0954  0.0010 -0.0612
21078W        W37552   3.133  17.827   0.383 -0.2853 -0.1495 -0.1542
21079W        W37553   3.747  15.842   0.423 -0.4772 -0.2717 -0.0415
21080W        W37554   4.202  19.240   3.394 -0.0170 -0.2059 -0.0494
21081W        W37555  17.998  18.928  11.002 -0.2466 -0.1278  0.0766
21082W        W37556  13.960  16.235  13.269 -0.1762 -0.2897  0.3808
21083W        W37557  13.188   3.687   3.154  0.1606 -0.2088  0.0627
21084W        W37558  14.775   0.830   5.064  0.0303  0.2180 -0.2098
21085W        W37559   3.684   2.695  11.308 -0.1828  0.3405  0.2340
21086W        W37560  19.286   6.747  13.408 -0.0109  0.0723  0.2027
21087W        W37561  15.103   3.046   2.396 -0.0489  0.0832 -0.0520
21088W        W37562   3.554  13.526  12.321 -0.0519  0.4050 -0.0104
21089W        W37563  14.455   6.029  12.996  0.0840  0.0263 -0.2680
21090W        W37564   3.109  12.515  12.528 -0.2274  0.2611 -0.0943
21091W        W37565  16.728  17.344  11.540 -0.0647  0.2121  0.0356
21092W        W37566   5.898   8.340   9.789  0.1846 -0.0663 -0.0642
21093W        W37567  17.614  16.732   4.615  0.1602 -0.3051 -0.1675
21094W        W37568   7.834   3.519  10.383 -0.0706  0.0242 -0.1967
21095W        W37569   1.250   5.181  14.498 -0.1475 -0.2384  0.2519
21096W        W37570  16.492   0.458  14.736 -0.0449  0.0214 -0.0976
21097W        W37571  16.433   5.251   4.905 -0.4160  0.1336 -0.2795
21098W        W37572   4.790   8.438  11.283  0.0186  0.0636  0.0253
21099W        W37573   7.413  10.698  14.081  0.0313  0.1896 -0.0648
21100W        W37574   8.911   5.280  11.893  0.0335  0.0894 -0.0551
21101W        W37575  18.241   4.839  14.463 -0.3536 -0.1194 -0.2436
21102W        W37576   9.518  11.919  14.196  0.1889 -0.3088 -0.0444
21103W        W37577   6.541   8.483  11.747 -0.0250 -0.1947 -0.0938
21104W        W37578  11.741   1.752   1.517 -0.3572  0.1532 -0.2112
21105W        W37579   5.804   6.099   3.625  0.3183  0.2166  0.1927
21106W        W37580  19.286  12.985   0.091  0.1046 -0.2516 -0.0523
21107W        W37581  12.150  17.383   1.506 -0.1784 -0.0358  0.0640
21108W        W37582   1.194   2.562  14.813  0.3080  0.0330  0.0739
21109W        W37583   5.820  15.818   1.799  0.1051 -0.3613  0.0513
21110W        W37584   8.117  10.218   1.902  0.3702 -0.0265 -0.5685
21111W        W37585  10.127  11.467   5.648  0.2473 -0.0737 -0.1287
21112W        W37586  12.875  10.030  12.829 -0.2279  0.1022 -0.0658
21113W        W37587   9.380  18.741  14.268  0.1050  0.1061  0.1664
21114W        W37588  10.318  14.513   2.965  0.0883 -0.1901 -0.3667
21115W        W37589  14.883   2.564   3.545 -0.1420  0.2714  0.0318
21116W        W37590  15.942   3.961   4.634  0.1560 -0.2574 -0.1142
21117W        W37591  15.519  10.019  13.778 -0.2492  0.0492  0.0960
21118W        W37592  16.830   2.692   3.975  0.0435 -0.1532 -0.1015
21119W        W37593  16.428  13.288   4.485  0.0550 -0.1602  0.0901
21120W        W37594  14.695   2.041   0.252 -0.1497 -0.0810 -0.0953
21121W        W37595  11.219   3.988  10.242 -0.0463 -0.0941  0.0401
21122W        W37596   3.477  14.402   4.671  0.0545 -0.2050  0.1620
21123W        W37597   9.294   7.743   5.218  0.0280 -0.1326 -0.1191
21124W        W37598  10.783   7.816  12.603 -0.0605 -0.2794 -0.0552
21125W        W37599   9.498   7.025  11.358 -0.1272  0.0098  0.1818
21126W        W37600  18.566   1.961   2.425 -0.0427  0.2173 -0.0554
21127W        W37601   0.747  17.442  10.898 -0.0802  0.0304  0.1906
21128W        W37602   3.888  10.800   3.310  0.3393 -0.1480  0.2972
21129W        W37603  18.663  11.644  13.087  0.2477 -0.1836 -0.0987
21130W        W37604  15.458  13.266  14.137 -0.1721 -0.1301  0.2354
21131W        W37605   2.981   3.741   3.388 -0.3300  0.0824  0.0565
21132W        W37606   8.230   2.369  13.266 -0.2235  0.1117 -0.1408
21133W        W37607  15.173  11.238   0.820  0.0335 -0.3031  0.1568
21134W        W37608  13.172  14.898   1.414  0.0918 -0.1114 -0.1598
21135W        W37609  19.224  11.538  12.731  0.0200 -0.2263  0.0514
21136W        W37610   6.612   7.665  11.059 -0.1802  0.1173 -0.0718
21137W        W37611   9.515  15.667  13.171 -0.1575 -0.0284  0.1630
21138W        W37612  15.418   2.314  11.885 -0.0316 -0.0199  0.3013
21139W        W37613  18.963   2.752  11.435  0.1002  0.3130  0.1072
21140W        W37614   8.150   4.416  14.011 -0.1525  0.0584 -0.2419
21141W        W37615   7.259   3.447   2.167 -0.2337  0.0844  0.0393
21142W        W37616   0.194  14.232   6.099 -0.0323  0.3233  0.1962
21143W        W37617   5.316   0.856   0.550  0.0397  0.1222 -0.0019
21144W        W37618  19.315  18.980   4.192  0.2681  0.0500  0.0586
21145W        W37619  18.982   9.617  14.300  0.1305  0.3112  0.0865
21146W        W37620  10.745   5.549  10.045 -0.2145  0.0445  0.0428
21147W        W37621   5.109   6.318   4.427  0.1039  0.2472  0.2345
21148W        W37622   5.645  16.923  10.184 -0.1717  0.1081 -0.1700
21149W        W37623   4.326   7.917   0.480  0.0910 -0.3235  0.5217
21150W        W37624   6.599   2.696  11.753  0.1061 -0.0435 -0.1285
21151W        W37625   4.363  14.166   3.968 -0.2739  0.0536  0.1524
21152W        W37626  11.805  11.728   3.507  0.1973  0.1766  0.1026
21153W        W37627  14.267  15.457   2.466 -0.1577 -0.2232 -0.4360
21154W        W37628   3.895  10.671   5.759  0.3089 -0.1576 -0.1106
21155W        W37629   0.569   7.953   2.468 -0.3167  0.0837 -0.0708
21156W        W37630  12.748   3.817   3.806  0.1059 -0.0734  0.1462
21157W        W37631   6.500   4.128   0.056 -0.0713 -0.1152  0.0306
21158W        W37632  18.278   1.421  12.477 -0.0288 -0.2129  0.0448
21159W        W37633   1.849   6.161  13.879 -0.2389 -0.3300  0.1196
21160W        W37634  16.257  15.955  14.396 -0.0512 -0.0650  0.0638
21161W        W37635   3.049   3.839  13.603  0.5240  0.1454  0.2805
21162W        W37636  12.918   4.366  11.520 -0.2910  0.1926  0.1148
21163W        W37637  12.944  18.604  12.025 -0.1659 -0.0727 -0.1322
21164W        W37638   4.196   8.415   0.251 -0.1302  0.2386 -0.1574
21165W        W37639   7.758   1.600  11.307  0.0031  0.2465  0.1502
21166W        W37640   6.909  17.999  13.027  0.0204  0.3646 -0.0279
21167W        W37641  18.516  15.123  14.390 -0.0972 -0.0164 -0.2065
21168W        W37642   0.749  10.913  10.824 -0.1507 -0.2643 -0.1903
21169W        W37643  11.562   2.134  14.099 -0.3573  0.1734  0.3860
21170W        W37644   5.080   6.882  11.521 -0.1762 -0.2408  0.1358
21171W        W37645   5.981   5.701   1.845  0.0077 -0.0786 -0.0113
21172W        W37646  14.827  12.707   3.294 -0.2970 -0.2834 -0.0237
21173W        W37647   2.408   9.961   1.324  0.1339  0.3395 -0.1584
21174W        W37648   6.014   1.994   1.249 -0.1267 -0.1268 -0.1048
21175W        W37649   2.935  10.332  14.144  0.2866  0.4400 -0.0662
21176W        W37650  11.928   9.002   4.252  0.2272  0.0587 -0.0225
21177W        W37651  14.292   3.767  13.940 -0.3784 -0.1368 -0.0836
21178W        W37652   3.440   7.316   5.061  0.0970 -0.1360  0.1596
21179W        W37653  14.198   2.656   3.141  0.1043  0.2610  0.0553
21180W        W37654   9.002  11.768   4.870  0.2734 -0.2612  0.0565
21181W        W37655   5.692   6.071  13.392  0.0841 -0.0433 -0.2336
21182W        W37656   6.052  15.257  14.426  0.0173 -0.0926 -0.1845
21183W        W37657   4.965   2.998  14.214  0.3102 -0.0411  0.0138
21184W        W37658   7.273  13.882   2.963 -0.1058 -0.5647 -0.0725
21185W        W37659  14.143  18.832   5.512  0.1441  0.2131 -0.3372
21186W        W37660  13.981   0.371  12.994  0.0598  0.0935  0.0743
21187W        W37661   6.460   1.670   2.078 -0.3078  0.1461  0.0849
21188W        W37662  13.134   8.360   4.971  0.0849  0.1679  0.2428
21189W        W37663   2.535  15.131   3.363 -0.1687  0.0552  0.0709
21190W        W37664  10.412   4.264   3.986 -0.1192  0.1439  0.0354
21191W        W37665   0.296   3.381   4.255 -0.0608  0.1827  0.1848
21192W        W37666   1.095  17.439  11.685 -0.0319  0.3303 -0.0121
21193W        W37667   2.883   9.974   2.728 -0.3065  0.4139  0.1737
21194W        W37668   3.915  17.053  13.969 -0.0602 -0.1530  0.0674
21195W        W37669   3.530   9.731  14.264 -0.3067 -0.2454  0.1545
21196W        W37670  16.965  14.889   2.886 -0.0431  0.1809  0.0055
21197W        W37671   8.601   1.766  13.842  0.3218 -0.3516 -0.2224
21198W        W37672   0.705  15.137   3.565  0.0750 -0.1335 -0.0585
21199W        W37673   0.777   4.874   3.760  0.3010 -0.3185  0.0786
21200W        W37674   3.826   5.503   1.883  0.3805  0.3710 -0.1655
21201W        W37675  17.505   1.338  14.597  0.2145  0.3227  0.1099
21202W        W37676  13.387   7.031  13.073 -0.0341 -0.2060  0.0695
21203W        W37677   8.498  14.523  10.247  0.2185  0.0612  0.0317
21204W        W37678  11.222   7.170  10.398 -0.2621  0.4773 -0.2856
21205W        W37679   4.125   4.246  10.984  0.1367 -0.3199  0.2095
21206W        W37680  15.775   5.377  11.708 -0.2182  0.0168  0.2288
21207W        W37681   7.772   7.642  11.377  0.1276  0.1100 -0.0799
21208W        W37682  10.740   1.711   1.581 -0.1488 -0.0090 -0.2752
21209W        W37683   0.165  10.382  12.358 -0.0765 -0.1080 -0.0004
21210W        W37684   4.702   2.809   3.460 -0.1362 -0.2969  0.5287
21211W        W37685  18.761  14.158  12.949 -0.1259 -0.2974 -0.0087
21212W        W37686  15.913   2.388  13.029  0.0720 -0.1208 -0.0476
21213W        W37687  17.326   0.382   0.735  0.4731 -0.1101 -0.0389
21214W        W37688   4.745  11.667  13.648 -0.0546 -0.3062 -0.0626
21215W        W37689  14.243   7.706   0.574 -0.1097 -0.2181 -0.2421
21216W        W37690  17.869  15.300   1.092  0.2099 -0.2796 -0.0567
21217W        W37691  14.065   4.706  11.165  0.2788  0.2933 -0.0949
21218W        W37692  16.349  16.861  11.455  0.0963  0.1605 -0.0383
21219W        W37693   8.929  17.581   0.068  0.4257  0.0661 -0.1266
21220W        W37694  17.328  15.933   9.952  0.1025 -0.2104  0.0726
21221W        W37695   7.656   3.981  14.544  0.4722  0.0917 -0.1493
21222W        W37696  17.651  16.332  10.731 -0.0606  0.0241  0.0670
21223W        W37697  10.053  14.255   0.299 -0.0756 -0.2399  0.0591
21224W        W37698  16.525   6.849   2.309  0.2221 -0.3423  0.0042
21225W        W37699   2.030  13.243  12.099 -0.2291  0.0857 -0.1713
21226W        W37700   3.782   5.670  14.458  0.0234 -0.0114 -0.0113
21227W        W37701   5.214  14.416   9.709 -0.1921 -0.1503  0.3725
21228W        W37702  12.092   8.493   4.119 -0.2746  0.0907 -0.1147
21229W        W37703  12.370   6.238  14.796 -0.3644  0.0612 -0.3702
21230W        W37704  14.470   0.520   0.429  0.0695  0.0922  0.1035
21231W        W37705   1.575  15.747  13.654  0.0803  0.0661  0.5138
21232W        W37706  15.750   5.564  14.700 -0.0021 -0.2423  0.4520
21233W        W37707  14.534   2.595  13.430  0.2033 -0.0524  0.0082
21234W        W37708  16.373   1.649   4.914 -0.0014 -0.2523 -0.0043
21235W        W37709   5.661   1.068  10.973  0.0443 -0.0693 -0.1598
21236W        W37710  16.116  15.528   5.291 -0.0114  0.0144  0.3595
21237W        W37711   4.219   2.520  13.577 -0.1063 -0.0405 -0.0757
21238W        W37712   1.268   4.823  11.939  0.3692 -0.1586 -0.1928
21239W        W37713   5.164  18.855   1.465 -0.2080  0.1491 -0.3418
21240W        W37714  17.626   9.971   2.227 -0.0396  0.2605 -0.2102
21241W        W37715  12.549  12.926  12.962 -0.0106 -0.0068 -0.0144
21242W        W37716  12.706   3.289   0.837  0.1877  0.2186 -0.2057
21243W        W37717   2.654  13.976  11.076 -0.0527 -0.3508  0.0050
21244W        W37718   6.987   3.805   3.453 -0.0339  0.1486  0.1442
21245W        W37719   0.051  13.227   4.501  0.4183  0.0312 -0.1273
21246W        W37720  17.367  17.708   5.095 -0.2929 -0.0943 -0.1995
21247W        W37721   2.389   4.206  10.793 -0.1156  0.2772  0.3653
21248W        W37722   2.327  18.890  12.121  0.4128 -0.1674 -0.1599
21249W        W37723  12.649  17.700  11.643  0.4207 -0.1106 -0.0719
21250W        W37724   5.993   2.127   5.036  0.1200  0.0516  0.0415
21251W        W37725   4.210   5.519   4.389  0.1717  0.1570 -0.3635
21252W        W37726   0.922   4.317  14.882 -0.1550 -0.4069 -0.1599
21253W        W37727  13.379  15.742  14.062 -0.0307  0.0156  0.2045
21254W        W37728   7.710   7.544  10.530 -0.1601  0.2043  0.0198
21255W        W37729  12.887  17.913  10.797  0.0611 -0.1653 -0.0333
21256W        W37730  15.667  15.574   3.511 -0.5801  0.1248  0.0189
21257W        W37731   5.084   7.032   1.748 -0.1151  0.0919  0.2204
21258W        W37732  17.171   3.336  13.699 -0.2107 -0.0358  0.0405
21259W        W37733   4.080  11.662  14.121 -0.2427  0.2958  0.2162
21260W        W37734   1.357  16.303  13.519  0.0871 -0.4761  0.2878
21261W        W37735  12.746  11.046   2.381  0.0047 -0.0947  0.2095
21262W        W37736  18.569   7.124   3.923  0.1960  0.0615  0.4662
21263W        W37737   8.186   1.325  11.298 -0.1299 -0.1454  0.0204
21264W        W37738  10.256   9.473  13.737  0.1602  0.2870  0.1438
21265W        W37739  10.906   7.166   1.144  0.0396 -0.0807  0.1737
21266W        W37740  12.520  15.458  14.249  0.0588  0.1280  0.3683
21267W        W37741   9.877  15.312  12.377 -0.3164 -0.3321  0.3710
21268W        W37742   2.973   1.012  12.514 -0.1035  0.1511 -0.0919
21269W        W37743  14.379  13.304  10.380 -0.2446 -0.0655 -0.0341
21270W        W37744   5.357  15.279   2.593  0.1540  0.1947 -0.0846
21271W        W37745   9.314   0.558  11.712 -0.0978 -0.0711  0.0535
21272W        W37746  16.459   3.913  12.245 -0.0626  0.2038  0.0950
21273W        W37747  17.072  12.593  13.030 -0.1387 -0.1327 -0.1506
21274W        W37748  10.257   0.754  10.811 -0.1696  0.1000  0.2443
21275W        W37749   6.877   6.690   2.905  0.4090 -0.0044 -0.2418
21276W        W37750  18.346  11.467   1.417  0.1844  0.2178 -0.0598
21277W        W37751  12.773   3.369   5.723  0.2943 -0.1987 -0.0639
21278W        W37752   1.718   8.889   4.128 -0.2934 -0.3267  0.1882
21279W        W37753   2.861   5.498  11.509 -0.0054  0.1197 -0.0323
21280W        W37754  16.861  12.956   5.036  0.0627  0.1599  0.0926
21281W        W37755   8.046  13.589   1.389  0.0299  0.1259 -0.2063
21282W        W37756  11.220  15.349   3.720  0.2343 -0.0182 -0.0959
21283W        W37757  11.447  17.542  14.431 -0.4289  0.2354 -0.3752
21284W        W37758   6.172  15.329  12.980 -0.2272 -0.2214  0.0509
21285W        W37759  12.869  18.349  13.530 -0.1798 -0.1334 -0.0686
21286W        W37760   3.866  13.062   3.161  0.0840 -0.1053  0.0036
21287W        W37761   2.111   2.819   4.244  0.2397 -0.2473 -0.0521
21288W        W37762  10.460  19.267   1.539 -0.1080  0.0841 -0.1384
21289W        W37763   3.875   1.690  13.514 -0.1440 -0.0122 -0.0701
21290W        W37764   4.240  18.370  13.625  0.3005  0.1542  0.2286
21291W        W37765   5.336  14.971   3.505  0.3152 -0.0671 -0.0540
21292W        W37766   3.903   7.831  14.164 -0.0943 -0.1710  0.1192
21293W        W37767  18.912   9.476   0.613 -0.1269  0.0864 -0.2004
21294W        W37768   4.757   2.622   4.959  0.1468 -0.1456  0.0824
21295W        W37769   5.691   8.141  12.112  0.4988 -0.0052 -0.2233
21296W        W37770   2.488   2.762   1.868  0.1764  0.2116  0.0668
21297W        W37771   4.419  17.451   0.479  0.1662 -0.0683  0.0723
21298W        W37772   8.660   1.159   1.262  0.0078  0.1219 -0.3742
21299W        W37773  17.555   2.691   3.874 -0.0746  0.2954 -0.0612
21300W        W37774  13.987  17.930   5.840 -0.2784 -0.3154 -0.2633
21301W        W37775   3.305   7.249  13.334 -0.0773 -0.1488  0.0352
21302W        W37776   7.231   8.704   9.912  0.0482  0.1175  0.2576
21303W        W37777   1.929   2.914   4.697  0.1161  0.0122 -0.0214
21304W        W37778   5.888   7.663   2.054 -0.0491  0.0327 -0.0448
21305W        W37779  14.675   7.888   0.317  0.0953 -0.0176 -0.1105
21306W        W37780  11.039   7.738   3.973 -0.1209 -0.0029 -0.4354
21307W        W37781  12.039   4.578  11.580  0.0851  0.1931  0.0668
21308W        W37782   3.443  15.759  10.127  0.0584  0.1469  0.2108
21309W        W37783  12.098  15.093   4.555 -0.0761  0.0507 -0.1890
21310W        W37784   6.588  16.457   2.956  0.3784 -0.1754 -0.2429
21311W        W37785   2.893  13.290  13.254  0.1781 -0.3095  0.2613
21312W        W37786   1.918   6.825  12.841 -0.1767 -0.4670 -0.0873
21313W        W37787  11.127  11.555   1.982  0.2103 -0.1736 -0.3886
21314W        W37788   0.707  13.161   1.298 -0.0936  0.1283 -0.0846
21315W        W37789  17.928  15.706  13.771  0.0465 -0.0391 -0.3850
21316W        W37790  11.669  11.758   1.375  0.1126  0.0496  0.2552
21317W        W37791  15.360   6.435  12.169  0.2630  0.3745  0.0514
21318W        W37792  13.493   0.195  13.958 -0.0412  0.3006  0.3044
21319W        W37793  15.059  15.954  11.428 -0.1667  0.0617 -0.1334
21320W        W37794  14.625   0.815  13.381 -0.2391 -0.1551 -0.0168
21321W        W37795  14.633  11.167  14.839  0.0880 -0.1104  0.0038
21322W        W37796  19.019  14.471   4.902 -0.2328 -0.0831  0.1507
21323W        W37797  14.001  10.330   2.603 -0.1285  0.0947 -0.3191
21324W        W37798   1.316  13.038   2.778 -0.2860  0.1478 -0.0906
21325W        W37799   1.462   3.766  14.164 -0.0913 -0.1374  0.1019
21326W        W37800  18.601   9.316   6.082  0.4348  0.0207 -0.0290
21327W        W37801   8.391  11.782   4.901 -0.0382  0.1929  0.0449
21328W        W37802  10.704  11.972  13.978 -0.0455 -0.2831 -0.0425
21329W        W37803  11.186   6.001  10.795  0.1151 -0.2419  0.0202
21330W        W37804  14.382  16.452   0.390 -0.2284  0.2046  0.0764
21331W        W37805   0.372   2.862   4.068 -0.0021 -0.1077  0.0861
21332W        W37806   0.655   6.108   0.852 -0.2240  0.4149  0.0409
21333W        W37807   6.017  14.545  11.931 -0.0312 -0.3972  0.0300
21334W        W37808   9.925  15.915   3.919  0.0329  0.1292 -0.2449
21335W        W37809   5.805   3.121   9.956 -0.0049 -0.0517 -0.1235
21336W        W37810  17.478   6.946   2.885 -0.1697 -0.5341  0.0175
21337W        W37811   2.659   2.184   3.526 -0.0550  0.3417  0.0864
21338W        W37812  10.388  16.501   3.576 -0.1505  0.2330  0.0034
21339W        W37813  10.889  12.465  13.256 -0.1767 -0.2684 -0.0566
21340W        W37814   1.625   9.036   2.103 -0.0876 -0.1661  0.1216
21341W        W37815   5.217   5.732   0.195  0.0516  0.1113  0.1354
21342W        W37816   9.280   2.564   2.970  0.0117  0.2730  0.0729
21343W        W37817   1.462   5.035   5.355 -0.0758 -0.1290 -0.4022
21344W        W37818  12.650   1.858   1.207 -0.0406  0.3135  0.1448
21345W        W37819  11.087   7.607  13.252 -0.3289  0.2009  0.1381
21346W        W37820  17.902   5.831   1.876 -0.2040 -0.1056  0.0915
21347W        W37821   0.283  11.734  13.616 -0.3271 -0.3605  0.2236
21348W        W37822  12.590  13.416   4.728 -0.1695 -0.1118 -0.1458
21349W        W37823  11.881  18.305  14.521 -0.1190  0.4623 -0.0764
21350W        W37824   4.731  14.832  11.691 -0.0555  0.0459 -0.1477
21351W        W37825   4.308   5.010  12.501 -0.1535 -0.1604 -0.1362
21352W        W37826  18.925   7.195   2.578 -0.1744  0.1629 -0.2417
21353W        W37827   2.489   7.899   0.322 -0.1271 -0.0439 -0.2747
21354W        W37828   1.009   7.548   5.577 -0.5022  0.0249 -0.0175
21355W        W37829  18.119  14.493   3.167  0.1256  0.0636  0.1221
21356W        W37830  14.960   9.742   0.801 -0.4368 -0.0580  0.3108
21357W        W37831  10.564  14.119   3.110  0.0885 -0.1492 -0.2055
21358W        W37832  12.414  16.813   4.434 -0.2317  0.0030  0.0296
21359W        W37833   8.069  15.442  12.238 -0.2376 -0.0103  0.0169
21360W        W37834   2.899  18.007  10.544  0.2859 -0.2450 -0.2146
21361W        W37835  13.303  12.807  13.359  0.2834 -0.4203 -0.0164
21362W        W37836  12.508   1.726  12.326  0.0462  0.0832 -0.0636
21363W        W37837  12.296   8.750   0.102  0.1099 -0.4738 -0.2261
21364W        W37838   7.207  12.001   2.427  0.1156 -0.0821 -0.0204
21365W        W37839  18.404  16.277  12.573 -0.3568 -0.1086  0.1092
21366W        W37840  18.136  14.344   2.589 -0.1347 -0.1215 -0.0820
21367W        W37841  11.281  14.390   3.185  0.0894 -0.0262 -0.0425
21368W        W37842   9.243  18.810  11.392  0.0391 -0.3290  0.2168
21369W        W37843  12.536   4.566   1.170  0.0949 -0.2450  0.1159
21370W        W37844  11.101  14.098  12.332 -0.0257  0.1532  0.0731
21371W        W37845   6.587  17.957  11.907  0.0380 -0.2896  0.1193
21372W        W37846   8.136  11.305  11.588  0.1049  0.3766 -0.0065
21373W        W37847   9.212   0.191   2.678 -0.0327 -0.1166  0.2157
21374W        W37848   4.680   8.912  13.959  0.3235  0.4469  0.0328
21375W        W37849   9.214   6.325   1.043 -0.0398  0.2614  0.0616
21376W        W37850  18.308  11.336   2.863 -0.1438 -0.1603 -0.0979
21377W        W37851  13.590   5.643   0.952 -0.2682 -0.0142 -0.1483
21378W        W37852  14.623   2.116   9.628 -0.5632  0.0186 -0.1922
21379W        W37853  17.818   0.916  14.565 -0.1784  0.0048 -0.0203
21380W        W37854  14.569   7.445   2.988 -0.2439  0.2852  0.0866
21381W        W37855  10.233   4.009  10.108  0.4724 -0.0114  0.1331
21382W        W37856  13.283   1.698  13.963 -0.0852  0.1171 -0.1175
21383W        W37857   9.407  18.873   0.089 -0.1516  0.3689  0.2394
21384W        W37858   1.077  17.232   2.315  0.1568 -0.1547  0.3809
21385W        W37859  16.363  11.197   4.036 -0.2417 -0.0613 -0.0891
21386W        W37860  18.475  15.968  11.817 -0.0998 -0.3470  0.1367
21387W        W37861  12.407  11.191  12.751 -0.0766 -0.1241 -0.3789
21388W        W37862  18.598   2.612  14.776 -0.1634  0.4697 -0.0893
21389W        W37863   3.951  13.935   0.174  0.3565  0.1910 -0.0715
21390W        W37864  14.669   6.725   4.935 -0.0308  0.2114  0.1144
21391W        W37865   6.795  15.732   5.440 -0.1785  0.0849 -0.0437
21392W        W37866   7.883   4.580   3.013  0.0321  0.0744 -0.1670
21393W        W37867  11.033  16.288  12.490  0.0072  0.0038  0.2543
21394W        W37868  12.999  10.602  13.630 -0.1658  0.0216 -0.0100
21395W        W37869   8.553   6.691   0.976  0.3041 -0.1028 -0.2178
21396W        W37870   6.201  17.730  14.204  0.0865 -0.0447  0.3959
21397W        W37871  15.723   5.533   0.674 -0.0455 -0.1248 -0.0770
21398W        W37872  11.673  13.986   1.386 -0.1536 -0.0222  0.0459
21399W        W37873   4.994   1.355  13.273  0.1946  0.2699  0.0858
21400W        W37874  18.590  13.779   2.874 -0.0939  0.0598  0.2918
21401W        W37875   4.930   8.770  14.802  0.0419 -0.2522 -0.0434
21402W        W37876  12.376  10.134   1.386  0.0506 -0.0785 -0.0845
21403W        W37877  18.999   5.106   4.656 -0.0349 -0.1086  0.0912
21404W        W37878  16.199  18.989   2.154 -0.0316 -0.0997  0.1847
21405W        W37879   7.152   8.048   3.182  0.1865 -0.1637 -0.1021
21406W        W37880  11.897   8.519  12.662  0.1903  0.1085 -0.1293
21407W        W37881  15.691   9.310   2.086 -0.1905 -0.1722 -0.0403
21408W        W37882   0.636  12.971   5.688 -0.1499  0.2479  0.2520
21409W        W37883  10.021  14.131  13.788 -0.3922 -0.1595  0.0283
21410W        W37884   8.673  18.716  13.117  0.1419 -0.0668 -0.1095
21411W        W37885   9.139  10.893  14.671 -0.3794 -0.2187  0.2380
21412W        W37886   3.052  18.498  10.414  0.3870 -0.2008  0.2471
21413W        W37887  10.223   4.270   2.220  0.2437 -0.1595  0.0728
21414W        W37888  12.235   0.866  11.714 -0.2119  0.0135 -0.1528
21415W        W37889   6.572  16.453  11.550 -0.1400 -0.2280 -0.1214
21416W        W37890  12.547  11.376   1.008 -0.2730 -0.3705  0.0014
21417W        W37891   9.636  18.870  11.914 -0.1945 -0.2843 -0.0488
21418W        W37892   8.895   4.492  11.556 -0.1889 -0.1593  0.0971
21419W        W37893   6.324   7.143   4.080  0.0471 -0.1372 -0.1150
21420W        W37894  17.504   9.473   3.056 -0.2806 -0.0881 -0.0708
21421W        W37895  12.465  19.294  13.717 -0.2544 -0.0243  0.1710
21422W        W37896   5.047  17.171   2.838 -0.1818  0.0496  0.0064
21423W        W37897  12.563   4.207  11.930  0.0984 -0.1468 -0.1332
21424W        W37898   3.679   7.637   4.716  0.0283 -0.2373 -0.0862
21425W        W37899  14.504   4.717   4.219  0.2231 -0.0208  0.1007
21426W        W37900   7.709   6.038  10.140 -0.0009 -0.0645  0.2035
21427W        W37901  16.591  10.312  13.643 -0.3641 -0.2335  0.1994
21428W        W37902  11.703  18.210  11.590 -0.0435 -0.1700 -0.1882
21429W        W37903   7.965  18.614  10.134 -0.0697  0.0881  0.0957
21430W        W37904  11.438   3.401  10.964 -0.2109  0.1155  0.0827
21431W        W37905  18.488  12.354   1.721  0.2199 -0.2672 -0.1120
21432W        W37906   9.837   8.058   0.936  0.2182 -0.1475  0.2091
21433W        W37907  10.545   2.229   0.012  0.1155 -0.3049  0.3329
21434W        W37908  16.063   1.686   3.240  0.1034  0.1752 -0.0843
21435W        W37909   0.123   2.128  13.523  0.1055 -0.2934 -0.1890
21436W        W37910   1.469  11.804   2.992 -0.1956  0.0157 -0.1021
21437W        W37911   8.456   5.799   2.607  0.0712  0.2105 -0.3227
21438W        W37912   5.128  10.022  11.224  0.1096  0.0794  0.2078
21439W        W37913   5.318  18.329  14.229  0.4314 -0.0401 -0.1512
21440W        W37914  16.185   8.011  10.162  0.1989 -0.1651 -0.0192
21441W        W37915   8.615   4.600  13.040  0.4732 -0.2019 -0.3762
21442W        W37916  10.756  16.210  14.322  0.1777 -0.1491  0.0727
21443W        W37917   9.653  10.913  14.451  0.1719  0.0396  0.0888
21444W        W37918  18.292   4.350   4.033 -0.2208 -0.0091  0.4808
21445W        W37919   8.011  15.590  12.757  0.0956 -0.3313  0.0892
21446W        W37920  10.357   8.773   0.074  0.0459 -0.0459 -0.0665
21447W        W37921   8.592  15.882   0.276 -0.2695  0.0590 -0.0651
21448W        W37922  10.744   4.918   1.502  0.0525  0.1013 -0.0952
21449W        W37923   9.625   9.813   2.326  0.0567 -0.1496  0.1750
21450W        W37924   7.508   9.412  10.011 -0.0556 -0.0282  0.2873
21451W        W37925   0.014  15.061   0.043  0.1244 -0.0370  0.0129
21452W        W37926  17.330   2.840  13.426  0.1542  0.0563 -0.2220
21453W        W37927  16.068  15.277  12.358  0.0776 -0.2521 -0.1329
21454W        W37928  17.748   4.848  13.913  0.2613 -0.2816 -0.0576
21455W        W37929   4.608   8.124   4.029  0.1809 -0.1724  0.0730
21456W        W37930  10.945  17.473   0.900 -0.2225 -0.1288  0.1465
21457W        W37931   8.429  16.965   1.242 -0.1841 -0.0028  0.0864
21458W        W37932   2.471   2.338   2.420  0.1049 -0.3460 -0.1333
21459W        W37933  17.862   9.653  12.356 -0.0371  0.3157  0.0424
21460W        W37934   2.197  14.153  14.505 -0.0830  0.0366 -0.2448
21461W        W37935   6.618   8.940  14.735 -0.2577 -0.0449  0.2206
21462W        W37936  16.458  10.757   4.727  0.1606  0.0059  0.1096
21463W        W37937  15.838   5.954   4.605  0.1682  0.3582 -0.3282
21464W        W37938   0.058   0.379   1.126  0.3317  0.1504  0.1640
21465W        W37939  15.861   8.628   4.143 -0.4190  0.0781  0.1193
21466W        W37940   1.020   5.053   4.774 -0.0543 -0.1185 -0.0432
21467W        W37941  16.414  15.503  13.603 -0.0303  0.1572 -0.3568
21468W        W37942  13.015   2.949  10.529  0.1300 -0.1728 -0.0779
21469W        W37943   4.599  18.776  11.723  0.0934 -0.4932  0.0939
21470W        W37944  15.785   5.250   3.560 -0.1680 -0.0346  0.0049
21471W        W37945   4.751   2.525  11.172 -0.1082 -0.1816 -0.1307
21472W        W37946   5.864  15.322   0.670 -0.0092 -0.1870  0.3171
21473W        W37947  13.763   8.981   1.181  0.2853  0.0150 -0.0774
21474W        W37948   9.580  14.175   1.825  0.2204  0.0585  0.3419
21475W        W37949   9.753   7.227   2.769  0.1276 -0.0425  0.0151
21476W        W37950  18.223   4.419  12.743  0.0489  0.2699 -0.1474
21477W        W37951   2.886   1.846  14.603 -0.2832  0.0430  0.1716
21478W        W37952   9.036  11.043  12.667  0.0241 -0.1556  0.0744
21479W        W37953   2.100  18.390  13.880  0.3255 -0.1663  0.0212
21480W        W37954   8.683  14.319  12.004  0.1427  0.0431  0.3344
21481W        W37955   0.291  11.435  12.507  0.1174  0.3501  0.0266
21482W        W37956   0.165   0.259  10.579  0.0716  0.0305  0.0298
21483W        W37957  10.917   6.351   2.415  0.0969 -0.2464 -0.0405
21484W        W37958  10.741  15.945  13.530 -0.1112 -0.0995  0.0678
21485W        W37959   2.623   7.697   4.629  0.0285 -0.1006 -0.0118
21486W        W37960   1.805   7.664  10.842  0.3664 -0.0694 -0.1585
21487W        W37961   0.384   8.855   0.004 -0.0017 -0.0700 -0.3034
21488W        W37962   4.390  13.798   1.442  0.1740  0.1199 -0.3300
21489W        W37963   4.005  14.225  10.372 -0.1256  0.2239  0.2541
21490W        W37964   8.977   2.843  14.816 -0.0192  0.0843 -0.0718
21491W        W37965  10.921   4.098   3.470  0.0260  0.0518  0.0150
21492W        W37966   9.164  15.756   5.107 -0.0571  0.2446  0.3176
21493W        W37967   7.766   6.272   2.783  0.1673  0.0916  0.0513
21494W        W37968   8.411   0.975   1.966 -0.5502  0.1694 -0.1502
21495W        W37969  15.693  18.541   0.705  0.1095  0.0578  0.0028
21496W        W37970   5.052   7.490  12.412 -0.1393 -0.0273  0.1544
21497W        W37971   9.072   0.840  12.094 -0.3676 -0.3345  0.0834
21498W        W37972   0.066   7.602  12.750  0.1349 -0.0879  0.0671
21499W        W37973  17.990  13.054  13.866 -0.0770 -0.1530  0.2337
21500W        W37974   0.344   3.594  13.419  0.1528  0.1454 -0.0008
21501W        W37975   1.523   4.971  10.141  0.0441 -0.2229  0.0596
21502W        W37976  12.775  14.834  11.872  0.2797 -0.0801  0.0206
21503W        W37977  12.502  15.751  11.761 -0.1116 -0.3140 -0.0803
21504W        W37978   5.071  12.230   2.905  0.0854  0.1321 -0.1665
21505W        W37979  15.836  10.939  13.742 -0.0282  0.0452  0.0431
21506W        W37980   2.766   5.332   0.267  0.0773  0.1409 -0.0372
21507W        W37981  11.322   0.957   0.689  0.0383  0.2261 -0.3785
21508W        W37982  15.348   8.012   4.841  0.1242  0.0023  0.0185
21509W        W37983  14.320   5.235   1.735 -0.0692  0.0590 -0.3381
21510W        W37984   9.532   1.365   2.816 -0.0267 -0.1555  0.3417
21511W        W37985   4.712   0.044   3.421  0.1214 -0.2797  0.2648
21512W        W37986  13.381  13.269  10.776 -0.0275 -0.0795 -0.0448
21513W        W37987   9.337   2.463  12.313  0.2297 -0.3424 -0.2921
21514W        W37988  14.166   3.881  13.484 -0.1671  0.1321  0.0115
21515W        W37989   9.550  14.230  11.692  0.0086 -0.0503  0.0311
21516W        W37990  11.315   2.771   4.777 -0.1604 -0.1599 -0.2209
21517W        W37991  18.438   5.834   2.853 -0.0082  0.2424 -0.3466
21518W        W37992  15.741   0.249  13.585  0.0037  0.1594  0.0625
21519W        W37993   3.875  17.255   0.130  0.0303 -0.0344 -0.0010
21520W        W37994   8.949   5.077   2.608 -0.1375  0.0577 -0.0281
21521W        W37995  17.596  10.089   0.060 -0.1258  0.3316  0.2129
21522W        W37996   4.016   6.161   2.922 -0.1377 -0.2442  0.1378
21523W        W37997  14.516   0.282   2.691 -0.0536 -0.1889  0.0794
21524W        W37998  18.737   1.358  10.630 -0.0350 -0.0206 -0.3814
21525W        W37999  12.196  17.232   4.614  0.2260 -0.0792 -0.1847
21526W        W38000   1.117  18.704   5.818 -0.0447  0.0066 -0.0216
21527W        W38001  10.079   6.359   0.674  0.4166  0.0542 -0.0378
21528W        W38002  16.405   8.744   4.534  0.2699  0.1471 -0.0504
21529W        W38003  17.114  15.362   5.401 -0.1737 -0.1034  0.4719
21530W        W38004   9.654  16.937   4.577  0.1205 -0.0298 -0.0080
21531W        W38005   5.181   3.171  10.926 -0.0495 -0.0597 -0.0822
21532W        W38006   3.587   7.837  12.648  0.0718 -0.0332 -0.0456
21533W        W38007   8.296   8.563  14.714 -0.0372  0.1597 -0.1578
21534W        W38008   8.866   2.822   2.621 -0.2798  0.4308  0.1200
21535W        W38009   0.066   9.155   5.026 -0.1355 -0.4008  0.0232
21536W        W38010   1.541  17.473   2.243 -0.0994 -0.2707  0.3762
21537W        W38011  12.656  17.044  11.755 -0.1654 -0.1045 -0.1865
21538W        W38012   0.449  14.234   2.780 -0.2302 -0.1076 -0.1738
21539W        W38013  10.448  15.189   0.321 -0.0978 -0.1167  0.0666
21540W        W38014  18.852   8.055  13.886 -0.2301 -0.1093 -0.1381
21541W        W38015   2.703  16.166   0.079 -0.2472  0.3772 -0.0571
21542W        W38016   4.283   4.564  12.280  0.4671  0.3188 -0.0875
21543W        W38017  16.411  11.620   1.731  0.0776  0.1836  0.1804
21544W        W38018  17.269  10.419   4.927 -0.0302  0.0795 -0.2595
21545W        W38019   6.744  16.948  13.285  0.0016  0.0898  0.2069
21546W        W38020   3.874   9.516  11.629 -0.1053 -0.1789  0.0995
21547W        W38021   6.484  16.214  14.761 -0.1904  0.3264 -0.1506
21548W        W38022  14.632   9.596  13.872  0.0106 -0.2308  0.0314
21549W        W38023   2.381  15.771   2.634 -0.2867  0.0681 -0.0197
21550W        W38024  11.443   9.113   4.357  0.1784 -0.1009  0.0583
21551W        W38025  18.049  16.276   4.005  0.2686  0.3476  0.0249
21552W        W38026   3.090   6.083   1.072  0.2251 -0.1396  0.1346
21553W        W38027   1.199  13.708   0.515 -0.1267  0.1143 -0.4227
21554W        W38028  14.594  16.402   3.327 -0.0628 -0.0898 -0.1098
21555W        W38029  18.030  10.994   5.153  0.0699  0.0968 -0.1169
21556W        W38030  19.157   0.792  10.900  0.1220  0.1136 -0.2865
21557W        W38031   4.173   6.423   3.377  0.1295  0.0301 -0.2545
21558W        W38032  10.718  14.657   4.285  0.0356 -0.0997 -0.2193
21559W        W38033  15.492   7.648   1.121 -0.0605 -0.0373  0.2044
21560W        W38034   0.569  14.932   4.604  0.0770  0.0859 -0.3188
21561W        W38035  18.396   3.687   2.334  0.0607  0.1467 -0.2184
21562W        W38036  15.728  10.622   3.481 -0.0112 -0.2370 -0.1669
21563W        W38037  12.786   7.389   1.778  0.1168 -0.3845  0.6859
21564W        W38038   2.297   3.920   2.986 -0.1170 -0.1311 -0.1362
21565W        W38039  12.677  16.481  11.402  0.1379 -0.1666 -0.2365
21566W        W38040   0.498   9.383   4.948  0.1710  0.0238 -0.0035
21567W        W38041   4.929  10.950   2.685 -0.0554  0.2171 -0.2057
21568W        W38042   7.955   2.474  11.674 -0.0238 -0.2343  0.2679
21569W        W38043   5.731  15.152  10.853  0.0589  0.1935 -0.2375
21570W        W38044  10.630   0.640  11.949 -0.3873  0.3369  0.0102
21571W        W38045  14.006   6.292  11.136 -0.1269 -0.1618  0.0566
21572W        W38046  16.448  10.013   5.611  0.2243  0.2008  0.1021
21573W        W38047   8.856   0.706   3.915 -0.0582 -0.7177  0.4007
21574W        W38048  13.076   2.376   3.292  0.0148 -0.2665  0.2642
21575W        W38049  15.741  15.795   2.025  0.0774  0.0981 -0.0106
21576W        W38050   7.955   6.227   3.870  0.1443  0.0616  0.3302
21577W        W38051   9.523  10.240  14.113  0.3817  0.0846 -0.0592
21578W        W38052  15.215   2.257   3.270  0.3744  0.0744  0.1439
21579W        W38053  14.885   2.209  12.063 -0.1989  0.1868 -0.1582
21580W        W38054  17.243  10.324   2.162 -0.3416  0.2456 -0.1339
21581W        W38055   3.017   7.002   3.627 -0.0446  0.1213 -0.0561
21582W        W38056   6.309   7.413   3.174 -0.1804 -0.1585  0.1593
21583W        W38057   4.064   2.326  13.044  0.1682 -0.0824  0.1907
21584W        W38058  14.454  14.701   3.997 -0.4453  0.2028 -0.0426
21585W        W38059   6.376   9.736   1.456 -0.4001  0.0434 -0.2067
21586W        W38060   5.160  11.665  12.935 -0.2625  0.0814 -0.3590
21587W        W38061  10.502  17.104  11.539 -0.0495 -0.3182  0.0974
21588W        W38062  14.741   1.705  14.111  0.0022 -0.0611 -0.1944
21589W        W38063  18.059   0.703   1.842  0.1989 -0.2057  0.1581
21590W        W38064   7.863  14.431   3.172  0.0354 -0.3313 -0.2486
21591W        W38065   8.557  14.440   1.075 -0.0319  0.0452  0.2410
21592W        W38066   5.030  16.453   0.502 -0.1427 -0.1269 -0.4814
21593W        W38067  17.940  16.153  14.047  0.2363 -0.2445  0.1376
21594W        W38068  18.298   9.585  10.576 -0.2044  0.1313 -0.0148
21595W        W38069  16.073  14.802  12.508 -0.0477 -0.1310 -0.0507
21596W        W38070  11.825  10.932   2.214  0.2944 -0.1328 -0.2257
21597W        W38071   6.263  15.735  12.166  0.0570 -0.0281  0.3415
21598W        W38072  17.609  17.039   2.180 -0.0537 -0.4248  0.0429
21599W        W38073   1.817  13.272  14.184 -0.2445 -0.2011  0.3830
21600W        W38074  12.067   4.561   0.936 -0.2621  0.0548  0.1981
21601W        W38075  16.631   7.387  12.473 -0.1339 -0.2615 -0.0427
21602W        W38076  10.210   6.221  11.871 -0.1549 -0.1426  0.0231
21603W        W38077   5.985   2.441   2.644 -0.1702 -0.2839  0.1179
21604W        W38078  19.085   5.971   4.754  0.0472 -0.3115 -0.4267
21605W        W38079  14.007   4.068  10.873 -0.1092  0.1844  0.0557
21606W        W38080   7.510  15.104  13.770  0.1690  0.1179  0.0538
21607W        W38081   1.989  14.110  11.781 -0.0282  0.1242 -0.1649
21608W        W38082  17.682  10.389   2.684  0.3357 -0.1307 -0.2784
21609W        W38083  15.788   3.816   4.153  0.3265  0.0330  0.0565
21610W        W38084   9.072  15.213  10.792  0.1245 -0.0662  0.3444
21611W        W38085  12.118  18.478  11.977 -0.1183  0.0383  0.1904
21612W        W38086   0.745   0.662  10.900  0.0175  0.2206  0.0981
21613W        W38087   6.012   5.373  14.437 -0.0660  0.0598  0.1216
21614W        W38088   0.280   5.104  13.276  0.1332 -0.0242  0.2073
21615W        W38089   1.737   7.535   4.278 -0.0348 -0.1455 -0.1936
21616W        W38090  18.974  11.099  13.859  0.1079 -0.4247 -0.1337
21617W        W38091  11.311  10.268   1.404  0.2170  0.0109 -0.2301
21618W        W38092  16.789  18.115  13.266  0.2301  0.2532 -0.1585
21619W        W38093  11.910   9.037  13.541 -0.1107  0.0940 -0.0277
21620W        W38094  18.786  17.848  14.714  0.0570  0.0648  0.2236
21621W        W38095  13.251  12.519  12.544 -0.1426 -0.2880  0.1590
21622W        W38096   6.870   2.667  12.984  0.1764  0.0265 -0.2667
21623W        W38097  10.018   0.653   3.080  0.2589  0.2882 -0.2567
21624W        W38098   9.540  19.261   0.845  0.1237  0.0973 -0.1886
21625W        W38099  12.642   8.821  10.508 -0.0494 -0.1756 -0.1375
21626W        W38100  15.001  11.912   4.490  0.0842 -0.0432 -0.0288
21627W        W38101  14.010  17.356  14.618 -0.1357  0.0137 -0.0535
21628W        W38102   7.462  14.466   1.019 -0.0260  0.1688 -0.0313
21629W        W38103   8.676  18.283  14.006 -0.0872  0.1764  0.7430
21630W        W38104   9.529  18.484   4.045  0.2120 -0.0892  0.1179
21631W        W38105  11.535   0.824   0.271 -0.1286  0.2421  0.0141
21632W        W38106  10.000   5.749  14.297 -0.0213 -0.2584  0.1362
21633W        W38107   6.375   7.067  14.428  0.1579 -0.1242  0.1377
21634W        W38108  15.132   0.566  12.031  0.2194 -0.1724 -0.1333
21635W        W38109   0.740   6.731   2.865 -0.1055  0.0154 -0.0697
21636W        W38110   1.320  19.002  12.806  0.1777 -0.1061  0.4288
21637W        W38111   0.846  14.278  12.560 -0.0187  0.2995  0.0652
21638W        W38112  16.042   2.617   2.829  0.1042  0.0525  0.0815
21639W        W38113  14.610   0.879   2.014 -0.4799 -0.4157  0.0186
21640W        W38114  10.733  17.397  10.703 -0.1071  0.0166 -0.0131
21641W        W38115  16.226   2.145   3.541 -0.1265  0.3989 -0.1575
21642W        W38116  12.475  16.777  13.914  0.1697  0.2806  0.2164
21643W        W38117  11.111  17.595  12.893  0.0815  0.4418 -0.0741
21644W        W38118   1.533   8.462  10.788 -0.0591 -0.0786  0.0450
21645W        W38119   2.847  16.749  13.850 -0.1298  0.2993 -0.0104
21646W        W38120  12.966   5.246  14.867 -0.0043  0.0287  0.0399
21647W        W38121   8.025   5.852  12.282  0.2543  0.0019 -0.1048
21648W        W38122  18.875  16.850  11.879  0.0645  0.1359 -0.1707
21649W        W38123   0.118  10.457   2.014 -0.1023 -0.0531  0.0179
21650W        W38124  15.836  13.961  12.859 -0.0914 -0.1636 -0.2427
21651W        W38125  10.939   6.551  10.740 -0.2102  0.1045  0.0606
21652W        W38126  16.670   0.520  12.719  0.0279 -0.2331  0.0080
21653W        W38127  10.525   5.413  12.768 -0.0218  0.0736  0.1526
21654W        W38128   0.333  13.920  12.777  0.0719 -0.2110  0.0432
21655W        W38129   2.411   3.772   0.950 -0.3102 -0.0150  0.0777
21656W        W38130  15.952  13.176  13.811  0.4106 -0.0164 -0.2036
21657W        W38131   5.287   5.307  14.208 -0.1655 -0.0883  0.2421
21658W        W38132   8.340  13.696  11.724 -0.0666 -0.1304 -0.0993
21659W        W38133  14.734   4.459   0.643 -0.1021 -0.1236  0.1314
21660W        W38134  18.078  12.530   5.102 -0.1043  0.0868  0.0599
21661W        W38135   4.152  12.390   2.241  0.0470  0.2043  0.0015
21662W        W38136  10.412   5.201   0.438 -0.0013 -0.3131  0.1900
21663W        W38137   6.231   5.079  12.891 -0.0087  0.5395  0.2657
21664W        W38138   2.057   3.137   2.691 -0.0918 -0.2137  0.1567
21665W        W38139   3.720  10.376  11.766 -0.3214 -0.1059  0.3871
21666W        W38140   4.685  13.368  10.599  0.2243  0.0280  0.0302
21667W        W38141  15.001   4.860   3.744 -0.1546 -0.0970  0.0250
21668W        W38142   4.672   3.424  10.921  0.4323 -0.1864 -0.0842
21669W        W38143   7.940   0.371  11.648 -0.2444 -0.0875 -0.2197
21670W        W38144   9.298   9.147  14.518  0.3620 -0.0084 -0.2300
21671W        W38145  16.279  12.512  14.779  0.1628 -0.1168 -0.2334
21672W        W38146   4.792   3.077   3.053 -0.0127 -0.0262  0.2521
21673W        W38147   3.980  10.471   1.474 -0.1109 -0.1755  0.1367
21674W        W38148  10.688  10.625  14.172 -0.0268  0.0137  0.0216
21675W        W38149   7.764   8.375   9.237 -0.0483  0.1168 -0.0087
21676W        W38150   4.116   6.866  14.005  0.2601 -0.2617  0.0748
21677W        W38151  12.286   2.594  13.143 -0.0754 -0.0138  0.1426
21678W        W38152  10.618   6.608   4.765 -0.0828  0.0532  0.0461
21679W        W38153   3.277   3.316   3.577  0.1748 -0.1292 -0.0111
21680W        W38154   9.250  17.247   4.748 -0.0831  0.0596 -0.0113
21681W        W38155  10.493   0.288  12.469 -0.1335 -0.2894  0.1044
21682W        W38156  15.279  14.743  11.991 -0.2625 -0.2188  0.2201
21683W        W38157  14.216  17.867  12.765  0.1387 -0.0749 -0.0325
21684W        W38158  16.381  14.055  13.406  0.0349  0.1067  0.0738
21685W        W38159   7.644   6.803  13.017 -0.1537 -0.0043 -0.1412
21686W        W38160   3.573   4.480   3.333  0.1740 -0.1670 -0.5952
21687W        W38161  18.049   1.168   5.156  0.0994 -0.0403  0.1630
21688W        W38162   3.178  13.165   3.200 -0.1835  0.0809  0.0965
21689W        W38163   0.639   2.191  10.853 -0.0436  0.0456 -0.3101
21690W        W38164   6.464   6.067   1.717 -0.0523 -0.0700 -0.2649
21691W        W38165  12.353   3.766   1.022  0.1948  0.1808  0.2048
21692W        W38166   1.060   7.112  12.321 -0.1946  0.0960  0.1797
21693W        W38167  13.066  15.947   4.316  0.0273  0.2523  0.1994
21694W        W38168  12.768   9.355   5.433  0.3329  0.0391  0.3985
21695W        W38169   6.143  19.160   2.952 -0.0426  0.4355  0.3122
21696W        W38170  13.266  18.704   1.364 -0.0151  0.4334  0.2474
21697W        W38171  16.332  18.000  12.288 -0.1604 -0.0280 -0.1278
21698W        W38172  12.821  12.218  10.556 -0.0568  0.1311 -0.0331
21699W        W38173  15.385   4.444   3.033 -0.0025  0.0102 -0.2538
21700W        W38174   4.008   1.145   3.267 -0.2889  0.0153 -0.3055
21701W        W38175   3.768   4.254  12.990 -0.0797 -0.4017  0.1851
21702W        W38176   1.052  16.319  11.916 -0.1842  0.4223  0.2047
21703W        W38177  10.400  14.153   3.634 -0.1590 -0.2885 -0.0635
21704W        W38178   0.302  12.170  13.856 -0.0027 -0.2609  0.0922
21705W        W38179   9.779  18.576   1.453 -0.3530  0.3164  0.5012
21706W        W38180   9.305   9.423   2.110  0.1093  0.0667  0.3088
21707W        W38181   0.986   3.055   0.129  0.0767  0.1019  0.1050
21708W        W38182  18.489   5.972   5.481 -0.0893 -0.2722  0.0803
21709W        W38183  16.763   3.900  14.510  0.0830 -0.1054  0.3059
21710W        W38184   1.405   0.209   2.417 -0.4203  0.3950  0.2487
21711W        W38185   0.445  17.675  11.807 -0.1475  0.3036 -0.2408
21712W        W38186   3.903   2.686   3.786 -0.0131  0.3349  0.2654
21713W        W38187  15.160  10.663  13.322  0.2107 -0.0118  0.1326
21714W        W38188  16.615  13.564  13.275 -0.0571  0.2151 -0.0167
21715W        W38189  10.100   0.521   2.618  0.2271 -0.0123 -0.1004
21716W        W38190  14.176   4.754   1.964 -0.3676  0.0209 -0.2905
21717W        W38191  12.922   8.888  11.963  0.3804  0.0976  0.5103
21718W        W38192  16.826   5.187  11.584 -0.0536  0.0073  0.0363
21719W        W38193  16.954   4.052   4.776 -0.1798  0.0556  0.4036
21720W        W38194   1.621  17.403  12.140 -0.3302  0.0773  0.1692
21721W        W38195   4.001  17.251   4.836 -0.4390  0.1936  0.0860
21722W        W38196  18.298   7.379  11.116  0.2845  0.3224 -0.2895
21723W        W38197   1.039   6.315   0.004  0.0472  0.2460  0.4191
21724W        W38198   2.940  15.458   5.365 -0.1518  0.0743  0.3640
21725W        W38199  15.777   6.154  12.084 -0.1670  0.2185 -0.0965
21726W        W38200   4.877   5.070   3.472  0.2771 -0.3277  0.1735
21727W        W38201   7.129  11.803   0.934 -0.0353 -0.1990 -0.1412
21728W        W38202   8.580   6.621  11.497  0.0129  0.0155  0.1652
21729W        W38203  10.303  13.999  14.816  0.0596  0.0648 -0.0086
21730W        W38204   4.162   4.156  11.497  0.2667 -0.1316 -0.1179
21731W        W38205  10.114   1.572  11.298  0.2468 -0.1467  0.0067
21732W        W38206  17.578   2.316  12.532  0.2458 -0.0968  0.1124
21733W        W38207  18.725  14.869   1.403  0.2410  0.1219  0.1123
21734W        W38208   7.831   7.170   4.075 -0.0013 -0.5577  0.0599
21735W        W38209  15.184  17.192  11.278 -0.2673 -0.0031 -0.2230
21736W        W38210   6.669   6.939   2.122  0.1744 -0.0004 -0.0152
21737W        W38211  16.120   5.625   1.954 -0.2013 -0.0029 -0.1083
21738W        W38212  11.309   8.528   0.717 -0.2316 -0.1067  0.0413
21739W        W38213   5.924   5.363  10.886 -0.1536  0.1510 -0.0052
21740W        W38214   2.330   9.519  14.770  0.1217 -0.0593  0.2049
21741W        W38215   4.184  17.481   3.917  0.2202 -0.2421 -0.1464
21742W        W38216  18.490  16.037   3.867 -0.0352 -0.1429  0.2049
21743W        W38217   2.637   8.861   0.037  0.4172  0.3143  0.0268
21744W        W38218   9.547  15.194   2.017 -0.1923  0.4863  0.1747
21745W        W38219  11.811   4.315  11.141  0.0823  0.1588  0.1474
21746W        W38220  19.086  10.997  10.749  0.2486  0.0904  0.0485
21747W        W38221  12.776  14.747  10.618  0.0929  0.0023 -0.1562
21748W        W38222  19.314  11.286  13.432 -0.0405 -0.1121 -0.0514
21749W        W38223  16.170  14.113   0.844  0.2407 -0.1667 -0.4029
21750W        W38224   9.168  14.581  14.043  0.3261 -0.3492 -0.2402
21751W        W38225   9.635  13.818   2.963  0.1037  0.1061  0.0210
21752W        W38226  15.136   0.784  10.078  0.0161 -0.1907  0.1528
21753W        W38227  18.758   7.515  11.495 -0.0039  0.0570  0.1196
21754W        W38228   6.137  14.413   3.564 -0.0301 -0.2010  0.0926
21755W        W38229   1.188  15.967  12.765  0.3227  0.0339  0.1176
21756W        W38230  16.393  11.915   3.316 -0.0898 -0.0966  0.3314
21757W        W38231   9.321   1.844  14.777  0.0981  0.0677  0.0512
21758W        W38232  12.802  17.320  14.639  0.1025  0.4287 -0.0319
21759W        W38233  15.059   7.968  11.129  0.2566 -0.0063  0.0637
21760W        W38234  13.904  13.849   3.878  0.2906  0.0322 -0.0530
21761W        W38235   5.928   0.803  14.084  0.2487 -0.1583  0.0353
21762W        W38236  13.222  14.185  11.213  0.1168  0.3062  0.2803
21763W        W38237  17.231  18.424  14.686  0.1599  0.0518 -0.2702
21764W        W38238  12.840  17.092   2.612 -0.0351 -0.0818 -0.2453
21765W        W38239  13.398  16.926   0.482 -0.2443 -0.0095  0.0161
21766W        W38240   8.901   4.036  11.147 -0.0037  0.0414  0.0923
21767W        W38241  11.391   9.255   1.328 -0.0271 -0.0594 -0.0162
21768W        W38242  10.965   4.080  11.308 -0.0687  0.0793 -0.3551
21769W        W38243   9.004  16.897  12.652  0.2800 -0.2715  0.0881
21770W        W38244   2.399  10.788   1.797 -0.2362 -0.0937 -0.0450
21771W        W38245  11.411  16.405   3.381 -0.3787 -0.0091  0.4112
21772W        W38246  18.396  10.565   3.308 -0.0944  0.1031  0.0814
21773W        W38247   2.859  18.703  12.136  0.0408 -0.4954  0.1759
21774W        W38248   8.175  11.935   0.836  0.1442 -0.2074 -0.0315
21775W        W38249  15.512  12.937   1.272 -0.1284  0.2945 -0.1247
21776W        W38250   4.054   1.954   1.589 -0.1783 -0.1869  0.1318
21777W        W38251  19.076  16.206   1.665 -0.1889  0.1772  0.2935
21778W        W38252  15.772  12.905  12.424  0.0788 -0.1636  0.2679
21779W        W38253   2.938  16.028   1.348  0.0968  0.1667 -0.0867
21780W        W38254   3.427  10.812   0.702 -0.1209 -0.1217  0.0681
21781W        W38255  15.037   2.248   5.496 -0.1988 -0.1098  0.1296
21782W        W38256   1.874  12.975   4.822  0.1928 -0.0940 -0.0222
21783W        W38257  17.059   5.762   2.472 -0.1346  0.0664  0.0057
21784W        W38258  13.817   0.500   2.430 -0.0339  0.2932 -0.1007
21785W        W38259  15.762  15.312   1.947  0.0209  0.0357 -0.0966
21786W        W38260  17.261   6.464   0.888 -0.2827 -0.1394  0.2699
21787W        W38261  18.756   3.966   1.392 -0.1099  0.0505 -0.0070
21788W        W38262   6.415  18.610  11.908  0.1887  0.0326  0.1664
21789W        W38263  18.090   1.326   3.480 -0.3092 -0.0371 -0.2053
21790W        W38264  10.989  11.571   4.003  0.0286  0.0715  0.0132
21791W        W38265   0.956  14.746   2.139 -0.1265  0.1145  0.0808
21792W        W38266  14.899   0.741   0.273  0.0377 -0.1625 -0.1228
21793W        W38267   8.039  15.574   0.028  0.2074  0.0216  0.2231
21794W        W38268   2.791   8.159   3.524  0.0567 -0.0529  0.3795
21795W        W38269  17.287   6.911   1.050 -0.1119 -0.0347 -0.1032
21796W        W38270  12.710   3.484  11.273 -0.2356  0.0571 -0.2194
21797W        W38271   4.886  18.928   0.897  0.5316 -0.1082  0.1540
21798W        W38272  15.087  10.783   1.153 -0.2132  0.0271  0.0270
21799W        W38273  10.901   9.389   3.088 -0.1676 -0.4586 -0.1060
21800W        W38274  17.754   3.481  12.880 -0.2754  0.0422  0.1288
21801W        W38275   4.606  18.912   5.086 -0.2448  0.1056 -0.2549
21802W        W38276  11.083  13.594  10.221  0.2857 -0.1201 -0.1795
21803W        W38277  18.537   6.788   4.272 -0.0025  0.1452  0.2521
21804W        W38278   5.385  15.339   3.101 -0.2412 -0.3080 -0.2323
21805W        W38279   9.051  14.675  11.757  0.1387 -0.1362  0.1827
21806W        W38280  13.494   2.065   4.891  0.0987 -0.3663  0.2255
21807W        W38281  16.398   2.805   2.113  0.1461  0.0329  0.2718
21808W        W38282  18.226  16.512   0.294  0.2943  0.0645 -0.1365
21809W        W38283   6.424  18.041   3.493 -0.1186 -0.6403  0.0097
21810W        W38284   7.715   9.504  12.656 -0.0302 -0.4281 -0.3378
21811W        W38285  10.394  18.274  14.522 -0.0161 -0.1816  0.1236
21812W        W38286  15.828  15.446  12.874  0.0265  0.0346  0.0246
21813W        W38287  19.149  19.102   3.472 -0.3538 -0.3926 -0.1060
21814W        W38288   0.715   5.427  12.893 -0.1120  0.3464  0.0617
21815W        W38289  10.593  16.749  10.630 -0.0931 -0.0597  0.0448
21816W        W38290  13.997   7.465   5.385 -0.0265 -0.1028 -0.0177
21817W        W38291   4.220   8.720  10.087  0.0232  0.1271 -0.1486
21818W        W38292  15.517   2.389   1.299 -0.1048 -0.0116 -0.0041
21819W        W38293   9.835  12.679   0.943 -0.0114 -0.0232  0.2839
21820W        W38294   1.071   7.846   2.659  0.2971 -0.1712  0.0475
21821W        W38295  10.341  14.593  10.800 -0.0826  0.1894  0.1588
21822W        W38296   8.445   6.780  12.138 -0.2462  0.0978 -0.1541
21823W        W38297  11.067  16.799  12.544  0.0234  0.0230  0.0239
21824W        W38298  14.670   8.285  11.126  0.1275 -0.0815 -0.0282
21825W        W38299  18.675   7.395   4.951 -0.2583  0.0961 -0.3580
21826W        W38300   4.637   2.065  10.235  0.0950  0.0244 -0.2283
21827W        W38301   2.187   7.473   1.605 -0.1121 -0.3568 -0.3077
21828W        W38302  10.576  11.981  11.318  0.0481  0.3905 -0.0951
21829W        W38303   6.993   9.479  10.844 -0.0983  0.0766  0.4051
21830W        W38304   4.270   4.961   2.719 -0.0136 -0.2880  0.0917
21831W        W38305   4.605  12.275   0.001  0.2518  0.0485  0.0523
21832W        W38306  15.399   9.458  13.891 -0.3155  0.2760 -0.2629
21833W        W38307   0.212   2.154  10.189 -0.0797 -0.0050 -0.2618
21834W        W38308  14.527  13.516   1.987  0.1717 -0.1739  0.2136
21835W        W38309   4.467  15.183  12.883  0.5205 -0.4881 -0.1446
21836W        W38310  16.865   3.939   5.237 -0.1016  0.0323  0.1173
21837W        W38311  18.747   1.950   1.137  0.1101 -0.1039 -0.0965
21838W        W38312   1.496  16.093   5.198  0.0420 -0.3105 -0.1780
21839W        W38313  17.997  17.370  14.505 -0.0177  0.1468 -0.2312
21840W        W38314   2.012  14.841   3.154 -0.1180 -0.0357  0.0267
21841W        W38315  15.201   7.808  14.163  0.0172 -0.2291  0.0441
21842W        W38316  18.686   4.022   4.167  0.6030  0.0195 -0.2355
21843W        W38317  12.313   6.624   4.301  0.1729  0.4840  0.0323
21844W        W38318   3.406   8.004  14.141 -0.1213  0.4668 -0.0969
21845W        W38319  14.908   2.790  12.150  0.1099  0.0366  0.1137
21846W        W38320   0.452  16.063   2.387 -0.1964  0.0761  0.1669
21847W        W38321   8.039  15.651  10.512 -0.1197 -0.2331  0.1512
21848W        W38322  14.515   9.672   2.277  0.0633  0.0890 -0.4569
21849W        W38323  18.840   8.511   1.791 -0.1145  0.1908  0.2615
21850W        W38324  14.244   3.477   5.357 -0.1225  0.1033 -0.2597
21851W        W38325   0.301  17.072  13.571  0.0367  0.2283  0.1067
21852W        W38326   5.579   2.460   3.464 -0.0432 -0.0282 -0.1195
21853W        W38327   8.791   9.828  12.776 -0.2911  0.1644 -0.1216
21854W        W38328   4.193  10.337   4.338  0.1315  0.1694  0.1881
21855W        W38329   7.902   9.979   3.739 -0.3326  0.0299 -0.0518
21856W        W38330  16.612  15.437  13.121 -0.0360 -0.3025 -0.0064
21857W        W38331   4.420   5.907   1.154  0.2536  0.1280 -0.1579
21858W        W38332  11.083  10.176  13.915  0.0587  0.1464  0.1011
21859W        W38333  17.175  15.919  14.776  0.1170 -0.3027 -0.1164
21860W        W38334  10.623   4.068  12.778  0.0723 -0.2017 -0.0043
21861W        W38335  15.824   0.043   9.800 -0.2393 -0.1385 -0.0277
21862W        W38336   9.913  12.796  13.469 -0.2529  0.0442 -0.1259
21863W        W38337   3.102  12.507   2.386 -0.0825 -0.2317 -0.0878
21864W        W38338  12.869  12.922  13.763 -0.1676 -0.1886  0.2788
21865W        W38339  16.659  14.005   0.772  0.0564 -0.0521 -0.0235
21866W        W38340   3.424   0.363  14.852  0.0603  0.0616 -0.1419
21867W        W38341  13.943  11.915  10.905  0.0871  0.2140 -0.2288
21868W        W38342  12.005  17.278  12.835  0.1872 -0.0941  0.0292
21869W        W38343   2.803   5.465  13.509  0.0337 -0.4239 -0.0871
21870W        W38344  17.927   3.785  14.147 -0.0411  0.1293 -0.3549
21871W        W38345   6.798   5.643  14.753 -0.0830  0.2861 -0.2802
21872W        W38346   6.389   2.526  10.334 -0.1460 -0.2651  0.1664
21873W        W38347  11.516   7.880  13.037 -0.1199 -0.1374 -0.1760
21874W        W38348  13.536  13.208  14.095 -0.1055  0.0581 -0.1836
21875W        W38349  11.312   5.651  14.690  0.0899  0.0496  0.4474
21876W        W38350  13.216   1.525   2.678 -0.1545 -0.1004 -0.1209
21877W        W38351   0.307   9.610  14.389 -0.0279 -0.3694  0.2668
21878W        W38352  13.380  17.574   2.789  0.0241 -0.0764 -0.1170
21879W        W38353   1.107  14.372  13.648  0.0192 -0.0526  0.0408
21880W        W38354   6.815  16.951   3.723  0.0384  0.1369 -0.1053
21881W        W38355  14.140   1.121  14.007 -0.3679 -0.0130  0.0928
21882W        W38356  14.597  18.584  13.244  0.0472  0.1856  0.1011
21883W        W38357   0.668   5.443  13.373  0.0934  0.1929 -0.0509
21884W        W38358   8.927   6.497  14.295 -0.1198  0.2299 -0.2060
21885W        W38359  14.163   6.255   5.033 -0.0433 -0.1869  0.0457
21886W        W38360   3.029   6.834   4.122 -0.2379 -0.0316 -0.1230
21887W        W38361  18.572   5.748   3.982 -0.1151  0.2656  0.1282
21888W        W38362   6.863   5.710   4.634  0.2892  0.1246 -0.1836
21889W        W38363  12.092  18.818  13.873  0.0282 -0.0728  0.0231
21890W        W38364   7.829  12.847   2.395  0.1595  0.0953  0.2089
21891W        W38365   4.148   3.055  14.327 -0.0313 -0.1403 -0.0174
21892W        W38366  16.685   3.329  13.742 -0.0745 -0.1705  0.0556
21893W        W38367   6.599  16.077  10.371 -0.2039 -0.3109 -0.0281
21894W        W38368   5.689  19.100   1.386  0.2224 -0.1457 -0.1408
21895W        W38369   2.139  17.947  13.224 -0.1795  0.0152 -0.0132
21896W        W38370   7.639   0.096   2.105 -0.1374  0.1794  0.0063
21897W        W38371   2.547   0.073  14.868  0.0500 -0.0648 -0.0026
21898W        W38372  11.842   7.195   2.198 -0.0846 -0.0948 -0.2450
21899W        W38373   2.526   7.116  11.379  0.0648  0.1335  0.0310
21900W        W38374   7.993   6.764  13.411  0.1798  0.0218  0.0150
21901W        W38375  14.723  13.794  13.423  0.0307  0.0584  0.3766
21902W        W38376  14.171  14.330   0.570  0.4082  0.2885 -0.4372
21903W        W38377  13.043  10.980  13.234 -0.0129  0.2822 -0.0598
21904W        W38378  12.124   7.395  14.144 -0.1307  0.0745 -0.4284
21905W        W38379  17.458  16.961   9.529  0.1641 -0.0886  0.0855
21906W        W38380  15.562   7.046  10.997  0.0582 -0.0182  0.1243
21907W        W38381  15.920  15.583  10.374 -0.0081 -0.0293  0.3212
21908W        W38382   6.265  15.255  12.461  0.2930 -0.2161  0.0415
21909W        W38383  17.466   3.937   4.199 -0.0675  0.1973 -0.3118
21910W        W38384  10.448  15.195  14.161 -0.0717  0.1261  0.1395
21911W        W38385  12.439   4.906   9.795 -0.1298 -0.2567 -0.1715
21912W        W38386   2.333   0.363   3.324 -0.0718  0.2819 -0.2128
21913W        W38387   8.021   1.765  14.548 -0.1442  0.0209  0.1778
21914W        W38388   2.030  10.072  11.032  0.1441 -0.1597  0.1489
21915W        W38389   6.937   1.884  13.794 -0.0842 -0.2291  0.1923
21916W        W38390  16.533   3.218  10.088 -0.0341  0.0175  0.1185
21917W        W38391   7.220   9.837   2.531 -0.1300 -0.2169 -0.0524
21918W        W38392  17.336   4.510   2.843  0.4381  0.1749 -0.1352
21919W        W38393  10.956  15.740   0.917 -0.2457  0.0206  0.3111
21920W        W38394   8.157   2.244  14.416  0.1611  0.2182  0.3698
21921W        W38395  16.025  14.343  11.934  0.0098  0.2644  0.1272
21922W        W38396  15.513   3.603   0.230 -0.3124 -0.0210 -0.1178
21923W        W38397  15.324  13.361  14.855 -0.2404  0.1895  0.1367
21924W        W38398  17.691  10.581   0.338  0.0157  0.3157 -0.0758
21925W        W38399  11.429  10.037   9.792 -0.0671 -0.0158  0.2313
21926W        W38400   5.444  14.357  13.428  0.2775 -0.0225  0.2418
21927W        W38401   3.089   1.521  13.242 -0.0462 -0.3211 -0.0841
21928W        W38402  14.744   7.505  12.818  0.3530 -0.3737 -0.1911
21929W        W38403  11.051  15.589   1.401  0.1243  0.0275 -0.0640
21930W        W38404   7.245  17.694   1.377  0.0696 -0.4841 -0.0115
21931W        W38405  13.381   5.732  13.629  0.0180  0.0610 -0.1237
21932W        W38406  12.732   7.951  13.680 -0.2877 -0.2215  0.2131
21933W        W38407   4.578  17.753  12.907  0.0082  0.0352  0.0482
21934W        W38408  16.617  12.077   0.776 -0.0876 -0.3199  0.0994
21935W        W38409   2.066   2.997  14.653 -0.1688  0.1913 -0.1714
21936W        W38410   6.727   6.189  12.010 -0.1123  0.0690  0.1570
21937W        W38411   5.366   8.055  14.515 -0.2052 -0.2101 -0.2812
21938W        W38412   3.222  10.065  11.709  0.1250  0.1659 -0.2930
21939W        W38413   4.794   8.894   3.411  0.1417 -0.2457  0.3569
21940W        W38414   4.555   3.867  12.446  0.1966 -0.1687  0.1234
21941W        W38415   5.100  13.045   9.914  0.4569  0.1602  0.2071
21942W        W38416   8.574   6.733   2.156  0.0144  0.0423  0.1720
21943W        W38417   6.483  14.919   5.210  0.1421 -0.0199 -0.0343
21944W        W38418  17.821   0.055   3.312  0.0927 -0.1543  0.2512
21945W        W38419  12.557  10.305   0.420 -0.0004  0.1527 -0.2143
21946W        W38420   7.603   3.213   2.851  0.1772 -0.3666  0.0020
21947W        W38421   6.637  14.599   4.434  0.0548 -0.1192 -0.0689
21948W        W38422  12.842   1.431  13.689  0.2320  0.0459  0.1329
21949W        W38423   9.713  18.545   3.001  0.0593 -0.2580 -0.2898
21950W        W38424  19.077   4.172   3.102  0.1770  0.0710  0.2896
21951W        W38425  16.213  13.778  13.075 -0.0579 -0.1147  0.3001
21952W        W38426   6.728   0.382   8.813 -0.2112 -0.2060  0.1166
21953W        W38427   9.010  17.085   5.213 -0.3987  0.1013  0.1220
21954W        W38428  11.367  12.744   1.803  0.0596  0.2430 -0.3194
21955W        W38429   5.373  13.202   3.302 -0.0561 -0.2255  0.1166
21956W        W38430   0.767  13.654   1.535  0.1117  0.1075  0.0822
21957W        W38431  10.814   2.036  10.677 -0.1125  0.5489 -0.0809
21958W        W38432  10.807   4.842   0.314  0.2116 -0.1240  0.3017
21959W        W38433  13.209   0.300  13.505 -0.0294  0.0849 -0.0017
21960W        W38434   6.586   4.190   2.237  0.1644 -0.0997 -0.1014
21961W        W38435   3.032  16.299   3.506  0.0907  0.0240  0.3682
21962W        W38436   4.323   9.014   3.711 -0.0088  0.0807  0.2614
21963W        W38437  11.508  11.958  10.284 -0.0557 -0.2547  0.0134
21964W        W38438  15.401   9.503   5.139  0.2015 -0.1104  0.0308
21965W        W38439  15.848   5.755  12.279  0.2059 -0.0304  0.0745
21966W        W38440  12.982  10.591   1.613  0.1063 -0.0312  0.5468
21967W        W38441  14.640   4.665   2.876 -0.2511  0.1348  0.1402
21968W        W38442   8.773  19.083  10.562  0.3248  0.0746 -0.0151
21969W        W38443   9.175  17.536   5.461 -0.1103  0.0090 -0.0035
21970W        W38444   3.113   0.244   0.398 -0.0418 -0.1873 -0.0526
21971W        W38445  13.272   0.058  11.770 -0.3130  0.1433 -0.0171
21972W        W38446   7.221  11.869   4.312  0.0276  0.1993  0.0343
21973W        W38447  10.988   3.586  11.066 -0.1256  0.0600 -0.0474
21974W        W38448  13.517   8.835  11.198  0.0681 -0.0485  0.1527
21975W        W38449  11.640   6.932   1.354 -0.0222 -0.0522  0.0909
21976W        W38450  15.966  16.510   0.030 -0.0049 -0.1123  0.0539
21977W        W38451  18.355   1.204   3.037  0.1267  0.1115 -0.0444
21978W        W38452  18.863   4.840  10.528 -0.1884 -0.0435  0.2759
21979W        W38453   1.940  10.556   1.048  0.2416  0.0971  0.1892
21980W        W38454  19.012   6.826  10.550 -0.0379  0.0485 -0.0374
21981W        W38455   3.243  18.497   2.781 -0.0579 -0.1552  0.0810
21982W        W38456   7.794  10.459   4.672 -0.0428 -0.2000 -0.0736
21983W        W38457  10.616  13.236  13.160 -0.1914 -0.0368 -0.0450
21984W        W38458   6.007  19.167  10.297  0.0581  0.0034 -0.1445
21985W        W38459  15.735   9.104   3.098  0.2580  0.0950  0.1609
21986W        W38460  12.999  17.830  11.298 -0.2458 -0.2305  0.1415
21987W        W38461   8.822   7.433   0.272  0.1170 -0.3996  0.0508
21988W        W38462   9.401   9.935   1.927 -0.0901  0.2576  0.2639
21989W        W38463   9.591   4.269  11.981 -0.1322  0.0557 -0.0637
21990W        W38464  15.351   4.114   2.675  0.1752  0.0974 -0.0317
21991W        W38465   9.686   0.243   2.799  0.0857  0.0473  0.0602
21992W        W38466   0.724  17.303  12.564 -0.2096  0.0418  0.1540
21993W        W38467   3.355   3.823  14.368 -0.1001  0.1464 -0.5403
21994W        W38468   5.863   7.262  11.739 -0.0210  0.1376  0.4020
21995W        W38469  15.840   5.565  14.068 -0.0141  0.0994 -0.2858
21996W        W38470  16.005   5.823   1.026 -0.0871 -0.1582  0.1238
21997W        W38471   7.473   9.626   4.210  0.0349  0.0420  0.1662
21998W        W38472   2.393  11.541  14.144 -0.4594  0.4251 -0.0559
21999W        W38473   4.568   7.756   3.357 -0.4003  0.0090 -0.0569
22000W        W38474   0.056   2.539   4.265  0.5102 -0.0573  0.1155
22001W        W38475   3.346   1.491  10.737 -0.0998 -0.2554  0.2340
22002W        W38476   7.730  10.377   2.881 -0.2671  0.1964 -0.1651
22003W        W38477  16.836   0.132   0.037  0.2341  0.0377 -0.0268
22004W        W38478   6.333  15.580   1.857 -0.2466 -0.1887 -0.0811
22005W        W38479   9.310   5.115   2.044 -0.0795  0.5214  0.0270
22006W        W38480  11.364  10.768  11.705 -0.0277  0.2485 -0.4612
22007W        W38481  14.095  15.721   2.832 -0.0309 -0.2588  0.5109
22008W        W38482   5.360   7.858   0.362  0.1077 -0.2914  0.1374
22009W        W38483   9.700  14.574  10.249 -0.1435 -0.0911 -0.1464
22010W        W38484   5.882   4.039  10.098  0.0036 -0.0567 -0.0247
22011W        W38485  15.370  16.567  13.442 -0.0733 -0.1089 -0.1104
22012W        W38486   1.568   9.097  13.983 -0.1232 -0.1346 -0.2213
22013W        W38487  19.134   7.639  13.934  0.0221  0.2202 -0.2108
22014W        W38488   0.413  13.629  10.673 -0.0043  0.0680 -0.3045
22015W        W38489  12.418   3.032  12.505  0.3308 -0.0430 -0.0112
22016W        W38490  12.152   4.421   2.113 -0.2635  0.0788 -0.1140
22017W        W38491   3.239  10.472  11.988 -0.2851  0.1767 -0.1249
22018W        W38492  13.274  18.483   1.838 -0.3075 -0.1000  0.3247
22019W        W38493  17.673   4.338  13.472  0.0811  0.0198  0.2012
22020W        W38494  10.956   3.745   0.900  0.1729 -0.0953  0.0465
22021W        W38495   2.922   0.483   4.140  0.1932 -0.1674  0.0755
22022W        W38496   2.671  13.099   4.589  0.1685  0.2115  0.0501
22023W        W38497  11.414   9.974   2.580  0.1010 -0.2710 -0.0034
22024W        W38498   8.075   8.847  10.098 -0.2089 -0.3285  0.2015
22025W        W38499  15.072   8.926   1.183  0.0103 -0.1149 -0.2931
22026W        W38500  14.851  15.600   1.285  0.0120  0.1626 -0.1179
22027W        W38501  18.114   9.545   2.533 -0.0223  0.1285  0.0062
22028W        W38502   9.922  16.000   0.650  0.0251  0.1783  0.0263
22029W        W38503   7.545   7.817  10.075  0.1330 -0.0378 -0.1023
22030W        W38504   1.617   2.476  11.282  0.1682 -0.0607 -0.0297
22031W        W38505   4.872  11.186  13.607  0.0882 -0.0625  0.1459
22032W        W38506   2.509   6.836   0.673  0.1940  0.0093  0.1408
22033W        W38507  13.013  12.180   2.753 -0.4602  0.4153  0.2585
22034W        W38508   2.989  17.112  11.955  0.5390 -0.3370 -0.1719
22035W        W38509   3.738  18.359  14.742  0.1990  0.0508 -0.0498
22036W        W38510   2.119   7.952   2.886  0.0102  0.1427 -0.0173
22037W        W38511   9.641   9.426  11.580 -0.1312 -0.1085  0.2835
22038W        W38512  18.916  19.225  10.575 -0.2670  0.0093  0.1060
22039W        W38513   3.548   9.813   0.832  0.1626 -0.0708 -0.1601
22040W        W38514   5.010  16.359   3.245 -0.0057  0.0620 -0.0565
22041W        W38515   2.212   6.545  11.031  0.2533  0.0256  0.2189
22042W        W38516   3.652  12.892  11.529 -0.1003  0.3735  0.1924
22043W        W38517  12.590   7.535   4.686 -0.1405  0.2734  0.3193
22044W        W38518  10.937  15.760   3.885 -0.0687  0.1851  0.1503
22045W        W38519  12.021   0.668   1.191 -0.1325 -0.0056  0.1648
22046W        W38520   1.443  15.616  14.159 -0.1424  0.2611 -0.1769
22047W        W38521  18.954   5.232  11.722  0.0037  0.0333 -0.0642
22048W        W38522   6.536  19.148  12.757 -0.1262  0.2416 -0.0297
22049W        W38523   4.590   3.225  14.556 -0.1260  0.1338  0.2243
22050W        W38524  12.162  11.349  10.564 -0.0280  0.0509  0.0070
22051W        W38525   0.869   2.384   2.672  0.3318  0.0457 -0.1394
22052W        W38526  12.111  14.305  11.782 -0.0476 -0.2661  0.1059
22053W        W38527  16.835  19.054   5.917 -0.0622  0.0640  0.0979
22054W        W38528  11.475   5.889  12.715  0.2174  0.1662  0.0410
22055W        W38529   0.702  13.808  12.356  0.1306 -0.0723  0.2304
22056W        W38530   3.487  15.843   3.034  0.0834  0.1951  0.1908
22057W        W38531  18.610   9.713   0.231  0.0782  0.1716  0.1565
22058W        W38532   5.476  10.406  13.290  0.1087  0.1400  0.0135
22059W        W38533   2.433   0.305   3.970  0.2145 -0.3705  0.2234
22060W        W38534   0.316   6.188   9.400  0.0721 -0.1549  0.3032
22061W        W38535   7.495  10.518  11.618  0.1488  0.3575  0.0642
22062W        W38536   6.156   1.039   1.325  0.0879 -0.0674  0.2707
22063W        W38537  10.766   4.759  12.460 -0.1398 -0.0794  0.1892
22064W        W38538   9.222   5.818  10.978 -0.0019  0.0086 -0.0337
22065W        W38539   7.030   9.974   3.446 -0.1294  0.0147 -0.1333
22066W        W38540  10.150   4.738  13.970 -0.0955  0.1587 -0.2437
22067W        W38541   6.800   4.206  10.947  0.0830  0.3797  0.1404
22068W        W38542  10.346   1.280  11.006 -0.0376 -0.0671  0.1939
22069W        W38543  13.145  15.641   4.704  0.1949  0.2107  0.0029
22070W        W38544  14.835   5.328   0.753  0.4388  0.3046  0.2233
22071W        W38545   6.773  17.521  10.959 -0.3745 -0.1109  0.0226
22072W        W38546  18.709   1.795  14.086 -0.3321 -0.1461  0.1248
22073W        W38547   3.810   9.742   4.126  0.0309 -0.2168  0.0032
22074W        W38548  15.356   8.459   0.485  0.2303  0.0995  0.0504
22075W        W38549   7.248  16.492  11.946 -0.1829  0.0266  0.0023
22076W        W38550  16.709   1.716   3.647  0.2551 -0.5635  0.2067
22077W        W38551   2.707  10.984   5.170 -0.1448 -0.0247 -0.1415
22078W        W38552  14.671  10.159   4.509 -0.1332 -0.1674 -0.4568
22079W        W38553  19.000   0.075  12.223  0.0870  0.2078 -0.4095
22080W        W38554  10.404   8.412  10.103 -0.0768  0.1504 -0.0147
22081W        W38555   0.469  11.281  13.755 -0.0659  0.2313 -0.0075
22082W        W38556  18.489  11.637   3.809 -0.1126 -0.1432 -0.2411
22083W        W38557  13.929  16.658   1.353  0.1683  0.1855  0.1194
22084W        W38558  19.170  11.685   1.252  0.0189  0.0861 -0.1257
22085W        W38559   5.507   5.865  12.788 -0.1024 -0.3254 -0.0423
22086W        W38560   1.366   1.975  11.355 -0.0669 -0.1619 -0.4527
22087W        W38561  16.871  15.683   3.241  0.0265  0.1004  0.2064
22088W        W38562  11.573  13.448   4.395  0.5466 -0.3033  0.1403
22089W        W38563   5.265  17.333  12.523  0.1257  0.0563 -0.2367
22090W        W38564  10.725   8.602   3.763  0.0112  0.1479 -0.1486
22091W        W38565  14.077  19.346  13.324  0.2959  0.3173 -0.3213
22092W        W38566   2.554  12.174   5.553 -0.2453 -0.0284 -0.0657
22093W        W38567  18.398  12.844  13.603 -0.0736 -0.1119 -0.1296
22094W        W38568  11.040  12.705  12.554 -0.3497 -0.0016 -0.4592
22095W        W38569  12.193  11.704   1.740 -0.1116 -0.1224  0.0684
22096W        W38570   5.328  16.806   2.725  0.0397 -0.1467  0.1532
22097W        W38571   2.810   6.014  10.341 -0.1000 -0.3577 -0.3922
22098W        W38572  10.535   4.936   3.421 -0.1163  0.2479  0.0746
22099W        W38573   5.113   2.204  13.503 -0.1885 -0.2541  0.0525
22100W        W38574   6.980  11.949  13.311 -0.1650  0.1980 -0.0495
22101W        W38575   5.971   9.135   4.346  0.0732  0.0701  0.4653
22102W        W38576   4.372  13.942  11.311  0.1256 -0.0463  0.0568
22103W        W38577   6.989   6.485   0.122 -0.3699  0.0271  0.1661
22104W        W38578   3.453   2.363   0.901  0.1966 -0.0629 -0.1037
22105W        W38579  13.810  11.220   4.124 -0.0181 -0.1672 -0.0477
22106W        W38580   3.209  13.357  11.563  0.0029  0.0011 -0.2297
22107W        W38581   3.654   0.612   1.588 -0.1836  0.3011  0.1432
22108W        W38582   4.310  11.822  13.293 -0.0376 -0.3706 -0.0082
22109W        W38583   3.434   4.083  12.530 -0.0917 -0.1028  0.0615
22110W        W38584   0.530  10.766  10.389  0.2463 -0.0164  0.5115
22111W        W38585  17.690  10.134  14.344 -0.1794  0.0097 -0.0294
22112W        W38586   3.411  14.629  13.806 -0.2137 -0.0496  0.1682
22113W        W38587   4.938   5.967   4.007 -0.1623  0.0785 -0.1774
22114W        W38588   4.647   4.505  14.163  0.2618 -0.0151  0.0795
22115W        W38589   2.600   7.229   4.396 -0.0132 -0.0071  0.1826
22116W        W38590   8.142   1.905  14.045 -0.0270 -0.2394  0.0377
22117W        W38591   3.913   5.207  14.502  0.2416 -0.1555  0.0287
22118W        W38592   7.570  17.697   4.004 -0.3420 -0.2721 -0.1095
22119W        W38593  14.669  11.540   1.496  0.1768 -0.0482  0.0649
22120W        W38594   8.309  14.347  11.673 -0.1137  0.2152  0.1509
22121W        W38595   1.373  15.853   2.678 -0.0324 -0.1506 -0.1958
22122W        W38596  14.053  16.533   6.010  0.1056 -0.0605  0.0574
22123W        W38597   5.574   4.281   5.259 -0.0255 -0.2442  0.4468
22124W        W38598  15.755   4.571   4.941  0.1331  0.2862  0.1181
22125W        W38599   8.586  13.113   3.197 -0.1218 -0.3204  0.0226
22126W        W38600   1.221  17.105  12.577  0.0745  0.3068  0.0440
22127W        W38601   8.597   3.066   1.037  0.2103 -0.0043 -0.1183
22128W        W38602   6.046  14.434  10.462 -0.4223  0.2049 -0.2276
22129W        W38603   5.482  10.854  14.357 -0.2526  0.1477 -0.1403
22130W        W38604  16.277  13.674   2.914  0.2097  0.1678  0.1539
22131W        W38605  17.977  10.090  12.582  0.0747 -0.2221  0.0863
22132W        W38606  17.220   1.139   4.564  0.1961 -0.1151  0.4204
22133W        W38607  13.611   1.953   3.058  0.2351  0.0034 -0.1709
22134W        W38608   8.207  11.082  11.132 -0.1533  0.1055 -0.1130
22135W        W38609  10.390   3.639  12.841  0.0209  0.2378  0.2555
22136W        W38610   4.372  13.626   0.216  0.0781 -0.1031 -0.1008
22137W        W38611  18.848  15.423   1.257 -0.1024  0.3434  0.1339
22138W        W38612   5.098   6.748   2.848 -0.0363  0.4158 -0.2681
22139W        W38613   3.757   9.241  12.834  0.0414 -0.1415  0.1399
22140W        W38614   1.652   0.872   4.956  0.0029 -0.1065 -0.1032
22141W        W38615   9.164   1.971  13.014 -0.2659 -0.4510  0.4661
22142W        W38616   5.560  19.030   8.987 -0.4250 -0.1816 -0.0144
22143W        W38617   6.061   7.944   1.577  0.2435  0.0526  0.1320
22144W        W38618   0.936  17.519  10.442 -0.2134  0.1649  0.0771
22145W        W38619  14.815   2.409   0.587  0.0627  0.0350  0.1981
22146W        W38620   7.240  16.664  14.117  0.1924  0.2876 -0.0191
22147W        W38621   6.720  15.966   0.675  0.1506 -0.2015  0.0655
22148W        W38622  13.124  18.723  13.792 -0.0556  0.2955  0.0964
22149W        W38623   4.791   3.989   1.252  0.1037 -0.2347  0.1592
22150W        W38624  14.868   8.736  13.600 -0.1574  0.3635  0.4486
22151W        W38625   7.105  15.040  13.417 -0.0788  0.3585 -0.3036
22152W        W38626  17.896  16.572   2.254 -0.1412 -0.2638  0.2469
22153W        W38627  11.009  14.654  13.309  0.1572 -0.3165 -0.2009
22154W        W38628   5.717   2.694  11.778  0.0267  0.0252 -0.0670
22155W        W38629  12.637   5.342   2.043  0.0007  0.1518 -0.2546
22156W        W38630  10.231  16.541   0.106 -0.0735 -0.2365  0.3123
22157W        W38631  11.336  19.187  11.130 -0.2774 -0.0943  0.0219
22158W        W38632  16.282  11.636   2.318  0.3712 -0.4226 -0.0702
22159W        W38633  14.484   3.334   1.699 -0.2156  0.2333  0.1339
22160W        W38634  12.111  16.031   4.055  0.1080 -0.3362 -0.0685
22161W        W38635   3.061   7.835   3.729 -0.3014 -0.0432  0.0167
22162W        W38636   2.051   9.633   3.480 -0.2093 -0.1948  0.1620
22163W        W38637   6.545   6.402   9.721  0.4163 -0.0124  0.3601
22164W        W38638  17.245   0.343  11.850  0.0683  0.0827  0.1724
22165W        W38639  15.677  10.827  11.280  0.2044 -0.1866 -0.1268
22166W        W38640  12.174  18.119   4.369  0.4132 -0.0582 -0.2571
22167W        W38641   7.049  11.026  12.760  0.2155  0.1167  0.0587
22168W        W38642  10.012   8.100   4.814 -0.1363 -0.0055  0.0204
22169W        W38643  17.826   4.366   1.517  0.0182  0.2679  0.2366
22170W        W38644  15.838  12.744  14.254 -0.0357 -0.1256  0.0868
22171W        W38645   3.893  17.945   2.224  0.1225  0.2011  0.1813
22172W        W38646   6.501   8.586  10.583 -0.1252  0.1640  0.1036
22173W        W38647   0.566   3.775   4.043  0.0909  0.2161 -0.2858
22174W        W38648   8.778  19.259   0.710 -0.1260 -0.1351 -0.0509
22175W        W38649  11.803   7.634   3.641 -0.1262 -0.1307 -0.2809
22176W        W38650  14.952   9.821   4.137  0.2311  0.0507 -0.4936
22177W        W38651  11.828  17.269  11.305  0.0177 -0.0835 -0.1406
22178W        W38652   2.223   1.028  11.692  0.1642  0.0709  0.1005
22179W        W38653   9.080   2.201  13.815  0.2780  0.1861  0.1577
22180W        W38654   1.146   6.724   3.139  0.1004  0.1127 -0.0015
22181W        W38655  10.037   7.576   1.127 -0.0745  0.0744 -0.1396
22182W        W38656   3.902  15.375   0.618  0.2131  0.0698 -0.0559
22183W        W38657   5.372   7.573   2.738 -0.0996 -0.0150 -0.2378
22184W        W38658   7.271   9.010  12.553  0.0407  0.1638  0.1018
22185W        W38659  10.509   5.149   0.896  0.0812  0.0487 -0.2171
22186W        W38660   2.280  14.119  13.059  0.1010  0.0173  0.3433
22187W        W38661   8.101  13.364  10.826 -0.2027 -0.0372 -0.0307
22188W        W38662   9.138   7.766   1.702 -0.0750 -0.2241 -0.0793
22189W        W38663  12.413   0.218   4.819 -0.3111 -0.1446 -0.0288
22190W        W38664   7.860   1.242   1.434  0.3038 -0.1387  0.0119
22191W        W38665   1.584  12.655  12.064  0.0635  0.1372  0.0202
22192W        W38666  18.071   2.946  12.592  0.2192  0.0376 -0.1131
22193W        W38667   9.032  14.960  11.306 -0.2596 -0.1365  0.2130
22194W        W38668  18.153   7.933   4.367 -0.1042  0.3775 -0.2063
22195W        W38669  10.871  15.751   2.618 -0.0060  0.2345  0.1266
22196W        W38670  12.984   9.618  10.747 -0.0136 -0.1567 -0.1902
22197W        W38671  17.025   6.497   3.798 -0.1413 -0.1209 -0.1864
22198W        W38672   2.837   8.990   1.326 -0.0695 -0.0156 -0.2008
22199W        W38673   8.355  12.268   4.456 -0.0082  0.4130  0.3520
22200W        W38674   5.065   1.972   0.846 -0.0192  0.0736 -0.1727
22201W        W38675   1.944  18.407   2.947  0.1744  0.2367 -0.4027
22202W        W38676   6.818   4.903  10.063 -0.0369 -0.2560 -0.0957
22203W        W38677   4.249  15.015   1.576 -0.1325  0.0687  0.1448
22204W        W38678   1.125   0.593  10.295 -0.0173  0.1410 -0.0176
22205W        W38679   4.283  13.963   3.235  0.1883  0.1119  0.0279
22206W        W38680   7.718  11.004   3.941 -0.2441  0.0545  0.0824
22207W        W38681   2.588  15.301   0.123 -0.2453  0.0835  0.0746
22208W        W38682   2.666  17.545  10.650  0.2211  0.1511  0.0380
22209W        W38683  14.935   4.269   1.092  0.3255  0.4491 -0.4645
22210W        W38684  18.103  17.596  11.987  0.2772  0.2033  0.0365
22211W        W38685   3.604  17.617  14.451 -0.0045  0.0999 -0.3105
22212W        W38686  11.490   3.273  11.971 -0.0137  0.0638 -0.1371
22213W        W38687  11.811   7.282  14.665 -0.0869  0.3323  0.0976
22214W        W38688   6.606  10.836  11.459  0.0145 -0.0003  0.1906
22215W        W38689  10.810  12.353   0.165  0.0614 -0.0446 -0.1529
22216W        W38690   1.706  10.581   0.508 -0.0389  0.0506  0.0718
22217W        W38691  16.713   2.247   0.514  0.1428 -0.0211 -0.6163
22218W        W38692  13.599   2.496   3.210 -0.0496 -0.2812  0.0754
22219W        W38693  12.357   2.717  10.192  0.1247  0.3246 -0.1672
22220W        W38694  13.314  11.774   1.328 -0.4883 -0.2289  0.1881
22221W        W38695  15.680  16.825   3.902 -0.0644  0.0204 -0.3685
22222W        W38696  18.301  12.197   4.684 -0.1200  0.3137  0.1606
22223W        W38697  12.170  19.324   0.671 -0.1057  0.0990  0.2513
22224W        W38698  10.720  11.348   3.499  0.1032  0.1194  0.1712
22225W        W38699   5.821  14.197   0.998 -0.1807  0.0434 -0.1935
22226W        W38700  15.889  12.412  13.881  0.0705 -0.0836  0.0088
22227W        W38701  12.486   2.347   0.963 -0.0118  0.2792 -0.2489
22228W        W38702   4.921  17.927  14.553 -0.0462 -0.1568 -0.1143
22229W        W38703  11.569   3.143   0.068  0.0221  0.0286 -0.0444
22230W        W38704   8.936  12.540   9.310 -0.0947 -0.1110 -0.0041
22231W        W38705   6.695   5.185  13.065  0.0840 -0.1602 -0.0241
22232W        W38706  18.160  13.824   0.834  0.1512  0.3206 -0.0860
22233W        W38707   7.853  16.681   0.423  0.0300 -0.0494 -0.2870
22234W        W38708   1.176  12.283  11.703  0.2936  0.1979  0.0686
22235W        W38709  11.079   0.115  10.814  0.1063  0.2342  0.1890
22236W        W38710  10.129   9.003   1.880 -0.1152 -0.0460 -0.2171
22237W        W38711  16.168   5.448  13.711 -0.2784 -0.1468 -0.1913
22238W        W38712   8.552  16.577  13.885  0.4132  0.1599  0.1657
22239W        W38713  10.812  15.204   1.495 -0.3292 -0.0458  0.0788
22240W        W38714   7.337   6.419  12.902  0.0785 -0.0028 -0.0525
22241W        W38715  12.013   2.964  10.888  0.0077 -0.2601 -0.0246
22242W        W38716   6.030   8.866  10.691  0.0254  0.3007  0.0358
22243W        W38717   2.411   8.176   1.044  0.2582 -0.0167 -0.1600
22244W        W38718   7.687  13.975   3.892 -0.0492  0.3500 -0.1879
22245W        W38719  14.155  10.830   5.371 -0.3163 -0.1800 -0.0735
22246W        W38720   4.975   6.699   2.357  0.0483 -0.1162 -0.0815
22247W        W38721  16.905   5.217   2.585 -0.1075 -0.2868 -0.0607
22248W        W38722  15.726   1.275  10.595  0.3784 -0.2134  0.1976
22249W        W38723   3.757  15.093  11.298  0.0176  0.1404 -0.3239
22250W        W38724  16.381   2.709   3.719  0.0917  0.2171 -0.1623
22251W        W38725  16.568   5.712   4.967 -0.1111 -0.0996  0.2048
22252W        W38726  14.382  15.036  10.944  0.2223 -0.0607 -0.2668
22253W        W38727   1.995   1.523  14.700  0.1176  0.1196 -0.1205
22254W        W38728   4.102  16.891  10.024  0.0223 -0.2169  0.1700
22255W        W38729   6.794   6.357   1.463  0.0571  0.1175 -0.1474
22256W        W38730   7.533  15.262   4.346 -0.0016  0.2023  0.1875
22257W        W38731   2.901   1.390   3.077 -0.0074  0.1318  0.0850
22258W        W38732   1.127   2.416  12.003  0.2166 -0.1470  0.3191
22259W        W38733  17.034   3.490   3.627  0.0913  0.0944  0.3395
22260W        W38734   3.456   0.568   2.514  0.1273  0.0998  0.2159
22261W        W38735  13.878   0.143   3.382 -0.1216  0.1871 -0.3502
22262W        W38736  10.161   7.538   2.420 -0.1980  0.0817 -0.1126
22263W        W38737  13.829   8.278   4.114 -0.0202  0.1516 -0.2021
22264W        W38738  16.194   6.827   4.967 -0.1290 -0.2508  0.2328
22265W        W38739   3.012  18.165   1.475  0.2397  0.2497  0.2144
22266W        W38740   1.776   8.416  10.323  0.3444  0.1726 -0.3889
22267W        W38741   4.860   4.479  13.644  0.1797 -0.1016 -0.1438
22268W        W38742   5.756  13.888   1.516  0.3545 -0.2145  0.0548
22269W        W38743  13.100   1.980  11.206  0.0287 -0.0150 -0.0473
22270W        W38744  12.970   2.633  12.400  0.1975 -0.0377 -0.1024
22271W        W38745  10.819  14.342  10.566  0.1301 -0.2968 -0.1611
22272W        W38746   2.134  13.142   5.751 -0.1902  0.1053 -0.1286
22273W        W38747  18.558   3.208   9.632 -0.0344 -0.1345  0.0223
22274W        W38748   4.350   5.264   3.380 -0.0026 -0.1152 -0.1087
22275W        W38749   6.139   3.296   3.552  0.2963 -0.0812  0.1137
22276W        W38750  12.580   5.143   0.390  0.4051  0.1918 -0.3206
22277W        W38751   0.137   7.378   0.171 -0.4293  0.0881  0.1584
22278W        W38752   4.224  11.852   3.925  0.0647  0.2556 -0.0286
22279W        W38753   2.790   0.360  11.939  0.2068 -0.0738  0.0830
22280W        W38754   7.886   6.393   4.370  0.1034 -0.0398  0.2683
22281W        W38755  19.074   4.119   4.534 -0.0500 -0.0999  0.1223
22282W        W38756  10.993   8.262  12.385  0.1147  0.0215 -0.0511
22283W        W38757   3.853   4.819  14.844  0.3457 -0.4844  0.0777
22284W        W38758  11.485   1.020  11.267  0.0452 -0.1609 -0.1219
22285W        W38759  16.097   6.057  13.942  0.2030  0.2108  0.0487
22286W        W38760  17.954   2.533   2.694  0.1176  0.1072  0.2897
22287W        W38761   4.428  17.216   4.273  0.0370  0.1407 -0.3536
22288W        W38762   9.883  15.054   0.981 -0.4978 -0.0210  0.2282
22289W        W38763  12.018  13.365   0.794 -0.3912 -0.1599 -0.0573
22290W        W38764   0.159   4.198   2.842  0.4293 -0.1878 -0.4978
22291W        W38765   6.000   3.353  14.618  0.3951 -0.3517 -0.2253
22292W        W38766  16.541   5.335  10.423  0.3041  0.1982  0.1286
22293W        W38767   0.254   6.911   1.859 -0.2394  0.3782  0.1687
22294W        W38768   1.518  14.090  13.855 -0.1104 -0.0421 -0.1775
22295W        W38769  16.883   2.791  11.724 -0.2433 -0.1258 -0.0830
22296W        W38770   0.794  11.543  14.549 -0.1951  0.1199 -0.3342
22297W        W38771   4.970   0.263  14.102 -0.0020  0.1171 -0.1350
22298W        W38772   2.466  12.950  10.959 -0.2258  0.1006  0.1276
22299W        W38773  18.965   2.221   2.559 -0.0125 -0.5525  0.0575
22300W        W38774  12.606   0.572  13.385  0.3674 -0.1577  0.0446
22301W        W38775  11.550   1.677   1.053 -0.1527 -0.3870 -0.1986
22302W        W38776  11.476   8.948   3.582  0.0247  0.0436  0.0653
22303W        W38777   4.310  16.561  14.833 -0.0771  0.0378  0.0854
22304W        W38778  15.354  12.494   1.704 -0.1013 -0.1241  0.3409
22305W        W38779  15.863   7.428   0.726 -0.1262 -0.2028 -0.1354
22306W        W38780  15.787  11.815  11.796  0.1479  0.5301 -0.1935
22307W        W38781   4.020   9.539  10.851  0.1865 -0.1964  0.0648
22308W        W38782  16.919  14.786   2.396 -0.0446 -0.2773 -0.0328
22309W        W38783   2.985  18.263  10.971  0.0525  0.4863 -0.0152
22310W        W38784  18.808  17.501  13.637 -0.1396 -0.1758 -0.0389
22311W        W38785  15.434   1.629   2.217  0.1154 -0.0416  0.2147
22312W        W38786  12.957  18.770   4.306 -0.0239 -0.0120 -0.2356
22313W        W38787  17.652  14.366  10.546 -0.2972  0.0240  0.0418
22314W        W38788   6.659  14.509  12.679 -0.2626  0.0549  0.0073
22315W        W38789  15.113  13.999   1.387  0.1170 -0.3500 -0.0461
22316W        W38790  16.737   1.309  11.962  0.1022  0.1665 -0.1124
22317W        W38791  18.261   7.308   0.501  0.0983  0.1057 -0.1574
22318W        W38792   7.062  15.223  14.373  0.0813 -0.3316 -0.0172
22319W        W38793  11.841   9.838  11.594  0.2510  0.0324  0.2380
22320W        W38794  18.782   2.537  12.956  0.2264  0.0133  0.3134
22321W        W38795   4.906   7.492   1.696 -0.0323  0.0866 -0.0673
22322W        W38796  12.735   7.940   1.648 -0.3295 -0.1540 -0.0345
22323W        W38797  12.969   4.539  13.644 -0.0595  0.0390 -0.2486
22324W        W38798  10.040   7.928   1.509 -0.0008 -0.0685  0.0737
22325W        W38799  12.645   8.794   5.331 -0.3063  0.2224  0.2899
22326W        W38800  15.053   3.024  11.759 -0.3189  0.1422  0.0644
22327W        W38801   3.088  12.053  11.723 -0.1669 -0.5123 -0.1331
22328W        W38802   9.817   2.627  14.343 -0.1692  0.0418  0.4861
22329W        W38803   9.031   0.139  14.540 -0.0300 -0.0478 -0.0755
22330W        W38804   4.299   4.211  14.459 -0.1832  0.1219 -0.4210
22331W        W38805   6.305  16.896  13.640  0.0613 -0.0765  0.2145
22332W        W38806  10.519   8.812  14.452  0.1115  0.0185  0.1802
22333W        W38807   1.622   1.473   0.826 -0.0697 -0.0430 -0.1619
22334W        W38808   2.006  18.564   9.169 -0.0822  0.1418  0.0251
22335W        W38809  14.675  15.985  11.818 -0.2419  0.0627  0.0853
22336W        W38810   1.528   4.524   1.048  0.0219  0.0468  0.0111
22337W        W38811   5.279   8.164   8.878 -0.0538  0.1859  0.0665
22338W        W38812   2.161  17.888   5.121 -0.0393 -0.0215  0.1911
22339W        W38813  13.370   2.063   4.407  0.1324  0.0653  0.4403
22340W        W38814  19.192  17.424   4.379  0.2310  0.0307 -0.1637
22341W        W38815   7.225   0.983   1.187  0.1014 -0.0584 -0.1134
22342W        W38816   4.712   4.056  14.273 -0.3781  0.0003  0.1558
22343W        W38817  18.792   8.160   2.787 -0.0558 -0.1452  0.4227
22344W        W38818   7.368   9.543   1.233  0.0678 -0.0081  0.0325
22345W        W38819   7.695  10.874   1.129  0.0988 -0.1089  0.1263
22346W        W38820   4.349  17.925   1.556 -0.0944 -0.1177  0.2254
22347W        W38821  16.627  13.152  12.229  0.0468 -0.1442 -0.2486
22348W        W38822   2.896  10.789  14.028  0.1254 -0.4451  0.0956
22349W        W38823  11.224   2.449  11.246  0.1179  0.0672 -0.0470
22350W        W38824  13.061   9.727  14.396  0.1320  0.2740 -0.1402
22351W        W38825  15.102   8.198   2.076 -0.0609  0.1764 -0.2410
22352W        W38826   0.981  12.433  13.027  0.3102 -0.1586  0.0437
22353W        W38827  10.930   4.707   2.682 -0.2435 -0.0018  0.2497
22354W        W38828   9.035   2.353  10.198 -0.2754  0.1140 -0.0109
22355W        W38829   1.025   6.753  12.867 -0.0181 -0.0768  0.0460
22356W        W38830   4.254   2.898  14.802 -0.2174 -0.2407  0.0728
22357W        W38831   4.471   9.125  12.802  0.0827 -0.1009 -0.1330
22358W        W38832  10.957  13.983   0.882  0.1014  0.2818 -0.0573
22359W        W38833   9.436   4.451   1.496  0.1807  0.0686  0.0730
22360W        W38834   9.908  10.245   4.656  0.2743  0.0452  0.1313
22361W        W38835  13.435   2.829  14.464  0.3600 -0.0023  0.1065
22362W        W38836  19.177  14.937   4.284  0.2496 -0.0492 -0.0854
22363W        W38837  11.701  14.381  13.691  0.0555 -0.1344  0.1765
22364W        W38838   9.473  18.819  13.566  0.1339  0.0788 -0.1267
22365W        W38839  11.299  14.314  10.741 -0.1089 -0.2715  0.0323
22366W        W38840  11.205  19.259  13.008 -0.2324 -0.0722  0.0953
22367W        W38841   1.661   3.468  11.812 -0.2622  0.0183 -0.1637
22368W        W38842   9.224   9.039   2.382  0.2027 -0.0706  0.0977
22369W        W38843   5.239   0.437   2.282  0.1458  0.0698  0.0587
22370W        W38844   8.002  12.242  13.212 -0.1709 -0.0460  0.0662
22371W        W38845   3.267   3.622   2.969 -0.1193 -0.1747  0.0178
22372W        W38846  13.049  13.383   4.877  0.1583 -0.0959 -0.0292
22373W        W38847  18.572  16.138   0.194 -0.2411 -0.1060 -0.4711
22374W        W38848   7.924   1.566   1.828  0.2345 -0.0339  0.0375
22375W        W38849  10.711  14.000   5.125  0.0453 -0.1950 -0.1835
22376W        W38850   7.113  13.012   4.336 -0.1309  0.1474 -0.0053
22377W        W38851  13.360   5.291  12.844  0.1361  0.1057 -0.2316
22378W        W38852  19.316   1.077   5.400  0.1607  0.2930  0.0787
22379W        W38853  16.777  11.079   4.336  0.0883  0.0823  0.4296
22380W        W38854   3.139   0.591  10.364  0.0436  0.0875  0.1292
22381W        W38855   5.780   9.056   1.659  0.0716  0.3061 -0.0245
22382W        W38856   9.859   5.022  14.611 -0.0474  0.2724  0.1981
22383W        W38857   9.231  16.518  14.717 -0.1922  0.0368 -0.0790
22384W        W38858  11.048   9.473   1.673 -0.0049 -0.5863  0.0408
22385W        W38859   7.331   0.318  12.318  0.2239  0.1309  0.2336
22386W        W38860   3.776  15.347   4.240  0.2498 -0.2462 -0.1430
22387W        W38861  17.495  12.424  14.409  0.1692 -0.0683 -0.0577
22388W        W38862   9.136   9.230  12.647  0.0933 -0.1571 -0.0990
22389W        W38863  11.151  12.837  14.088  0.1343  0.3509  0.0650
22390W        W38864  18.964   4.424  11.625  0.1955  0.0213 -0.0378
22391W        W38865  13.359   4.748   9.333 -0.1835 -0.0907 -0.0262
22392W        W38866  13.549   4.012  13.313 -0.2041 -0.2459 -0.3335
22393W        W38867  15.207   0.132   1.087 -0.1264  0.0204 -0.2341
22394W        W38868  19.200  16.045  12.215 -0.0213  0.1162 -0.0940
22395W        W38869   7.519   6.069  14.266  0.4918  0.2027  0.0291
22396W        W38870   1.525  15.860  12.307  0.0418  0.2516 -0.1660
22397W        W38871  19.198   3.527   4.460  0.1051  0.0449  0.0894
22398W        W38872   8.584   5.048  10.935 -0.0930 -0.1112 -0.1744
22399W        W38873  11.893   5.442   1.178  0.1365  0.1335  0.0103
22400W        W38874   1.332  13.145   0.515 -0.1949  0.0604 -0.0046
22401W        W38875   8.788  15.854  14.336 -0.2048  0.0826  0.1793
22402W        W38876  11.417  11.562   4.708  0.1543  0.0603  0.0904
22403W        W38877  16.662  17.992  12.797 -0.0411 -0.1932 -0.1658
22404W        W38878  14.894   7.593   3.531 -0.1553 -0.1454  0.1549
22405W        W38879  19.248   8.403  14.762 -0.0293 -0.2522 -0.2511
22406W        W38880  18.277   9.147  13.200 -0.1133 -0.2521 -0.1547
22407W        W38881   9.077   9.274   0.133 -0.1359  0.2601  0.0084
22408W        W38882   7.381   7.334  13.035  0.1140  0.0983 -0.1700
22409W        W38883  17.129   3.132  10.719 -0.2618  0.0280 -0.2297
22410W        W38884   4.445   2.474   3.689  0.0159 -0.1747  0.0752
22411W        W38885  16.182   2.677   4.764  0.3319 -0.2133  0.0160
22412W        W38886  11.222  18.128  11.786 -0.0457 -0.1082 -0.2401
22413W        W38887  14.066   0.776   4.824 -0.1471  0.3607  0.1636
22414W        W38888  12.697  12.429  12.060  0.3208 -0.0448  0.3811
22415W        W38889  10.916   4.511  12.848 -0.0247  0.4156 -0.1046
22416W        W38890  18.238   9.550   3.529 -0.0704 -0.0586 -0.2128
22417W        W38891   1.499  13.514  10.742  0.1276  0.1125 -0.1560
22418W        W38892  16.590  17.608  14.023 -0.0695 -0.1517  0.0696
22419W        W38893   5.342  18.684   0.781  0.2940 -0.0105 -0.2088
22420W        W38894   1.641  11.324   1.196 -0.1016  0.2142  0.1310
22421W        W38895  14.314  15.710  13.881  0.1231  0.1342 -0.0832
22422W        W38896  16.519   3.648  13.233  0.1091 -0.3102 -0.1602
22423W        W38897   8.602  13.770   1.717 -0.0582  0.0676  0.0436
22424W        W38898   7.953   0.978   9.889 -0.3343  0.1850  0.0283
22425W        W38899   8.679   5.444   3.934  0.4956  0.0436  0.2209
22426W        W38900  13.970   8.645   0.165 -0.3946  0.0559 -0.2162
22427W        W38901  10.697  18.137   4.150  0.0022 -0.2122  0.3152
22428W        W38902  18.129   7.574  13.647  0.3488  0.4688 -0.1311
22429W        W38903  16.501  18.963   1.759 -0.2840  0.0860  0.0713
22430W        W38904  16.713  12.862   5.650 -0.0091 -0.1165  0.0176
22431W        W38905   7.644   6.791  14.737  0.0017  0.0741  0.0815
22432W        W38906  12.422  18.217  12.765 -0.0762 -0.0087 -0.1319
22433W        W38907   0.245   5.092   0.179  0.0339  0.1586 -0.2222
22434W        W38908  13.408  10.113  13.788 -0.1443  0.0558 -0.0999
22435W        W38909   0.955   0.588   5.450  0.0652 -0.3168 -0.1066
22436W        W38910  19.051  18.694  10.574  0.1788 -0.2128  0.1447
22437W        W38911  14.002  12.003  11.450 -0.1124  0.0026 -0.3044
22438W        W38912   8.846   8.786  13.481  0.0517 -0.1990  0.2528
22439W        W38913  10.914   5.030   3.872 -0.2793 -0.1496 -0.0149
22440W        W38914   3.187   2.134   2.735 -0.3138 -0.0872  0.0381
22441W        W38915  11.074   9.494  11.914 -0.1141 -0.2533  0.2552
22442W        W38916  16.824  11.704   4.498  0.2276  0.2621  0.1115
22443W        W38917   0.145  15.189   3.313 -0.1053  0.0306 -0.0592
22444W        W38918  13.716   0.810  12.905 -0.0901 -0.0527  0.2693
22445W        W38919   2.250   6.864  13.187  0.2219 -0.0454 -0.1124
22446W        W38920  14.753  16.944  12.406  0.2274 -0.1965 -0.1435
22447W        W38921  17.833  19.073   3.754  0.0769  0.0485  0.0272
22448W        W38922   0.558   4.340   1.043  0.0091 -0.0317 -0.2541
22449W        W38923  12.583  16.751  11.007 -0.0620  0.3158  0.3173
22450W        W38924  13.026   4.203   0.684 -0.1638 -0.0908 -0.2015
22451W        W38925  11.653   0.647  13.077 -0.0592 -0.1304 -0.1421
22452W        W38926   2.521   1.380  14.432  0.0326 -0.3340  0.1370
22453W        W38927  10.898  10.654  13.743  0.0450  0.1957 -0.0192
22454W        W38928  11.383   6.292   4.546  0.1542  0.0124 -0.2083
22455W        W38929   3.527  17.510  13.109  0.3390  0.0531 -0.2164
22456W        W38930  19.128   8.280   4.110  0.2092  0.0865  0.1678
22457W        W38931   4.620   0.773  11.188 -0.0257 -0.2852 -0.0681
22458W        W38932   5.658  11.120  12.917  0.1114 -0.0737  0.0941
22459W        W38933  15.154  18.555  13.613  0.1636 -0.3728 -0.1632
22460W        W38934   6.370   7.973   4.781  0.2188  0.0836  0.0944
22461W        W38935  14.331  11.866   4.613  0.0735 -0.0685  0.0829
22462W        W38936   9.006   8.549  12.815 -0.3211  0.1101 -0.1719
22463W        W38937   6.614  10.875  12.029 -0.0231 -0.2707 -0.1498
22464W        W38938  17.999  10.332   4.005  0.1023 -0.1716 -0.0123
22465W        W38939   2.745  12.914   2.441 -0.0412 -0.2178 -0.0459
22466W        W38940   9.822  14.731   2.037 -0.0581  0.0240  0.5134
22467W        W38941   6.236  14.952   2.704  0.0160 -0.0355 -0.0382
22468W        W38942  11.071   7.679   1.052  0.2240  0.2422  0.0578
22469W        W38943  15.269  14.480   1.745 -0.3578  0.1147  0.1159
22470W        W38944  14.799  13.951   4.949  0.0366  0.1265  0.0099
22471W        W38945  18.472  15.633  14.764  0.0125  0.2953 -0.0104
22472W        W38946  12.978  19.019  14.221 -0.0675 -0.0813 -0.0944
22473W        W38947  15.516   3.225  11.838 -0.0410  0.1199  0.2209
22474W        W38948   9.824  13.018  12.511 -0.0844  0.1689  0.1765
22475W        W38949  12.612  15.478  11.340 -0.3980 -0.4233 -0.0060
22476W        W38950  18.241  11.761  12.598  0.1369 -0.0350 -0.0798
22477W        W38951   5.793   9.898  14.470  0.3682  0.0843  0.1764
22478W        W38952  14.283   8.341  11.481 -0.2520  0.0913  0.0697
22479W        W38953   3.651   1.511   2.380 -0.2315  0.0258 -0.2814
22480W        W38954   6.529  10.748   3.987  0.0337 -0.1917  0.0054
22481W        W38955   1.767   6.462  13.204 -0.0411  0.0795  0.3737
22482W        W38956  14.687  17.176  13.404  0.1384 -0.0556  0.2786
22483W        W38957   9.082  16.492   3.259 -0.2094  0.3226 -0.4354
22484W        W38958   4.555  18.283  11.608  0.0653  0.2782 -0.0331
22485W        W38959  18.333   8.840   1.196 -0.0314 -0.2244 -0.1364
22486W        W38960   9.063  12.991   0.557 -0.1497  0.1938  0.0893
22487W        W38961  14.616  14.347   3.642 -0.2051  0.2125 -0.3663
22488W        W38962   2.319   4.722  14.489 -0.2390 -0.1504 -0.0293
22489W        W38963   0.312   4.579   3.858  0.0826  0.3076 -0.2613
22490W        W38964  12.805   0.589   5.184  0.1418  0.2487  0.3445
22491W        W38965   6.809   3.102  11.450  0.2127  0.0998 -0.0623
22492W        W38966  11.445   0.682   2.524 -0.3706  0.0634 -0.1418
22493W        W38967   4.034  18.356   2.457  0.2697  0.1824  0.0997
22494W        W38968   2.577  12.496   3.202  0.2666  0.0099 -0.1187
22495W        W38969   7.497  12.398   2.393 -0.1507 -0.0431 -0.4091
22496W        W38970  11.802   6.422  13.755 -0.0367  0.1615  0.0157
22497W        W38971  10.436   7.202  12.065 -0.1871 -0.1648  0.2505
22498W        W38972   4.768   1.495   1.559  0.0129  0.1141 -0.2477
22499W        W38973  11.348  14.583  12.754 -0.2467  0.1455 -0.0055
22500W        W38974  16.802  14.803   3.954  0.2691 -0.1073  0.1344
22501W        W38975   2.439   5.708  10.475 -0.0833  0.0414  0.0681
22502W        W38976   0.916  10.042   2.194  0.0754  0.3199 -0.0094
22503W        W38977  14.160  12.257   1.666  0.5688 -0.0585 -0.0429
22504W        W38978   2.585   4.058  12.789  0.1730 -0.0626  0.1559
22505W        W38979   5.878   2.252   1.901 -0.1252 -0.2637 -0.0556
22506W        W38980  14.314  17.839  11.181  0.1604 -0.5307  0.0786
22507W        W38981  14.321   4.145   0.423  0.1004  0.0061 -0.1078
22508W        W38982  13.131   2.731  11.927  0.1832 -0.1721  0.0039
22509W        W38983  14.124   0.879  13.501  0.2494 -0.1143  0.0519
22510W        W38984   0.623   4.288   3.109  0.3534  0.1739  0.2534
22511W        W38985   0.887  13.412  12.674 -0.1989 -0.0308 -0.0782
22512W        W38986   7.478  13.056   3.919 -0.1270 -0.0294  0.1919
22513W        W38987   3.225  12.564  10.861 -0.4124  0.0621 -0.0825
22514W        W38988  15.344   4.800   1.264 -0.3117 -0.0521  0.0403
22515W        W38989   1.152  13.984   1.666 -0.3713  0.0510  0.1047
22516W        W38990   4.404  12.707   0.577  0.0440  0.0330  0.1007
22517W        W38991   7.180   9.781  11.943  0.0121 -0.2806  0.1102
22518W        W38992   3.750   8.988   3.939  0.3513  0.2112 -0.1519
22519W        W38993  11.740   2.865   9.090  0.0965  0.0496 -0.0490
22520W        W38994  19.103   0.302  14.109  0.1511  0.1595 -0.0348
22521W        W38995  15.450   7.177   5.149  0.1318 -0.0965 -0.1510
22522W        W38996   6.330  17.352  11.220 -0.2224  0.4300 -0.1020
22523W        W38997   8.887  15.800   1.607 -0.0456  0.0055  0.3039
22524W        W38998  12.195   0.727   1.683 -0.2841  0.0513 -0.0908
22525W        W38999  11.140  13.941   1.319  0.0705 -0.1715 -0.2878
22526W        W39000  18.352   9.821  12.692  0.2997  0.1259 -0.1763
22527W        W39001  14.428   6.052  13.514 -0.0744  0.4649 -0.1275
22528W        W39002  13.523   6.391  14.733  0.1651  0.1197  0.3664
22529W        W39003  11.959  14.739   9.448 -0.1881 -0.2442 -0.0264
22530W        W39004   4.640   9.369  13.789 -0.1858 -0.1485 -0.0657
22531W        W39005  18.997  13.586   4.380  0.5385 -0.1584 -0.2326
22532W        W39006   8.048  17.241  14.007 -0.1501  0.0131 -0.2056
22533W        W39007  16.618  18.144   4.665  0.0951  0.1774  0.0550
22534W        W39008  11.820  15.591  10.367 -0.2286 -0.1685  0.3887
22535W        W39009   3.612  18.555   1.524  0.0717  0.2333 -0.0604
22536W        W39010  12.328   4.398   5.130  0.3880  0.0365 -0.1382
22537W        W39011  14.918   6.425   4.570 -0.1141  0.0210 -0.0281
22538W        W39012   2.450  18.794   4.103  0.0928 -0.4544  0.2422
22539W        W39013  15.621   8.765   0.175  0.0686 -0.1380  0.4241
22540W        W39014   3.790  16.001  11.083 -0.1384 -0.0708  0.0600
22541W        W39015  18.021  13.962  14.784  0.0355 -0.0459  0.2209
22542W        W39016  15.648  14.386  13.525  0.1696  0.1461 -0.0510
22543W        W39017   8.640  18.419  14.470 -0.0724  0.0179  0.2426
22544W        W39018   4.491   7.931   2.297  0.1910  0.0396  0.0182
22545W        W39019   7.741   3.714   3.020  0.1315 -0.1642  0.1561
22546W        W39020   0.050  15.946   3.929 -0.0810 -0.0514 -0.1892
22547W        W39021   0.781  16.827  10.931 -0.1792  0.2875 -0.3037
22548W        W39022   2.764  13.708  12.279  0.1952 -0.0796  0.0257
22549W        W39023   0.834  19.222   0.938 -0.1100  0.4582 -0.0629
22550W        W39024   0.610  18.614  13.832 -0.0880 -0.3537  0.0452
22551W        W39025   0.445   5.783  12.737  0.1142  0.0042 -0.1643
22552W        W39026   3.400   8.457   2.600  0.0222 -0.3764  0.2686
22553W        W39027  19.237   9.575  10.745 -0.1287  0.0575  0.1664
22554W        W39028  15.911  15.969   4.052 -0.0368 -0.1286  0.0336
22555W        W39029   0.295   5.077   3.828  0.3221 -0.1109 -0.0913
22556W        W39030   0.797   9.803  12.488 -0.0217 -0.5040 -0.3285
22557W        W39031  18.222  17.462   0.536 -0.1118 -0.0515 -0.0871
22558W        W39032   4.530   3.497  10.465  0.1552 -0.2081 -0.0482
22559W        W39033   2.200   6.009  11.112 -0.1803  0.2492 -0.1250
22560W        W39034  14.460   4.210  13.313 -0.1305  0.0153  0.1854
22561W        W39035  15.223   4.879  13.380  0.1019  0.0115 -0.1488
22562W        W39036  17.507  16.600  11.258 -0.4347  0.0375 -0.0418
22563W        W39037   5.158  10.565  14.731 -0.0169  0.1123 -0.1423
22564W        W39038   6.131   5.206   9.970 -0.0819  0.1442  0.0206
22565W        W39039  13.330  11.056  12.839 -0.0800  0.0938 -0.1034
22566W        W39040   8.421  15.835   0.755 -0.3564 -0.3164  0.0568
22567W        W39041  16.011   3.968   5.799 -0.1610 -0.0103  0.2645
22568W        W39042   0.383  11.769   0.906 -0.0709  0.0112 -0.3354
22569W        W39043  17.797   2.393   1.556  0.4187  0.2762 -0.0733
22570W        W39044   9.585   4.782  12.047  0.1621  0.1413 -0.2511
22571W        W39045   8.505  13.949   2.192 -0.0875  0.0011 -0.1362
22572W        W39046   3.296   3.527  13.919  0.1271 -0.0454  0.0441
22573W        W39047  14.014   8.320  14.647 -0.2379 -0.0570  0.0327
22574W        W39048   4.099  14.404  14.438  0.0933  0.2602 -0.0609
22575W        W39049   6.121   4.216   2.449 -0.3198 -0.2100 -0.0995
22576W        W39050  12.905   3.895  12.220 -0.1572  0.1527 -0.0571
22577W        W39051   9.335   0.284  13.850 -0.2319  0.0988  0.1333
22578W        W39052  11.430   6.639  14.246  0.1260  0.1364  0.1637
22579W        W39053  18.795   7.057  11.377  0.0163  0.1516  0.0286
22580W        W39054   0.977  14.536  13.157 -0.2434 -0.0380 -0.1103
22581W        W39055  15.419   0.525  13.317 -0.0448  0.1763 -0.0369
22582W        W39056  18.666  11.796  10.868  0.1055 -0.2243  0.1935
22583W        W39057  17.756  11.340   4.371 -0.1449 -0.0292  0.0992
22584W        W39058  19.256   0.673   1.692  0.1892 -0.2694 -0.0931
22585W        W39059   0.102   6.047  14.524 -0.0296  0.1457  0.1516
22586W        W39060   6.153   2.287   4.495  0.0586  0.1031  0.1325
22587W        W39061  18.928   2.583  13.804  0.1525 -0.0826 -0.0372
22588W        W39062   4.075   5.728   3.321  0.0573  0.1504  0.0316
22589W        W39063  10.293   4.149   9.135  0.1714 -0.1360  0.2463
22590W        W39064  12.755   6.659  10.418  0.1889  0.0173  0.2601
22591W        W39065  16.006   0.463   5.205 -0.2577 -0.2354 -0.0572
22592W        W39066  10.468   2.301  12.389  0.2592  0.3844 -0.3941
22593W        W39067  11.888  10.614  11.427  0.3176  0.0423 -0.3774
22594W        W39068   4.284  14.628   3.900  0.1122  0.3530 -0.1771
22595W        W39069   4.129  11.620   0.105 -0.0403  0.2109  0.0562
22596W        W39070   3.781   1.139   2.765  0.5650  0.1667 -0.0517
22597W        W39071  11.943  16.573   0.150  0.4668 -0.1397 -0.1256
22598W        W39072  12.470   9.888  12.558 -0.2840  0.2968 -0.3355
22599W        W39073   2.451   9.375   3.655 -0.0459 -0.0675 -0.0814
22600W        W39074  15.815  16.566  14.430  0.2175  0.2070  0.2294
22601W        W39075  10.170  15.324   3.260 -0.0525  0.1658 -0.0629
22602W        W39076  13.148  11.802   5.039 -0.3377 -0.2537 -0.1210
22603W        W39077   4.427   3.472   3.862  0.0546 -0.5068 -0.1465
22604W        W39078  11.169  17.360  13.302 -0.1397 -0.0533  0.0760
22605W        W39079  11.816  11.226  13.548 -0.2244  0.4858 -0.0873
22606W        W39080   8.427  17.638  12.380 -0.2437  0.3329  0.0863
22607W        W39081  11.312   6.287  14.542  0.1992 -0.1157 -0.2164
22608W        W39082   9.883   4.525  12.978 -0.5026 -0.2323  0.1444
22609W        W39083   4.486  16.414  10.692 -0.3591 -0.0176  0.0589
22610W        W39084  17.399   6.861  11.717 -0.0476 -0.1434  0.1291
22611W        W39085   0.534   2.170  12.638 -0.1693 -0.0809  0.0365
22612W        W39086  18.330   3.744   3.884 -0.3044 -0.1020  0.2419
22613W        W39087   3.415  15.819  13.368 -0.2786  0.3389 -0.0520
22614W        W39088   4.751  12.946   1.957 -0.2027 -0.2662  0.0824
22615W        W39089   5.719   2.501  11.245  0.1199 -0.1405  0.1218
22616W        W39090  17.241  10.961   4.143  0.3377 -0.0092 -0.0939
22617W        W39091  12.971  16.172   3.489  0.0388  0.4464 -0.0688
22618W        W39092   5.182   1.648   2.403  0.2178 -0.0314  0.0455
22619W        W39093   6.229   7.499  10.652 -0.0037 -0.0382 -0.1186
22620W        W39094   2.344  14.678   4.321 -0.2163 -0.4702  0.0741
22621W        W39095  14.458   5.737   4.096  0.3399  0.0291 -0.1301
22622W        W39096  19.342  18.653   3.570 -0.1469 -0.0476  0.1344
22623W        W39097   2.531  10.411   3.112  0.1432 -0.4238  0.0092
22624W        W39098  15.852  13.226   3.636  0.0673 -0.0726  0.1246
22625W        W39099   2.551   9.969   4.496  0.1655 -0.2385 -0.3404
22626W        W39100   5.979   6.990   1.904 -0.3361  0.1140 -0.0546
22627W        W39101  13.366   1.296   4.388  0.1506  0.3227  0.1769
22628W        W39102   8.063   7.770   3.248 -0.2982 -0.0307 -0.0157
22629W        W39103  19.306  17.864  14.129  0.0904 -0.0205 -0.1845
22630W        W39104  16.079  13.364  13.261  0.3677  0.2820  0.0161
22631W        W39105   7.305   4.772  11.168 -0.2598 -0.0635 -0.0650
22632W        W39106   0.115  14.229  11.817  0.2661 -0.2334  0.0866
22633W        W39107   7.995  14.569   0.759 -0.0957  0.3136  0.1211
22634W        W39108  10.179   1.599   0.333  0.0409  0.2397 -0.0560
22635W        W39109  16.047   2.411   0.046  0.0443  0.1136  0.2667
22636W        W39110   6.293  16.055  11.716 -0.1578  0.3272 -0.0074
22637W        W39111   6.054   3.607  11.274  0.3900  0.1439 -0.5566
22638W        W39112   0.842   0.583  11.668 -0.0912  0.1003 -0.0245
22639W        W39113  17.552   6.312  11.403  0.1523  0.2253 -0.0748
22640W        W39114   1.321  16.286  12.349 -0.1860 -0.2436 -0.1041
22641W        W39115   9.841  15.749  14.516  0.1251 -0.0499  0.3382
22642W        W39116  14.783   6.051   2.884 -0.0761  0.3458  0.1236
22643W        W39117   8.669  15.411   4.415 -0.2548  0.0328  0.2163
22644W        W39118   9.218   4.831   0.316  0.1140  0.2279 -0.0401
22645W        W39119  16.590   7.700   1.323  0.2697 -0.1962 -0.0481
22646W        W39120  10.600  16.936   0.872  0.2087  0.0385  0.1044
22647W        W39121  12.565  11.338   5.099  0.3385  0.0159  0.0925
22648W        W39122   3.513   3.327   1.767 -0.3400 -0.1888  0.1945
22649W        W39123   1.803  18.755   3.914  0.0919  0.2102  0.1623
22650W        W39124   1.433   1.044  13.461 -0.1019 -0.4874  0.2410
22651W        W39125  16.344   4.174  11.365 -0.2924 -0.2283 -0.0796
22652W        W39126  12.796  12.733  13.318  0.2409 -0.0693  0.4109
22653W        W39127  16.725  19.245  13.502 -0.1063  0.1743 -0.1073
22654W        W39128   2.527   8.738  11.382 -0.2354  0.1713  0.1883
22655W        W39129  17.010   4.517   3.739 -0.4309 -0.0803 -0.1020
22656W        W39130   0.418   7.965  12.931 -0.0041  0.0109 -0.3150
22657W        W39131   1.371  15.330   2.685 -0.2493 -0.0275  0.0058
22658W        W39132  13.231  15.374   9.821  0.0340  0.0304 -0.1797
22659W        W39133   8.862   8.391  10.411  0.2063 -0.4658  0.2584
22660W        W39134  17.868  16.005   0.455 -0.3001 -0.1640 -0.3847
22661W        W39135  13.664   5.873  14.130  0.0745  0.2288  0.0783
22662W        W39136  18.821   6.009  13.621  0.0195  0.1686 -0.1510
22663W        W39137  11.467  14.391  14.141  0.0076  0.1515 -0.3400
22664W        W39138  15.246   6.128  13.752  0.0183 -0.0688 -0.2926
22665W        W39139   7.674   3.086   2.027 -0.1190 -0.2061  0.3181
22666W        W39140   0.248  18.897  14.143  0.1953  0.0198 -0.0949
22667W        W39141  16.418   6.467  13.861 -0.0456 -0.0905  0.1203
22668W        W39142  12.084  12.152   0.221  0.1041  0.1588 -0.1845
22669W        W39143  14.200   1.919   4.315 -0.0404 -0.0670 -0.2097
22670W        W39144   7.876  14.323  14.859  0.2838 -0.1410 -0.2362
22671W        W39145  13.314  16.204   5.854 -0.1884  0.1631  0.1180
22672W        W39146  14.831   1.183   4.041  0.2659  0.0577 -0.1087
22673W        W39147  18.147   4.305   4.641  0.0663 -0.0672 -0.0342
22674W        W39148  13.176   6.737  13.933  0.2490  0.2961  0.0608
22675W        W39149  12.479  18.241  14.597  0.0208 -0.2056 -0.1035
22676W        W39150   5.808  17.761   2.553  0.3650 -0.3669  0.1297
22677W        W39151   4.267  17.066  12.245  0.3283 -0.2749  0.3735
22678W        W39152   4.227   3.813  10.111 -0.1613 -0.2177 -0.0696
22679W        W39153  16.996   7.085   4.453  0.0890  0.0054 -0.1340
22680W        W39154  18.251   3.349  12.919  0.1920  0.0942 -0.1205
22681W        W39155   4.814  17.827   1.278  0.3019  0.2348 -0.0801
22682W        W39156   0.294  12.445   3.544 -0.0593 -0.0573 -0.1506
22683W        W39157   0.634   4.509  11.871  0.3002 -0.1663 -0.1208
22684W        W39158  10.392   9.037  12.533  0.1693  0.1333 -0.2022
22685W        W39159   4.335   3.384   4.336  0.1325 -0.1743 -0.2321
22686W        W39160  10.661   5.479   2.157 -0.0531 -0.3705  0.2987
22687W        W39161  13.747  15.993   5.606 -0.0691  0.1369  0.0941
22688W        W39162  13.911  11.066  13.440 -0.1340  0.1210  0.0396
22689W        W39163   8.011   2.768  11.196  0.1062 -0.1028 -0.3643
22690W        W39164  15.193  18.888   5.358  0.3013 -0.1573 -0.0979
22691W        W39165   5.063  11.408   4.623 -0.4590  0.1635  0.0634
22692W        W39166  17.622  13.842   4.352 -0.3342  0.1831  0.1931
22693W        W39167   0.310   9.343   3.227  0.1127 -0.1212 -0.0520
22694W        W39168   7.693   9.701  14.301  0.2534 -0.0084  0.1773
22695W        W39169   0.487  17.089  14.581  0.0608  0.2680 -0.0792
22696W        W39170   9.782   0.875  10.905 -0.1725 -0.0100 -0.2799
22697W        W39171   6.476   3.432   2.286 -0.1355 -0.1980 -0.0517
22698W        W39172   5.298  14.028  10.977 -0.0031 -0.0270  0.4399
22699W        W39173  18.609  10.744   1.141  0.1777  0.2125  0.1788
22700W        W39174  16.832   2.537   2.957  0.1204 -0.1300  0.0005
22701W        W39175  10.402   4.296   3.407  0.0541  0.0058 -0.0886
22702W        W39176   9.190   0.095   0.489  0.0169 -0.2128  0.0652
22703W        W39177   6.007   1.925   3.264  0.1592  0.0418  0.0611
22704W        W39178   4.357  18.208  12.832 -0.2158 -0.0139  0.0010
22705W        W39179   3.187  17.533   0.791 -0.0574 -0.1236 -0.1904
22706W        W39180  10.459   6.625   0.863  0.0602  0.3457 -0.1687
22707W        W39181   9.597   1.038   4.420  0.0961 -0.1506  0.0735
22708W        W39182  16.503   4.166   1.693  0.2649 -0.3405  0.3901
22709W        W39183  18.344   2.156  12.069 -0.0049  0.2144  0.1286
22710W        W39184  18.851  13.041  11.533  0.1578 -0.3276  0.0664
22711W        W39185   1.780  16.421  10.483 -0.1070  0.1113 -0.1435
22712W        W39186   3.522   4.122   1.332  0.2980 -0.0898  0.2685
22713W        W39187  12.760   8.560   9.881  0.1326  0.1529  0.2284
22714W        W39188  11.432   3.875   5.538  0.2322  0.0763  0.2732
22715W        W39189   0.663   1.375  14.546 -0.5069  0.0966 -0.0889
22716W        W39190   5.968   0.112   5.154 -0.1458  0.0354 -0.0558
22717W        W39191   6.387   5.776  10.201  0.2642 -0.0271  0.2872
22718W        W39192   9.842   9.228  12.073 -0.1090 -0.0943 -0.1670
22719W        W39193  19.023  18.411  13.473 -0.1787 -0.0604  0.0182
22720W        W39194   4.775   4.991  14.368 -0.2731  0.0797  0.1885
22721W        W39195  11.865  12.362   4.232 -0.1038 -0.1867 -0.3237
22722W        W39196   9.146   1.824   3.578  0.5246 -0.1767  0.0156
22723W        W39197  10.896  10.033   1.663 -0.2944 -0.0079 -0.1975
22724W        W39198   9.027  16.285  14.293  0.2327 -0.3424  0.1209
22725W        W39199  10.159  12.510  14.511 -0.1026  0.2151 -0.2858
22726W        W39200   8.045  13.625  11.329 -0.4486  0.1634  0.2666
22727W        W39201  11.447   0.409  14.872  0.0379  0.1736 -0.2181
22728W        W39202   6.095   6.046  12.005 -0.1688  0.0395 -0.0392
22729W        W39203   7.112   6.068   3.626  0.1313  0.0894 -0.0008
22730W        W39204   5.304  19.128   1.060 -0.0338  0.1313 -0.0531
22731W        W39205  19.353   9.851  11.181  0.0227  0.3713 -0.0062
22732W        W39206   0.457  12.759   3.234 -0.0923 -0.2144  0.3462
22733W        W39207  16.937  18.104  14.183 -0.1059  0.0160 -0.2446
22734W        W39208   8.432   2.678   0.782 -0.2072  0.0835  0.1339
22735W        W39209  12.870  13.252  13.192 -0.1948 -0.4060  0.3445
22736W        W39210   9.083  13.858   3.074  0.0011 -0.0323  0.0143
22737W        W39211  14.778   9.877   0.190 -0.0168 -0.3194  0.1252
22738W        W39212  15.198  17.906  11.470 -0.0563 -0.0316  0.0804
22739W        W39213   4.054   0.992   1.761  0.3758 -0.0443  0.3103
22740W        W39214   3.133  10.557   0.198 -0.0560 -0.1263 -0.0919
22741W        W39215   0.713   3.117  11.950  0.0506 -0.0565 -0.2650
22742W        W39216  10.413   2.926  11.709 -0.2549  0.4381 -0.0810
22743W        W39217  17.771   0.495  12.740 -0.1337  0.3638  0.0428
22744W        W39218  17.582  16.976  10.090 -0.1453  0.4095  0.1078
22745W        W39219   4.417   7.368   0.430 -0.0745  0.0068 -0.1768
22746W        W39220   4.573   3.441   3.353  0.0742 -0.2626 -0.1071
22747W        W39221   1.709   8.156  11.362  0.4756 -0.3036  0.1287
22748W        W39222   7.687   7.648   4.153  0.0379 -0.3665 -0.0623
22749W        W39223  14.757   3.044  13.742  0.1047  0.0676 -0.0193
22750W        W39224  11.869  19.278   3.830 -0.0705 -0.0203  0.1928
22751W        W39225  14.659  17.686  10.830  0.1770 -0.3060  0.2562
22752W        W39226   6.583  17.714   3.865  0.0909 -0.0539  0.0301
22753W        W39227  13.555   7.341  11.179  0.0335  0.0094  0.0571
22754W        W39228  16.441   7.249  11.601 -0.4057 -0.0161  0.1131
22755W        W39229  12.555  13.090  14.092 -0.0255  0.1032 -0.2413
22756W        W39230   4.690  12.050  10.908  0.0274  0.1395 -0.0062
22757W        W39231  16.864  13.127   0.500  0.4255 -0.1094  0.1141
22758W        W39232  11.613   7.206   3.387  0.0691  0.0186  0.0097
22759W        W39233  11.144   8.304  10.477  0.1629 -0.3137 -0.1104
22760W        W39234  11.500  18.204   5.083 -0.0878  0.1120  0.0715
22761W        W39235  12.555   6.054  13.543  0.2674  0.1607  0.0103
22762W        W39236   9.646  12.340   4.271 -0.0510 -0.2923  0.2728
22763W        W39237   9.604  14.639   3.341  0.1569  0.0491 -0.2192
22764W        W39238  17.826   3.617   2.211 -0.0717  0.3043  0.0360
22765W        W39239  10.168   8.917   5.012  0.2872  0.1379 -0.2453
22766W        W39240   0.466  13.213   1.755 -0.0317 -0.1688  0.0940
22767W        W39241   4.080  18.885   1.759 -0.2412  0.3582 -0.1195
22768W        W39242   5.426   0.459  11.539 -0.0197  0.1469  0.0041
22769W        W39243  17.702   8.252   4.259  0.0983 -0.1765  0.0652
22770W        W39244  15.513   7.184  10.114 -0.0406  0.2360 -0.3813
22771W        W39245  17.877   1.920   5.548  0.1082 -0.1970  0.3100
22772W        W39246   6.062  18.941  11.634 -0.0591  0.0989 -0.1063
22773W        W39247  10.801  10.473   2.997  0.2227 -0.1059  0.3230
22774W        W39248  18.030   4.872   3.362  0.3042  0.0431 -0.0987
22775W        W39249   6.033   1.749   4.423 -0.0376  0.0725 -0.3841
22776W        W39250   3.953   0.126  10.916 -0.4295  0.2254  0.5094
22777W        W39251  12.166  11.829  14.614  0.3039  0.3585  0.1318
22778W        W39252  18.463  18.470   3.367  0.0741 -0.0275 -0.1647
22779W        W39253  11.921   1.386   4.072  0.2838  0.0321 -0.1149
22780W        W39254  13.248   3.686   2.043 -0.0909 -0.0140  0.4080
22781W        W39255  18.116  12.972   4.115 -0.0389  0.3843 -0.0929
22782W        W39256   1.101  10.543   2.693 -0.0641  0.1444  0.2529
22783W        W39257  11.627   5.687   3.246 -0.0530  0.0833 -0.0716
22784W        W39258  12.903   2.982  14.612 -0.0424 -0.0661 -0.0879
22785W        W39259  15.988  11.630   4.690 -0.0866  0.2930  0.3943
22786W        W39260  19.268   5.764  14.863 -0.1154 -0.0501 -0.3998
22787W        W39261   6.385   0.715   3.798  0.0446 -0.2111 -0.0617
22788W        W39262  13.395   0.012  14.399  0.1168  0.0139  0.0707
22789W        W39263   0.847  11.085  13.485  0.0347  0.1529 -0.1064
22790W        W39264  11.186   4.744  10.211 -0.1632  0.2540 -0.1432
22791W        W39265   1.740  12.068   3.548  0.1145  0.0396 -0.0055
22792W        W39266  16.348  18.740   3.577  0.3385 -0.2088 -0.1988
22793W        W39267  13.490  17.281   2.389 -0.0632  0.2009  0.0063
22794W        W39268  12.817  16.719   0.157  0.2069 -0.2638 -0.0303
22795W        W39269   8.196  11.444  12.621 -0.2890  0.2955 -0.1535
22796W        W39270   5.149  16.862   4.815  0.1589 -0.0135 -0.0144
22797W        W39271   9.889   4.583   2.583  0.0310  0.1486 -0.3173
22798W        W39272   7.011  11.372   1.765  0.2398 -0.0405 -0.0388
22799W        W39273   3.921   5.863   0.202  0.1197  0.0698  0.1330
22800W        W39274  12.124   7.415   4.627  0.1329  0.1405 -0.0454
22801W        W39275   1.366  17.902  13.002  0.2354 -0.0153  0.0131
22802W        W39276  15.661   3.186  14.773  0.1476 -0.1183  0.1109
22803W        W39277  14.355   0.343   3.681  0.1672 -0.0850 -0.0602
22804W        W39278   5.947  12.907  11.266  0.2620  0.3510 -0.3302
22805W        W39279   2.385  12.190  10.794 -0.0071 -0.0208  0.0031
22806W        W39280  18.395  18.132  14.631  0.1436 -0.1212 -0.1485
22807W        W39281   2.391  13.643   2.144  0.0046  0.3837 -0.2069
22808W        W39282   0.194  13.073   5.398  0.0219  0.1767 -0.1392
22809W        W39283   8.117  16.413  12.270  0.0394 -0.2802 -0.3093
22810W        W39284   7.701  14.664   5.178  0.1752  0.0785 -0.0127
22811W        W39285   6.217  10.813   1.996  0.0422 -0.0550  0.1068
22812W        W39286  15.539  17.845   2.404  0.1474  0.0679  0.0586
22813W        W39287   0.819   3.573  13.765  0.3516  0.0684 -0.1714
22814W        W39288  13.932   0.503  11.512 -0.2292 -0.0543  0.3720
22815W        W39289  16.359   1.410   3.596 -0.1408  0.0684 -0.2937
22816W        W39290   7.798   1.123  12.817 -0.1031 -0.1133  0.2271
22817W        W39291  13.778   0.044   4.320 -0.1853 -0.0005 -0.1987
22818W        W39292   7.764   8.527   3.795  0.1674  0.0400 -0.2530
22819W        W39293   2.535   8.143   4.843 -0.0131 -0.1997  0.1601
22820W        W39294   3.256  15.671   1.330 -0.1255  0.2542 -0.1396
22821W        W39295   1.865  12.980   2.625  0.1203 -0.0689  0.1363
22822W        W39296  10.970  11.460   2.440 -0.0335  0.1144  0.4537
22823W        W39297  11.029  15.517  10.138 -0.1058  0.0435 -0.0662
22824W        W39298   0.945  10.145  12.006  0.3045  0.3527 -0.5674
22825W        W39299  11.571   1.489  11.940  0.1253 -0.1904 -0.2230
22826W        W39300   4.691   5.448  13.281  0.0245 -0.0765  0.2029
22827W        W39301  11.459   4.623   2.885  0.4109  0.0519  0.0072
22828W        W39302   7.458  12.251  14.635  0.1374 -0.1821 -0.3019
22829W        W39303  10.983  13.584  14.619 -0.2438  0.1218  0.2952
22830W        W39304  11.570  10.217   0.280  0.0571 -0.1057 -0.1958
22831W        W39305   4.752  18.895   2.459 -0.2679 -0.2656  0.3239
22832W        W39306   9.424   6.882  11.956 -0.2209 -0.3044 -0.0259
22833W        W39307  10.461  13.360   2.639 -0.1347  0.0296 -0.0866
22834W        W39308  19.352   1.778   2.697  0.0874  0.1202 -0.1447
22835W        W39309  15.822  14.355   2.032  0.0479 -0.2468  0.3546
22836W        W39310  15.893  17.083  12.591  0.0061  0.0055 -0.3353
22837W        W39311  14.642  11.902  13.771  0.1916  0.0773 -0.2107
22838W        W39312  15.864   8.895  14.578  0.0294 -0.0897 -0.1358
22839W        W39313  17.632   2.880  11.077  0.1281  0.2382  0.1808
22840W        W39314  10.717   6.667  11.213 -0.0303 -0.0858  0.3645
22841W        W39315  11.214   2.724  14.846 -0.0032 -0.2334 -0.0891
22842W        W39316   1.096  13.201   1.856 -0.0379  0.0957 -0.2456
22843W        W39317   2.608  16.294   0.990 -0.0127 -0.0665  0.3840
22844W        W39318  12.363   8.185   4.924 -0.1349 -0.2185  0.0748
22845W        W39319   2.395  11.524   3.048 -0.0412  0.0353 -0.0222
22846W        W39320  15.990   6.858  12.691 -0.1604 -0.1577 -0.1004
22847W        W39321  12.466  11.828  13.326 -0.0224  0.1144  0.0098
22848W        W39322  16.393  14.948  13.427 -0.2204  0.0400 -0.1184
22849W        W39323   6.435  13.299   4.906 -0.1140  0.1932  0.1867
22850W        W39324   9.435   2.598  11.853  0.0099 -0.2539  0.4271
22851W        W39325   2.554  16.826   5.048  0.2574  0.2192 -0.3682
22852W        W39326  19.076   9.819  14.742 -0.1545 -0.2264  0.1184
22853W        W39327   3.886  13.512  13.229  0.0100 -0.1435 -0.1414
22854W        W39328   1.933  15.727   4.428 -0.2739  0.0887  0.0896
22855W        W39329   4.605   4.527  13.156  0.0558 -0.1924  0.1559
22856W        W39330   4.766  17.660   4.445 -0.0364  0.1076 -0.0279
22857W        W39331  16.002  10.734  12.680  0.1173  0.1350  0.0510
22858W        W39332  19.018  10.073   5.002 -0.0170 -0.0784 -0.1166
22859W        W39333  17.548   0.935   3.135 -0.0324 -0.1869  0.0303
22860W        W39334  10.199  13.790   0.399 -0.1578  0.2388  0.2905
22861W        W39335  10.289  18.482  13.361  0.0047  0.1908 -0.0512
22862W        W39336  17.459   6.048  14.857  0.1972  0.0099 -0.0159
22863W        W39337  19.056   6.446  13.750 -0.2407  0.0868 -0.1088
22864W        W39338  17.884  18.433   2.848  0.0581  0.1076  0.3226
22865W        W39339   7.502  14.610  11.214 -0.3302 -0.2038 -0.0429
22866W        W39340  19.256  12.825   2.716 -0.1699  0.2679  0.2114
22867W        W39341   4.671  13.045   2.479 -0.2034 -0.0367 -0.3331
22868W        W39342  16.652   7.753  14.269  0.0006 -0.2265  0.1340
22869W        W39343  13.912   4.061   1.605  0.2058  0.0726 -0.1127
22870W        W39344   7.646   0.551  10.298  0.1510 -0.4418  0.1259
22871W        W39345  16.983   7.109  13.737  0.2391  0.3409 -0.0488
22872W        W39346  13.655  16.561   4.679  0.2086  0.2703  0.1676
22873W        W39347  18.019   1.928  12.623  0.3078  0.0118  0.2069
22874W        W39348   1.027  19.091  13.767 -0.2979 -0.2589  0.1096
22875W        W39349  16.214  11.184  13.500 -0.2083 -0.4191 -0.0162
22876W        W39350   9.750  15.937   3.418 -0.1076  0.3603  0.0687
22877W        W39351   0.198   1.956   4.402 -0.0008 -0.3135 -0.1155
22878W        W39352   8.607  13.871  12.372  0.4100 -0.0053  0.1531
22879W        W39353  17.485   8.710   0.511 -0.0509  0.2192  0.0038
22880W        W39354   2.878  11.619  13.390 -0.2089 -0.0917  0.1373
22881W        W39355   8.301   1.348   1.574  0.0787 -0.0084 -0.2607
22882W        W39356  18.014   1.010  12.661  0.0957 -0.0449  0.2407
22883W        W39357   1.725  16.696  11.548  0.1815  0.0219 -0.0264
22884W        W39358  17.424  16.528  12.295  0.0630 -0.1324  0.1369
22885W        W39359   7.681   9.414   3.258 -0.2996  0.2329  0.0006
22886W        W39360  15.055   5.442  12.539  0.0768  0.1724 -0.3185
22887W        W39361  17.754  10.604  11.268 -0.0508  0.1204 -0.0154
22888W        W39362   6.182   3.222  10.998 -0.0325 -0.0052  0.1757
22889W        W39363  12.397  13.884   4.884  0.0181 -0.0676  0.0591
22890W        W39364   9.441  14.879   1.096 -0.3061  0.0192 -0.2349
22891W        W39365  11.937   9.093   4.815 -0.1533  0.2033  0.0527
22892W        W39366  14.516   7.342   0.392 -0.2504 -0.1452 -0.0640
22893W        W39367   4.244  17.833   4.257 -0.0800 -0.1564  0.0439
22894W        W39368   5.397  12.988  10.832  0.0227 -0.2679  0.1132
22895W        W39369   1.771  15.632   3.872 -0.0268 -0.2617  0.2895
22896W        W39370   6.978   1.949  10.312 -0.1700  0.2381  0.0541
22897W        W39371   0.798   9.644  10.503  0.1145  0.1052 -0.2848
22898W        W39372  10.274  16.433   2.759  0.2110 -0.0406  0.1034
22899W        W39373   3.620  10.350   4.916  0.0207 -0.3142 -0.0002
22900W        W39374  10.815   3.547   3.242 -0.2368  0.1258 -0.0844
22901W        W39375   9.018   0.226   4.061  0.0459  0.0412  0.2854
22902W        W39376   3.881   6.593  14.369 -0.2668 -0.3333  0.0332
22903W        W39377   0.860   9.448  11.683 -0.1241 -0.2254  0.3490
22904W        W39378   5.282  18.578  13.130  0.2252  0.0111 -0.2729
22905W        W39379  18.406  17.280  14.079 -0.2371 -0.3569 -0.4194
22906W        W39380   7.073   3.068   9.071  0.2544  0.0471  0.2190
22907W        W39381  18.430  11.430   0.318 -0.2547  0.0678  0.2820
22908W        W39382   9.391   1.996   2.130  0.1829 -0.0710  0.0717
22909W        W39383  11.495  17.713  12.062 -0.0182 -0.0333 -0.0674
22910W        W39384   8.902   9.816   2.093 -0.0796 -0.1447  0.0944
22911W        W39385  18.340  16.407   2.341 -0.2556  0.1492  0.1333
22912W        W39386   0.979   4.223   4.853  0.0912  0.2003  0.2163
22913W        W39387  10.614  17.794  14.045  0.1057 -0.0955  0.0904
22914W        W39388   3.327  16.926  11.665  0.1952  0.0910  0.0767
22915W        W39389  11.450   2.972   3.671  0.2332  0.1875  0.0077
22916W        W39390   5.029  10.291   3.939  0.3299  0.0684  0.1426
22917W        W39391   8.697   3.012  11.846  0.2526 -0.3227  0.1996
22918W        W39392  10.088   7.072   2.219 -0.0093 -0.1183  0.0818
22919W        W39393   0.028   8.853  12.294  0.0019  0.2994 -0.0584
22920W        W39394   7.518   3.008   9.243 -0.0426  0.0288  0.1098
22921W        W39395   9.294  18.245   1.313  0.0454  0.1535  0.1946
22922W        W39396   7.708   0.458   2.705  0.0417 -0.0128  0.2486
22923W        W39397   3.863  12.059  13.340 -0.1078  0.0903  0.0866
22924W        W39398   3.566   8.159  11.954 -0.1489 -0.0496  0.3383
22925W        W39399   9.411  14.099  10.759 -0.0136  0.0073 -0.1048
22926W        W39400   1.435   8.886   3.083 -0.0906 -0.1802  0.2818
22927W        W39401   7.889   9.543   0.996 -0.1491  0.1514 -0.1169
22928W        W39402   5.333   1.920  14.772 -0.3353 -0.0824  0.0485
22929W        W39403  13.542   9.868   4.267  0.1080 -0.2047 -0.1924
22930W        W39404   8.649   7.234   1.955  0.3937 -0.4600 -0.1283
22931W        W39405  11.767  15.127   3.112  0.2619  0.3367 -0.0876
22932W        W39406   7.265  14.782  14.617  0.2299  0.2888  0.3133
22933W        W39407  17.597   1.794   2.126 -0.0557 -0.1123  0.1773
22934W        W39408   9.691   0.549  13.604 -0.3445  0.2870 -0.1090
22935W        W39409  18.863  14.423   1.326  0.1517  0.0753  0.0925
22936W        W39410   5.738   3.713   0.612 -0.1357 -0.2104  0.0216
22937W        W39411  15.003  14.594   3.876  0.2086  0.2586  0.1829
22938W        W39412   3.973   0.523   3.421  0.0226 -0.1183 -0.0605
22939W        W39413  14.707   6.159  13.978  0.0528 -0.1345 -0.2417
22940W        W39414   9.836  10.491   3.507 -0.1385 -0.0790 -0.0543
22941W        W39415   8.643   2.696  10.514 -0.3871 -0.0828  0.1763
22942W        W39416  13.486  15.113   3.890 -0.0796 -0.0450  0.2207
22943W        W39417  17.257  15.632  11.215 -0.0073  0.2764  0.2113
22944W        W39418  14.695  13.715   1.139 -0.1028 -0.0168 -0.0398
22945W        W39419   4.602   8.709   2.930 -0.1167 -0.0469 -0.2990
22946W        W39420   9.865   1.827  14.874  0.0300 -0.3063  0.0211
22947W        W39421  11.099  18.610  12.117 -0.1219  0.1384 -0.1653
22948W        W39422  10.050   9.774  10.186  0.0584  0.1046  0.0406
22949W        W39423  11.570  13.788  11.636  0.2944  0.0260  0.1125
22950W        W39424  18.222   0.109   3.605  0.1146  0.0851 -0.0841
22951W        W39425  17.038  15.985   3.728  0.2561 -0.0557  0.0335
22952W        W39426   7.698  18.995   4.287 -0.0768 -0.2561  0.0357
22953W        W39427  11.057   8.829  10.587 -0.0388  0.2541 -0.0044
22954W        W39428   9.992  14.542  14.725 -0.1499 -0.2392  0.2956
22955W        W39429  14.550  12.628   4.716 -0.2971  0.0953 -0.0292
22956W        W39430   1.343  16.674   5.160  0.0698 -0.3441 -0.3503
22957W        W39431   5.193   7.760  12.817  0.1531 -0.1470  0.1047
22958W        W39432  13.409   0.994   3.991 -0.3168 -0.1156  0.2156
22959W        W39433   1.988  15.774   0.200 -0.0612  0.0134 -0.0255
22960W        W39434   1.945   9.415  11.476  0.4232  0.1472 -0.2541
22961W        W39435   8.803   2.673   4.231 -0.2523 -0.2272 -0.0532
22962W        W39436   5.566   5.550  11.533 -0.2135 -0.1361  0.0139
22963W        W39437   3.501  13.920   3.802  0.0651 -0.2486  0.0855
22964W        W39438  10.522   5.959  12.743 -0.0326  0.1330  0.1700
22965W        W39439  10.942   2.540   4.453 -0.0024 -0.0943 -0.0384
22966W        W39440   6.715  14.962   1.102  0.5491  0.1820 -0.0463
22967W        W39441  15.702  17.792   3.978  0.0365 -0.0442  0.2783
22968W        W39442   8.755   3.205   2.873  0.0014 -0.0883  0.0097
22969W        W39443  10.732   5.018   4.789 -0.3243  0.0408  0.0160
22970W        W39444   6.448   0.267  12.616  0.2107 -0.0326 -0.2234
22971W        W39445  18.115  18.103  11.464  0.0346 -0.1983  0.2839
22972W        W39446  11.426   8.108   3.901  0.1044 -0.0211  0.0624
22973W        W39447   5.210   0.698   1.002 -0.0477 -0.0717 -0.0682
22974W        W39448   2.557   7.848   2.566  0.2261  0.0193 -0.1440
22975W        W39449  13.571  15.609   5.141  0.1388  0.4773 -0.2447
22976W        W39450   0.736   0.991   2.507  0.1381 -0.0649 -0.3014
22977W        W39451   9.791   2.737   0.352 -0.0181 -0.0598  0.2065
22978W        W39452  14.867  15.761   0.418  0.1386 -0.1905 -0.0158
22979W        W39453   7.291  12.185   3.459 -0.1352  0.0548 -0.1959
22980W        W39454  15.556   6.145   3.844 -0.0013  0.1277 -0.0737
22981W        W39455  10.091   8.335   1.893  0.2791 -0.2856  0.1711
22982W        W39456   5.685   9.954  11.441 -0.2734  0.0397 -0.1556
22983W        W39457   3.947  10.302   3.242 -0.1965  0.2602 -0.2800
22984W        W39458   1.910  11.793   2.783 -0.1249  0.1254  0.0474
22985W        W39459   0.875  10.854   1.712 -0.0563 -0.0850  0.1834
22986W        W39460  17.645  15.202   3.397  0.0557  0.0194 -0.1072
22987W        W39461   1.272  11.686   2.137 -0.0418  0.0047 -0.0648
22988W        W39462  14.573  16.950   3.145  0.1151 -0.3143 -0.0564
22989W        W39463   1.660   4.332   2.326 -0.0527 -0.1455  0.2415
22990W        W39464  18.423   0.495  13.035 -0.3270  0.0856  0.0819
22991W        W39465   9.738   5.438   1.364  0.0318 -0.2310 -0.0537
22992W        W39466   3.340   1.719   0.428  0.0848 -0.0477 -0.2988
22993W        W39467   1.191   7.212  14.169  0.3866 -0.0677 -0.1630
22994W        W39468  16.234   3.737  14.507 -0.1807  0.0533 -0.0984
22995W        W39469  11.406  10.469  13.559 -0.1058  0.0146  0.2594
22996W        W39470   1.181   9.540  10.084 -0.1388 -0.0602 -0.1646
22997W        W39471   4.486   6.866   1.199 -0.2121  0.1400  0.1304
22998W        W39472  10.597  17.531  13.135 -0.0892 -0.0282 -0.1177
22999W        W39473  10.323  11.626   9.983 -0.0192 -0.0143 -0.1677
23000W        W39474   5.027   6.060   2.427  0.0641 -0.1364 -0.0746
23001W        W39475   9.633   7.249  12.322  0.4171  0.0817 -0.0407
23002W        W39476  17.082   6.056  12.613 -0.0911 -0.0904 -0.0683
23003W        W39477  14.215   8.967   5.810 -0.0016  0.0100  0.0222
23004W        W39478  12.662   0.768   3.737 -0.2409  0.0142  0.1865
23005W        W39479  15.003  14.816   1.307 -0.2277 -0.5136 -0.2757
23006W        W39480   8.790  14.817   2.747 -0.2526  0.3132  0.0778
23007W        W39481  17.242  12.055  12.119  0.0641  0.3242  0.1631
23008W        W39482   6.268   5.735  11.007  0.4733  0.0204  0.0466
23009W        W39483  13.153  16.144   1.218 -0.1939  0.0225  0.2545
23010W        W39484   0.481  14.549  12.650  0.2065  0.0090 -0.0291
23011W        W39485  12.401   4.509  14.529  0.2396 -0.0994 -0.1056
23012W        W39486  12.153  18.659  14.389 -0.3345 -0.1441  0.2095
23013W        W39487  10.790   9.700   2.508  0.3479 -0.0666  0.1431
23014W        W39488   2.034  12.998  13.307 -0.0869 -0.4021  0.3380
23015W        W39489   2.228   1.529  11.481  0.1966  0.0322  0.1579
23016W        W39490   6.365  18.719   9.910 -0.4404  0.1327  0.0690
23017W        W39491   3.337  18.470  12.176 -0.0390  0.1398  0.1693
23018W        W39492  16.665   2.768   1.246  0.1270  0.0427 -0.2827
23019W        W39493   1.586   1.069  10.976  0.1279  0.3661  0.3710
23020W        W39494   8.857  10.579   0.554 -0.1506  0.0462 -0.1392
23021W        W39495  10.248  18.311  11.264 -0.2374 -0.1727  0.0414
23022W        W39496   8.404   5.199   3.128  0.0990 -0.0922  0.1930
23023W        W39497  14.441  13.303  14.266 -0.0903  0.0130  0.0095
23024W        W39498  13.579  14.062  14.642 -0.1005  0.0552 -0.2464
23025W        W39499  17.038  18.991   0.158  0.1019  0.3755  0.1958
23026W        W39500  10.674  17.293  12.002  0.1466 -0.1847 -0.1339
23027W        W39501   9.242  17.524  14.449 -0.1875 -0.1230 -0.1336
23028W        W39502   5.706   4.027   1.055  0.2646  0.1684 -0.2421
23029W        W39503   0.096   5.417  11.053  0.1872  0.0945 -0.1099
23030W        W39504   4.609   6.427   4.370  0.1186  0.1701  0.0712
23031W        W39505  11.820  18.126   4.003  0.1932 -0.1722 -0.1668
23032W        W39506   8.833  11.950   2.714 -0.0606  0.1748  0.0908
23033W        W39507   9.589   2.928  12.227  0.0586 -0.0453 -0.3555
23034W        W39508  17.400  14.024   4.886 -0.0398  0.2918 -0.0561
23035W        W39509   3.045  11.780   4.230 -0.0425  0.0812 -0.1419
23036W        W39510  19.074  14.293   2.357  0.3623  0.0580 -0.0463
23037W        W39511   1.634   0.449  10.974  0.0046  0.1518 -0.0219
23038W        W39512   8.710   5.373  10.600 -0.1602 -0.1504  0.1390
23039W        W39513  14.914   4.492  11.270 -0.1640  0.1616 -0.0556
23040W        W39514   4.099   9.017   1.313 -0.0187  0.1873 -0.0751
23041W        W39515   0.050  17.401   0.925 -0.0386  0.0508 -0.0038
23042W        W39516   6.150   1.213  11.478 -0.2076 -0.2919  0.1329
23043W        W39517  16.373   4.605  11.024  0.1457  0.4915  0.1024
23044W        W39518  12.591  17.008   1.421  0.1032 -0.1210 -0.0685
23045W        W39519  14.659   1.642  11.528 -0.0362  0.1617 -0.0018
23046W        W39520  10.110  14.775  12.185  0.1523  0.0391 -0.1215
23047W        W39521  18.414   2.162  12.846 -0.2864 -0.0062  0.1475
23048W        W39522   9.418   0.938   3.725 -0.3014  0.1182 -0.1859
23049W        W39523   8.203  10.058  13.773 -0.1217  0.0970  0.1548
23050W        W39524  16.351   9.715   1.952 -0.3614 -0.1687 -0.0922
23051W        W39525  16.409  12.340   4.301  0.1925  0.1671  0.1395
23052W        W39526  12.180  17.102  13.762 -0.2584  0.0384 -0.0471
23053W        W39527  14.398  18.859  11.877  0.0058 -0.1637  0.3271
23054W        W39528  14.264   9.097   1.322 -0.3197  0.0789 -0.3322
23055W        W39529   0.294   9.669   4.121  0.3625 -0.1416  0.0657
23056W        W39530   9.838   5.234  12.013 -0.0337  0.0327  0.2067
23057W        W39531   7.323  13.224   9.942 -0.0658  0.1361 -0.3038
23058W        W39532   0.872  18.946  12.552 -0.1524  0.0691  0.1790
23059W        W39533   3.663  11.845  12.398  0.0234  0.3638 -0.1301
23060W        W39534  12.328  15.901   0.566  0.3554  0.3159 -0.2006
23061W        W39535   5.729   4.351   9.521 -0.1252 -0.1424  0.0901
23062W        W39536   7.972  13.890   3.298  0.0100 -0.0464  0.3138
23063W        W39537  12.263   4.909   0.679  0.0158 -0.1862  0.2214
23064W        W39538  15.437   6.614   3.990  0.1732 -0.1898 -0.4311
23065W        W39539  13.835  13.350   2.589 -0.1270  0.0109  0.1094
23066W        W39540  10.205   6.849  10.295 -0.1967 -0.5371 -0.2974
23067W        W39541  16.146   4.312  12.410 -0.2470  0.1055 -0.0042
23068W        W39542  13.608   5.843   2.563 -0.1325  0.2466  0.0173
23069W        W39543  18.433  16.730  13.296 -0.0778 -0.1081  0.0194
23070W        W39544   1.860  13.339   4.458 -0.0311 -0.3254  0.0955
23071W        W39545   5.426  17.687  11.522  0.3431 -0.2555  0.2235
23072W        W39546  16.366   7.342  12.949  0.1427  0.0559  0.2172
23073W        W39547  18.239   0.348   0.810  0.0453 -0.0358 -0.1872
23074W        W39548  10.186  14.239  12.381 -0.0034 -0.1872  0.3040
23075W        W39549   9.137   7.843   3.034 -0.1328 -0.1435  0.2257
23076W        W39550   9.256   9.142   4.616  0.2375  0.2495 -0.2581
23077W        W39551   6.628  14.729   3.389 -0.1005 -0.2629 -0.0923
23078W        W39552   7.833  10.612   0.283  0.3761  0.0059  0.0220
23079W        W39553   6.691  16.024   4.642 -0.0735  0.0762 -0.3477
23080W        W39554  12.262   3.620   4.011  0.2534  0.2373 -0.0140
23081W        W39555   3.738   5.571  13.010  0.1890  0.3093 -0.0343
23082W        W39556  11.321   5.907   2.139 -0.0982  0.1209 -0.2461
23083W        W39557  11.091  19.032  13.821 -0.0858 -0.1888  0.1404
23084W        W39558   5.652   6.433  10.745  0.0712 -0.1211  0.2714
23085W        W39559  10.616  13.919  12.298 -0.2040 -0.2596 -0.2000
23086W        W39560   7.793  13.448   0.467  0.1341  0.1467 -0.0739
23087W        W39561  16.972  15.488   3.750  0.0975  0.1321  0.1891
23088W        W39562  13.907   8.787  14.605  0.0169  0.1241  0.0059
23089W        W39563   2.519   0.006  12.842 -0.3064  0.1304 -0.2386
23090W        W39564   2.305   8.285   1.969  0.1846  0.2057 -0.2218
23091W        W39565   5.622  11.279   5.087  0.0059  0.6318  0.3239
23092W        W39566   4.741  14.542  12.149 -0.0515  0.1827 -0.1405
23093W        W39567   1.023   4.732  14.433 -0.0242 -0.1103  0.0187
23094W        W39568  11.208   7.764   0.299 -0.2021 -0.1092 -0.0268
23095W        W39569   6.793   0.783  11.025  0.0343 -0.4387  0.1221
23096W        W39570  14.842  18.383   0.040 -0.0921  0.1244 -0.1102
23097W        W39571   4.470   6.695   2.242  0.2028 -0.1102 -0.1829
23098W        W39572  10.283  11.548   3.758 -0.2701 -0.2535 -0.3573
23099W        W39573  11.481  11.053   2.674 -0.1760  0.2920 -0.1615
23100W        W39574   1.541  11.550  12.025 -0.0539  0.2403 -0.1863
23101W        W39575   8.901  10.788  12.226 -0.1899 -0.1283  0.1518
23102W        W39576   3.447  14.996  14.244  0.1450  0.1217  0.0580
23103W        W39577   8.721   6.301   3.607  0.2556 -0.3633 -0.5107
23104W        W39578   3.933   8.359  12.652 -0.0941 -0.0127 -0.0646
23105W        W39579  17.477   1.939  10.831 -0.1418  0.0405  0.3850
23106W        W39580   6.384  10.971   1.120  0.2235 -0.1968 -0.2276
23107W        W39581   5.975   9.086  13.720  0.1344  0.1021 -0.1395
23108W        W39582  13.915   1.407   0.192  0.0707 -0.0023  0.0891
23109W        W39583  17.388   4.423  13.019  0.0785  0.1041 -0.0198
23110W        W39584  13.826  15.663   4.644 -0.1955 -0.3172 -0.4484
23111W        W39585   9.986  15.167   0.505 -0.2854 -0.1108 -0.2186
23112W        W39586  13.050  12.816  12.153  0.1123 -0.1707 -0.2373
23113W        W39587  15.072  16.049   1.550 -0.1271 -0.3996  0.4990
23114W        W39588   9.892   8.468   4.201 -0.1351 -0.0962 -0.2515
23115W        W39589  11.744   6.570  11.197  0.4316  0.0324 -0.0429
23116W        W39590   6.367  14.820  11.453  0.0274 -0.2833  0.2416
23117W        W39591   1.766   5.648   4.450 -0.1619 -0.4148 -0.0527
23118W        W39592  15.462  10.895   0.693 -0.0867  0.3204 -0.2909
23119W        W39593   4.853   9.083   4.327 -0.0694  0.1487  0.1138
23120W        W39594  12.865  18.312   5.194  0.0488  0.0161  0.0989
23121W        W39595  16.799  10.486   1.398 -0.0661  0.0490 -0.1276
23122W        W39596   5.698   2.036   0.776  0.0309 -0.1900 -0.1718
23123W        W39597   5.838   0.628   4.346  0.0603 -0.3200  0.1594
23124W        W39598   8.619   6.296   4.106  0.1650  0.1413  0.0418
23125W        W39599  15.598  18.303   3.761  0.0872  0.0814  0.0935
23126W        W39600   4.649   1.958  12.025 -0.1916 -0.3044  0.2123
23127W        W39601   7.804   1.318  10.374 -0.0083  0.2780  0.1215
23128W        W39602  17.711   0.077   5.142  0.1788 -0.1093 -0.0237
23129W        W39603  12.853  17.848   1.179  0.0771 -0.4011  0.2171
23130W        W39604   9.651   2.326   1.091  0.1996  0.1776 -0.1624
23131W        W39605  18.692   2.266  14.063  0.2365  0.0306 -0.2309
23132W        W39606   2.152   5.132   0.248  0.1490  0.0988  0.0264
23133W        W39607   1.269   4.479  13.672  0.0966 -0.0026  0.3299
23134W        W39608  10.543  16.666   4.726  0.4170 -0.1345  0.0230
23135W        W39609  16.792   0.392   2.448 -0.0160 -0.2668  0.3197
23136W        W39610   7.839  13.126  13.136  0.0207  0.2577 -0.2908
23137W        W39611  10.126  15.204   5.591  0.0254 -0.1208 -0.2279
23138W        W39612  11.222  13.718   0.469  0.3359  0.1543  0.0429
23139W        W39613   1.952  17.994   3.218 -0.1483 -0.1606 -0.0343
23140W        W39614  15.451  17.186   1.310 -0.2729 -0.4254 -0.1065
23141W        W39615   8.798  12.234   4.743 -0.2772 -0.1556  0.0103
23142W        W39616   5.244  18.878  13.967 -0.6215  0.0321 -0.1754
23143W        W39617   4.377  16.472  13.558 -0.2236 -0.1071  0.0386
23144W        W39618   9.850  15.210  11.478  0.3096  0.2151  0.1414
23145W        W39619   5.073  17.855  10.689  0.2066 -0.2287 -0.0168
23146W        W39620   5.630  13.627   3.332  0.3426  0.0324  0.1937
23147W        W39621   0.008   1.941  14.629 -0.0304  0.0020  0.1332
23148W        W39622   7.395   6.584   5.255 -0.0446  0.2416  0.1051
23149W        W39623   5.493  16.314  13.289  0.2247  0.1604 -0.0378
23150W        W39624  11.267  11.093   0.570  0.1405 -0.1283  0.0804
23151W        W39625  11.803  16.221   1.906  0.0862  0.2939  0.1593
23152W        W39626   4.731  18.227  10.651  0.0577 -0.0222 -0.0442
23153W        W39627  16.049   9.575  12.345  0.1061 -0.1668  0.5653
23154W        W39628  15.656  18.129  11.633 -0.0891 -0.1571  0.5040
23155W        W39629  11.380   0.065  10.390 -0.1822  0.2130 -0.0545
23156W        W39630   8.547  10.667   4.160  0.0276  0.1150 -0.2248
23157W        W39631   8.764  12.941  14.622 -0.0355 -0.4589 -0.1123
23158W        W39632   1.538   8.887   0.180 -0.0897 -0.0428  0.0791
23159W        W39633  14.461  10.471  11.228  0.2537  0.1926 -0.0058
23160W        W39634  17.698  14.986   3.809  0.2636  0.2638 -0.1806
23161W        W39635   4.205   6.052   4.738 -0.1025 -0.2105 -0.2392
23162W        W39636  17.411  16.242   2.842 -0.1914  0.3616 -0.1161
23163W        W39637   0.051  11.578  11.026 -0.2250  0.1233  0.0459
23164W        W39638  10.755  16.444  13.090 -0.5154 -0.1458 -0.1042
23165W        W39639   5.637  17.581   3.617 -0.2828 -0.0793 -0.2458
23166W        W39640   0.661   0.909  11.304  0.0195  0.0053  0.2243
23167W        W39641  18.868   7.047   4.565 -0.0166  0.1033 -0.1837
23168W        W39642   8.235   3.252  13.333 -0.1150  0.0647  0.1303
23169W        W39643  18.625   4.056   2.110 -0.1787 -0.2681  0.0151
23170W        W39644   0.749   8.971   3.192 -0.2794  0.0138  0.0425
23171W        W39645   4.414   7.807  12.276  0.0169 -0.2578 -0.2247
23172W        W39646   0.017  15.680   3.340 -0.0963  0.0841  0.0305
23173W        W39647  12.330   5.586   3.880  0.2277 -0.0705  0.0170
23174W        W39648   1.845   8.666   3.179 -0.1053  0.0399 -0.0417
23175W        W39649  17.533   8.308  12.213 -0.0060 -0.0832 -0.0373
23176W        W39650   6.719  12.504   4.634 -0.2973  0.1120 -0.0330
23177W        W39651  15.932   9.089   5.031  0.4833  0.2813 -0.0338
23178W        W39652  15.315   0.421   0.191  0.3409  0.3991 -0.0097
23179W        W39653   1.738  18.113  11.616  0.0017 -0.0484 -0.0555
23180W        W39654   7.553   8.769  14.237  0.1366  0.1361  0.0364
23181W        W39655  16.313   8.557  10.147  0.2861  0.0606 -0.1093
23182W        W39656  11.295   0.287   1.762  0.0976 -0.1242  0.2951
23183W        W39657   4.034  10.801  13.917 -0.0795  0.0599 -0.1938
23184W        W39658   2.808   2.714  13.958 -0.1913  0.2446 -0.0273
23185W        W39659   6.014  14.758  14.025 -0.0749  0.1000  0.0580
23186W        W39660   2.381  13.183   1.885 -0.1291 -0.0046  0.2943
23187W        W39661  16.791   1.095   1.761  0.0946  0.0002 -0.0606
23188W        W39662   4.741   1.687   0.697  0.2258 -0.0820  0.0732
23189W        W39663   0.521  15.035  14.261 -0.1066  0.1718  0.1706
23190W        W39664  18.156  13.195  13.385  0.2126 -0.2924 -0.2185
23191W        W39665   7.976   9.104  11.177 -0.1723 -0.1245 -0.0849
23192W        W39666  15.547  16.666   0.321  0.3437  0.1800 -0.0565
23193W        W39667  11.223  10.418   4.574  0.2713  0.1183  0.0288
23194W        W39668   4.566  17.913   3.039 -0.1439 -0.1132 -0.0208
23195W        W39669   2.696  13.834   5.492  0.1242  0.0521 -0.0500
23196W        W39670   8.520  18.790  10.248  0.1489 -0.1494  0.2854
23197W        W39671   2.423   6.332   1.268  0.2770 -0.0371  0.4041
23198W        W39672  15.431   5.389  12.193  0.1069  0.3622 -0.2302
23199W        W39673   8.696   4.688  12.556  0.2420  0.3001 -0.2520
23200W        W39674   4.084   7.586  11.326  0.1179 -0.1587 -0.1201
23201W        W39675  11.235  14.256   5.619 -0.1508 -0.0527  0.5943
23202W        W39676  18.879   7.160   3.090 -0.0665 -0.3649  0.1926
23203W        W39677   8.791  18.131   4.752  0.1401 -0.0409  0.2078
23204W        W39678   2.110  18.392  11.871 -0.1774 -0.1035  0.2358
23205W        W39679  14.932   8.200  13.328 -0.3548 -0.0330 -0.0211
23206W        W39680  16.256  12.712  13.808  0.0168  0.0756 -0.0937
23207W        W39681  19.058  10.821  13.425  0.1546 -0.2429 -0.0637
23208W        W39682   3.824   4.042  14.457 -0.1374  0.3793 -0.1670
23209W        W39683   1.808   5.581   0.419 -0.0861  0.0322 -0.2728
23210W        W39684  15.025   1.630  12.349  0.2644 -0.2890  0.3414
23211W        W39685  14.272   3.362  14.852  0.1659 -0.2278  0.0351
23212W        W39686  12.720   2.668   2.491  0.1538  0.2766  0.1451
23213W        W39687  18.351  15.464   1.306 -0.1917  0.1078  0.0675
23214W        W39688  14.479  17.361   1.240  0.2196 -0.2689 -0.0274
23215W        W39689   1.570   9.094   1.596  0.0642  0.2348  0.0297
23216W        W39690   4.202   2.506  11.314  0.0603 -0.3690  0.1579
23217W        W39691   4.383  16.807   2.555 -0.2311  0.0692  0.1338
23218W        W39692  18.077   7.477   0.929 -0.0934  0.1169  0.0993
23219W        W39693  18.983  18.211   0.494  0.1185 -0.3102  0.0227
23220W        W39694  15.502   5.063   5.000 -0.0480  0.1076 -0.0355
23221W        W39695   9.390  12.936   0.992 -0.1232 -0.0597 -0.0817
23222W        W39696  12.251  17.727   1.983  0.0453  0.1594  0.3329
23223W        W39697   1.215  10.101  13.402  0.1305 -0.1429  0.0163
23224W        W39698   7.981  11.932   4.424 -0.1169 -0.0639 -0.2414
23225W        W39699  13.373   6.486   2.085  0.3286 -0.2201  0.2409
23226W        W39700   2.627   8.633   1.014 -0.0131 -0.0027  0.1941
23227W        W39701   6.291  13.898   3.546 -0.1844 -0.0599  0.0467
23228W        W39702  11.143  15.875   3.446  0.0140 -0.1301 -0.1710
23229W        W39703  12.667  11.434   2.979 -0.2965  0.4152 -0.2201
23230W        W39704  18.179   7.194   3.178 -0.0184  0.1527  0.0468
23231W        W39705   1.390   2.865  10.994 -0.2376  0.2122 -0.0619
23232W        W39706  16.075  14.136   1.571 -0.3132  0.0164 -0.1360
23233W        W39707   0.882  17.040   3.487 -0.3102 -0.1786  0.0809
23234W        W39708  10.679   1.488   0.614  0.2902  0.3699  0.0744
23235W        W39709   5.907   5.855   2.860 -0.2462  0.1029 -0.1682
23236W        W39710  18.361   8.200  12.474  0.1966 -0.1928 -0.2022
23237W        W39711  15.082   5.313   4.918 -0.1517  0.2277  0.4096
23238W        W39712  18.614  17.103  10.438  0.1779  0.1061  0.0935
23239W        W39713   9.294   0.975  12.580 -0.1733  0.0581 -0.2004
23240W        W39714   1.000  16.775   2.017  0.1350  0.0122 -0.3389
23241W        W39715  14.002   4.046   3.949  0.0289 -0.1357 -0.2219
23242W        W39716  17.208   4.860  14.572 -0.4284 -0.4115 -0.3955
23243W        W39717  12.507   7.006  10.721  0.1028 -0.1574 -0.4397
23244W        W39718   0.055   7.106  13.059 -0.0080 -0.1031 -0.2601
23245W        W39719   8.037   9.226  11.888 -0.0130  0.0137  0.0023
23246W        W39720   2.644  17.793   1.649 -0.0759  0.0073 -0.1515
23247W        W39721  16.501  12.546  10.779  0.0421  0.1552  0.1463
23248W        W39722  15.107  11.285   4.753 -0.1105 -0.2872  0.1597
23249W        W39723  15.217  15.290   1.279  0.0302  0.0402 -0.2944
23250W        W39724   0.998  13.034   2.360 -0.0315 -0.2071 -0.2351
23251W        W39725   7.477  13.311   1.657  0.1876 -0.2962 -0.5519
23252W        W39726   3.805  17.908  12.265  0.0159  0.0875  0.3716
23253W        W39727   3.132   7.726  12.685  0.0455 -0.1069 -0.1882
23254W        W39728  16.289  16.441   3.006  0.0772 -0.2423 -0.0369
23255W        W39729   3.455  12.065   5.570  0.0624  0.0262 -0.1233
23256W        W39730  10.462  10.834   1.859 -0.0399 -0.1725 -0.1791
23257W        W39731  13.434   9.541   2.251 -0.0805 -0.1071  0.5407
23258W        W39732  16.087   4.175   5.055 -0.1340 -0.1159 -0.4087
23259W        W39733  11.146  14.061  14.584 -0.0066  0.2999  0.2117
23260W        W39734  17.222   4.007   2.444 -0.1125 -0.0346  0.2032
23261W        W39735   2.581   0.689   3.616 -0.0738 -0.0583  0.0568
23262W        W39736  16.557  10.018   1.134 -0.0140  0.0839  0.3299
23263W        W39737   7.823  17.103  12.538  0.1849  0.1725  0.0035
23264W        W39738  11.623   2.111   2.267 -0.0319 -0.1235 -0.4036
23265W        W39739   6.353   3.301  12.328  0.0334 -0.0358  0.3385
23266W        W39740  15.841  11.744  12.817  0.1047  0.0680 -0.0716
23267W        W39741   6.124   0.559  13.647  0.0572  0.2294  0.0223
23268W        W39742  16.198   4.448   4.642 -0.3324 -0.0496  0.1322
23269W        W39743   0.069  13.179   2.034  0.0918  0.2148  0.2348
23270W        W39744   6.232   9.500   2.514 -0.1175 -0.1514  0.1279
23271W        W39745   2.793   5.994  13.351 -0.1753  0.0644  0.3293
23272W        W39746  16.433   9.913   2.409 -0.4096 -0.1213 -0.0952
23273W        W39747  18.894  16.214  12.608 -0.0931  0.3000 -0.1233
23274W        W39748  16.524   4.778  14.324 -0.3068 -0.0256 -0.2887
23275W        W39749  15.780   6.363   2.497 -0.1317 -0.1136 -0.0525
23276W        W39750   4.591   6.288   2.537  0.0767 -0.1607  0.0090
23277W        W39751  17.284   5.046  14.101  0.0764  0.0398  0.3722
23278W        W39752  17.504  17.218   4.872 -0.3509 -0.3866 -0.1604
23279W        W39753  13.262   3.042  13.337  0.3182 -0.1324  0.0151
23280W        W39754  13.387   2.492   4.636 -0.0337  0.2414  0.2531
23281W        W39755   4.621   3.222  11.913 -0.2040 -0.0012 -0.2406
23282W        W39756  11.410   2.793  11.578 -0.0706  0.0995  0.0588
23283W        W39757   8.393   8.606  13.662 -0.0882 -0.3774  0.4109
23284W        W39758   4.408   6.515  13.653  0.1402 -0.0381  0.0420
23285W        W39759  18.617  14.740   5.484 -0.0139 -0.1041 -0.0656
23286W        W39760  10.816   6.278   1.078 -0.1773 -0.2085  0.0125
23287W        W39761   3.969  17.913  14.631  0.0358 -0.2599  0.0405
23288W        W39762   7.649  16.701   4.160 -0.1119  0.1852  0.2332
23289W        W39763  10.378  17.478   1.790  0.0330 -0.0290  0.0803
23290W        W39764   8.778   1.925  13.421 -0.3646 -0.1053  0.1446
23291W        W39765  13.391   9.824  10.973 -0.1051  0.0536  0.2997
23292W        W39766  11.012   5.281   2.460 -0.5439 -0.2046  0.2593
23293W        W39767   9.776   3.825   0.316  0.3713 -0.1867  0.3663
23294W        W39768   6.418   0.214   2.915  0.1161 -0.0969 -0.0198
23295W        W39769   1.427  10.657   1.370  0.1632 -0.1893  0.1779
23296W        W39770   5.513  15.015   5.278  0.2473  0.0938  0.5758
23297W        W39771  13.293  13.703  13.881 -0.4124  0.4091 -0.0109
23298W        W39772   2.947   3.077   0.435  0.4322 -0.2612  0.0841
23299W        W39773  17.999   1.999   3.979  0.1958  0.1244 -0.0121
23300W        W39774   6.849   0.247  13.012  0.1986  0.2006 -0.1567
23301W        W39775  16.959   5.890   1.978 -0.0299 -0.2343  0.0512
23302W        W39776   5.110   9.670  12.596  0.2078  0.0659 -0.1514
23303W        W39777  14.768  16.529  12.740  0.0347 -0.0552  0.1595
23304W        W39778   8.558   9.927   4.614 -0.0683  0.1088  0.0767
23305W        W39779  14.659   0.535   1.167  0.0296 -0.1487 -0.0974
23306W        W39780  16.960   8.628   4.749 -0.1527 -0.0903 -0.1723
23307W        W39781   8.087  15.080  12.730 -0.1028 -0.0234 -0.1771
23308W        W39782  15.799   8.128  13.251  0.0638  0.3916  0.0252
23309W        W39783  11.855   0.065   2.529  0.4730  0.1784 -0.2006
23310W        W39784   9.636  10.174  12.788 -0.2265  0.2461 -0.1639
23311W        W39785   1.726  19.299   2.591  0.0207 -0.1043 -0.0458
23312W        W39786  16.875  19.073   4.812 -0.1552  0.1587  0.0137
23313W        W39787  13.567  11.117   0.673  0.0543  0.0495 -0.3421
23314W        W39788   8.024   9.905  11.815  0.1459  0.2340  0.2218
23315W        W39789   1.383  15.632  11.449  0.0807  0.1963 -0.0566
23316W        W39790  18.945  14.251   0.297 -0.1244 -0.0047  0.1410
23317W        W39791  10.678   4.473   1.990 -0.0692 -0.0183  0.3987
23318W        W39792   6.216  15.502   2.703 -0.1892  0.2591  0.1926
23319W        W39793   4.107   3.007   0.804  0.1973 -0.1673  0.0346
23320W        W39794   8.319   0.326  13.297  0.2523 -0.1277  0.2647
23321W        W39795   1.337  12.615  13.268  0.1632 -0.1327  0.0713
23322W        W39796  12.846  10.545  11.346  0.3611  0.1397 -0.0426
23323W        W39797  18.071   8.572  12.078 -0.2026 -0.6236 -0.1991
23324W        W39798  12.096   3.589   2.112 -0.2894 -0.5477 -0.1488
23325W        W39799  11.987  13.090   1.236 -0.5454  0.0255 -0.2476
23326W        W39800   4.432  11.657  11.146  0.0846 -0.0530 -0.2437
23327W        W39801  11.082  16.851  13.090 -0.2883 -0.3388  0.1861
23328W        W39802   4.500  14.479   3.527 -0.0750  0.4019  0.4651
23329W        W39803   5.038  12.382  12.820  0.3729  0.0526  0.0701
23330W        W39804   9.616  14.207   0.558 -0.0344 -0.1199  0.2082
23331W        W39805  14.189  16.855   3.902  0.3320 -0.0692  0.0277
23332W        W39806   2.648  11.363  10.537  0.0029  0.2345  0.1357
23333W        W39807  13.595   6.561   2.544 -0.0359 -0.0606  0.0785
23334W        W39808  14.567  11.209  12.307  0.1448  0.0878 -0.2104
23335W        W39809   0.995  18.709   4.304  0.6269  0.1307 -0.0851
23336W        W39810  11.192   7.563  11.601 -0.1964  0.0145 -0.1661
23337W        W39811  16.372   7.830   4.549  0.0466 -0.1195  0.0807
23338W        W39812   6.191   9.815  13.977 -0.1993 -0.0665  0.2119
23339W        W39813  10.988  17.231  11.623 -0.1062 -0.2926 -0.4538
23340W        W39814  16.583   9.689   4.465 -0.0956 -0.0900  0.1728
23341W        W39815  16.266   9.197   1.883  0.1208 -0.4124 -0.1752
23342W        W39816   1.128   6.408   3.601 -0.1052  0.0338  0.1434
23343W        W39817   5.370   2.892   1.877  0.0236  0.1863 -0.0127
23344W        W39818  18.362   1.663  14.390  0.1784  0.0105 -0.3522
23345W        W39819   3.407  17.809  12.629  0.2085 -0.0757  0.0179
23346W        W39820  18.245   9.064  10.480  0.1891  0.0367 -0.2392
23347W        W39821  16.960   8.339   5.129 -0.2494  0.1610  0.0943
23348W        W39822  12.465   4.372   3.345  0.0727  0.0749  0.0187
23349W        W39823   7.202  14.283  12.714  0.3553  0.1246 -0.1871
23350W        W39824   8.597  10.252   1.577  0.1604  0.0349 -0.1726
23351W        W39825  10.220  15.475  14.853 -0.1891  0.1948  0.1494
23352W        W39826   5.269   8.248  13.628  0.0124 -0.1332  0.3867
23353W        W39827  14.750  16.235   0.694  0.4392  0.0106  0.0474
23354W        W39828  14.351  13.999   1.446 -0.0803 -0.0365 -0.2280
23355W        W39829   4.682  18.460   0.886  0.2698  0.4281 -0.2274
23356W        W39830   4.830   8.287   3.218 -0.1470 -0.2326  0.2579
23357W        W39831   1.148   7.057   0.093 -0.0959  0.0573  0.1984
23358W        W39832  16.373   6.470  12.676 -0.2012 -0.1347 -0.2472
23359W        W39833   9.187   2.856   2.221  0.0081  0.1963 -0.1149
23360W        W39834   4.903   1.827   0.235  0.4706  0.1512 -0.4205
23361W        W39835  12.310  16.816   3.820 -0.0123 -0.0444  0.0014
23362W        W39836   9.812  10.540   0.972 -0.1596 -0.0847 -0.2024
23363W        W39837   6.533   9.855  13.545 -0.0626  0.1859 -0.2314
23364W        W39838   6.439   7.521  14.207 -0.1597 -0.3110  0.2027
23365W        W39839  10.201  17.871   3.750 -0.0020  0.0036  0.1800
23366W        W39840  12.765  14.577   0.822 -0.0627 -0.0823  0.1554
23367W        W39841   9.859   5.850   4.122 -0.0182 -0.1721  0.0163
23368W        W39842   1.680  14.477   4.357  0.1993  0.1483 -0.0608
23369W        W39843   9.189  13.460   3.853  0.0411 -0.1924  0.4055
23370W        W39844   6.536  15.580   1.186 -0.2176 -0.0654  0.0138
23371W        W39845  13.713   9.186   2.448 -0.1164 -0.1986  0.0572
23372W        W39846   4.318   3.002  10.540 -0.0117 -0.3935  0.1140
23373W        W39847   8.388   2.930   4.494  0.0510 -0.0428 -0.0489
23374W        W39848  11.635   3.004  10.482  0.0499 -0.1797 -0.1126
23375W        W39849   8.748   7.251  13.178 -0.1156  0.0294 -0.2606
23376W        W39850  10.513  13.757   4.729 -0.2316 -0.0082 -0.0087
23377W        W39851   3.662   9.359   1.233  0.3775  0.1026 -0.0359
23378W        W39852  11.595   8.643  10.521  0.1916  0.0582 -0.0005
23379W        W39853  11.429   2.399   3.445  0.0456 -0.2986 -0.1215
23380W        W39854   2.343   3.512   4.994  0.2250  0.0100  0.0618
23381W        W39855  10.159  10.586   2.238  0.0098  0.1237 -0.1833
23382W        W39856  15.035   7.098   4.746 -0.1239  0.1185  0.1073
23383W        W39857   0.391   1.779  12.429 -0.2278 -0.3700 -0.0156
23384W        W39858  13.633   3.724   3.762  0.1535 -0.1245  0.1379
23385W        W39859   1.306   2.779  12.492 -0.3043 -0.0241 -0.2009
23386W        W39860   7.135  18.772   0.876 -0.0057  0.1200 -0.3952
23387W        W39861   8.582  13.455   1.265 -0.1742  0.1015 -0.1345
23388W        W39862  10.898   5.034   1.948 -0.0075  0.0313  0.0307
23389W        W39863   6.720   1.476   0.026 -0.1993  0.3959 -0.0713
23390W        W39864  17.889   1.529   1.235 -0.1181 -0.0521  0.0716
23391W        W39865  13.282  10.250   5.335 -0.0003  0.3814 -0.0310
23392W        W39866   2.788   1.413   0.024 -0.0922  0.1785 -0.0031
23393W        W39867  13.256   6.794  11.283 -0.0572  0.0385  0.0830
23394W        W39868  15.121  18.674  11.998 -0.1607 -0.1208 -0.0968
23395W        W39869  19.045  13.786  12.687 -0.1355  0.0804 -0.0286
23396W        W39870  14.817  15.969  14.110  0.1464  0.3562 -0.2352
23397W        W39871   6.638   8.953   1.108 -0.0132 -0.0720 -0.1750
23398W        W39872   6.510  10.484  14.403  0.0269 -0.2532 -0.7969
23399W        W39873  13.177   6.576   4.304  0.4782  0.0987  0.2477
23400W        W39874  12.510   5.283  13.820  0.3455 -0.2269 -0.4496
23401W        W39875   4.455   0.681   4.588  0.4111 -0.2210  0.0627
23402W        W39876  11.978  11.556   4.103  0.1126  0.3618 -0.0460
23403W        W39877  16.201   8.306  10.624 -0.3841  0.3495  0.1911
23404W        W39878   4.947  13.208  12.668 -0.2305 -0.0835  0.0330
23405W        W39879   9.513   8.927   0.741 -0.2182 -0.3875  0.0151
23406W        W39880   6.765   8.703  12.472 -0.2321  0.1081  0.0123
23407W        W39881   6.464   0.241   1.164 -0.0753  0.1777 -0.1208
23408W        W39882  17.021  19.267  12.314 -0.1078 -0.2983 -0.1709
23409W        W39883   4.163   1.507  12.821 -0.1229 -0.2715  0.3010
23410W        W39884  17.768   8.624  11.281  0.3139 -0.1955 -0.2224
23411W        W39885   8.280  12.164   2.773 -0.0323 -0.0715 -0.0101
23412W        W39886  14.876  18.939   3.531  0.4580 -0.1403 -0.4133
23413W        W39887   9.234  15.111   3.528  0.0958 -0.2404  0.1996
23414W        W39888  14.044   0.197  12.300 -0.0688  0.1700  0.2835
23415W        W39889  16.001  15.549  14.253 -0.1883  0.0939  0.2639
23416W        W39890   1.308  17.924   5.189  0.1971 -0.1729 -0.3891
23417W        W39891  13.168  16.760   2.435  0.1607  0.0020  0.0486
23418W        W39892   3.531   4.607   1.235  0.1274 -0.0600 -0.0008
23419W        W39893   1.167  17.777   3.194 -0.0023 -0.2993  0.2060
23420W        W39894   2.176   3.434   9.495  0.3594 -0.1072 -0.2391
23421W        W39895  12.565   3.023  13.105  0.0741  0.1336 -0.1693
23422W        W39896   8.984   2.246  11.996  0.0796 -0.1203 -0.0437
23423W        W39897   6.120  18.425   3.604 -0.0256  0.1263  0.0278
23424W        W39898   9.364   5.255   4.710  0.1637  0.0825  0.1294
23425W        W39899  15.555   3.575   3.136 -0.3263  0.3619 -0.0570
23426W        W39900   2.351   4.591   0.173 -0.1240 -0.1964 -0.2227
23427W        W39901   2.552   8.660  10.464  0.1216  0.1419 -0.0117
23428W        W39902   7.610  10.336   1.144  0.1395  0.3924  0.0293
23429W        W39903  10.069  14.014  11.574  0.2344 -0.0468  0.2458
23430W        W39904   6.297   2.449   2.138 -0.1394 -0.0402 -0.1097
23431W        W39905  15.036   2.000   2.293 -0.0269 -0.1216  0.1277
23432W        W39906  15.967   5.213   0.324  0.2694 -0.1429  0.1369
23433W        W39907   3.384  12.675   4.505 -0.1223  0.4001  0.0446
23434W        W39908  18.282  19.217   3.130  0.1364  0.0759  0.3541
23435W        W39909   6.669   5.354   3.168 -0.3329  0.2516 -0.1115
23436W        W39910   8.471  14.407  13.067 -0.1781  0.2657 -0.2523
23437W        W39911   6.392  15.621   4.570 -0.1640 -0.1860  0.2082
23438W        W39912   3.626   3.039  11.671 -0.0701  0.0527 -0.2167
23439W        W39913  10.198   2.138   2.414 -0.5230 -0.3980  0.3012
23440W        W39914   1.391   9.901  10.838 -0.0037 -0.2978 -0.0530
23441W        W39915   9.583   0.410   0.480 -0.1772  0.1101 -0.2342
23442W        W39916   5.324  14.001   1.199 -0.1813  0.0795 -0.0723
23443W        W39917  19.272  12.707   4.484 -0.1559 -0.2602  0.1048
23444W        W39918  13.552   3.597   0.139  0.1904 -0.1943 -0.0027
23445W        W39919   7.455   9.223  10.535  0.2487  0.2371 -0.1337
23446W        W39920  17.094  19.380   3.785 -0.0256 -0.4922 -0.1650
23447W        W39921   9.204   5.919  13.302 -0.0628  0.0226  0.0329
23448W        W39922  16.743   2.469  14.079  0.1224 -0.0415  0.4184
23449W        W39923  11.701   2.770  14.634  0.2552 -0.2355 -0.1423
23450W        W39924  16.212  10.135   0.602 -0.4911 -0.4921  0.3212
23451W        W39925  18.692  12.059  11.722  0.3252  0.2634  0.1317
23452W        W39926  17.701   1.454   1.772 -0.0400 -0.0665  0.0555
23453W        W39927  12.572   5.187  11.719 -0.4405 -0.0185 -0.1230
23454W        W39928   9.778  18.036  13.118 -0.2108 -0.0175  0.1435
23455W        W39929  18.881   4.938  13.283 -0.1219 -0.0329  0.0990
23456W        W39930  18.310   4.364   1.741 -0.0123 -0.0043 -0.2528
23457W        W39931   6.690  10.274   5.397  0.0658  0.0372  0.0912
23458W        W39932   8.868   8.969   2.070  0.0286  0.1618  0.2627
23459W        W39933  14.396   5.804   3.446 -0.0818  0.2036  0.3640
23460W        W39934  11.112   9.820   3.246  0.0968 -0.0005 -0.5045
23461W        W39935   5.971   5.027   2.323 -0.1353  0.2064  0.1056
23462W        W39936   4.641   0.226   0.229 -0.0095 -0.1276 -0.3050
23463W        W39937   0.060   3.097  13.306  0.1305  0.0323 -0.0981
23464W        W39938   1.361   6.060  14.035 -0.1757  0.2121  0.1774
23465W        W39939   1.547  12.968   3.990  0.0827  0.0909  0.1290
23466W        W39940   1.294  13.668  12.905  0.0408 -0.0285 -0.0404
23467W        W39941   2.167  11.621   0.858 -0.0522 -0.0300 -0.3305
23468W        W39942   3.657   6.113   4.706  0.0776 -0.0287  0.0123
23469W        W39943  10.008   9.658  11.904  0.1524 -0.3097 -0.2444
23470W        W39944   7.071  11.044   2.790 -0.2041  0.0138  0.0865
23471W        W39945   9.127  18.144   4.004 -0.1963 -0.4387  0.0129
23472W        W39946  14.788  13.546  14.728  0.1024 -0.1670 -0.0559
23473W        W39947   6.454   3.236  13.237  0.3384 -0.1829 -0.2161
23474W        W39948  16.870   1.207   3.286 -0.1653 -0.1723 -0.3945
23475W        W39949   5.823   2.267   0.247 -0.0165 -0.1728 -0.2624
23476W        W39950  10.805   1.440  10.894  0.0375  0.0851 -0.1151
23477W        W39951  10.801  11.050   0.186 -0.1417  0.3258 -0.0367
23478W        W39952   0.296  18.844   1.760  0.1202 -0.1468  0.1506
23479W        W39953   3.836  16.661   1.037 -0.5282  0.0931 -0.1133
23480W        W39954  18.600  14.021  14.685 -0.0895 -0.1956 -0.1532
23481W        W39955   7.473   2.398  11.795  0.0045 -0.1483 -0.0785
23482W        W39956   4.164  16.687   3.427 -0.2040 -0.0872  0.0460
23483W        W39957  13.887  17.842   2.909  0.2009 -0.3424 -0.0163
23484W        W39958   0.540  10.695  13.642  0.2156 -0.0149 -0.0359
23485W        W39959  14.092   2.522   0.926  0.1007  0.0345  0.2918
23486W        W39960  11.463   5.004   9.827 -0.1813 -0.2119 -0.0146
23487W        W39961   0.127   1.747   3.295 -0.1989  0.1166  0.1951
23488W        W39962  15.470   7.439   2.229  0.2457  0.1112 -0.0091
23489W        W39963  17.955  17.328   3.331  0.5634 -0.0478  0.0154
23490W        W39964   0.871   6.399  10.899  0.3388 -0.1876 -0.2659
23491W        W39965   7.414   7.666   1.146 -0.1865 -0.0949 -0.0258
23492W        W39966  12.693  11.055  11.719  0.1538 -0.0680  0.1417
23493W        W39967  18.320   3.815   3.124 -0.1241  0.0477 -0.1303
23494W        W39968  17.147  14.066   0.731 -0.1318 -0.0918  0.1758
23495W        W39969  12.506   9.596   3.728 -0.0326 -0.0387  0.2005
23496W        W39970  11.262  15.620  11.045 -0.0355  0.1044 -0.2193
23497W        W39971   6.515  19.106  11.785  0.3008 -0.1328 -0.2204
23498W        W39972   1.887   4.765   0.055  0.0531  0.0984  0.0086
23499W        W39973   7.723   8.120  13.107  0.1198 -0.1797 -0.1014
23500W        W39974   7.983   3.699  13.303  0.0706  0.1372 -0.1330
23501W        W39975   2.601  12.296   1.492  0.1692 -0.1638 -0.0820
23502W        W39976  16.236  17.712  13.050 -0.2051  0.0211 -0.0070
23503W        W39977  14.793   8.404   3.088 -0.0899  0.2390 -0.0458
23504W        W39978   1.037  18.650  10.357  0.0760  0.0531 -0.0705
23505W        W39979  18.158  19.370   0.457 -0.0282 -0.3516 -0.3829
23506W        W39980   4.534  15.584  13.839  0.0389 -0.2005 -0.0037
23507W        W39981  12.868   1.367   4.458 -0.2724 -0.0053  0.2939
23508W        W39982   8.024   9.256   2.929  0.0241 -0.0393  0.1517
23509W        W39983  14.362   2.441   3.573  0.1277 -0.1633 -0.1370
23510W        W39984   7.964  16.741  13.967  0.1055  0.0432  0.0961
23511W        W39985  15.087   3.225   1.002  0.1019 -0.2039 -0.1004
23512W        W39986  15.864  12.024  13.530  0.0722 -0.0268  0.0365
23513W        W39987   6.911  11.591   2.230  0.1103 -0.0694  0.1020
23514W        W39988   5.664   1.631   2.411 -0.3338  0.4068  0.2383
23515W        W39989   9.387  17.271   4.267 -0.1376  0.1704  0.1324
23516W        W39990   6.512   5.549  13.308  0.2025  0.3307 -0.3065
23517W        W39991   2.821   3.350   3.043  0.0293  0.1469 -0.0681
23518W        W39992  10.136   7.263  10.578  0.0909  0.0743 -0.0229
23519W        W39993  15.462  18.111  10.514  0.1857  0.2528 -0.2531
23520W        W39994  13.193   8.443   0.598  0.1673 -0.1388  0.1199
23521W        W39995  14.102   9.780  11.855  0.4043  0.2660 -0.1687
23522W        W39996  17.288   9.962  11.664  0.1252  0.0725  0.0271
23523W        W39997   6.596   2.386   0.743  0.2410 -0.0041 -0.0532
23524W        W39998   5.843   7.864   5.152 -0.3630  0.3263  0.0945
23525W        W39999  14.443  11.370  13.410 -0.0029 -0.0085  0.0175
23526W        W40000   0.078  17.797  10.272  0.0685  0.2550 -0.1278
23527W        W40001   3.484  18.481  10.087 -0.0398  0.0932 -0.1243
23528W        W40002   2.161  11.266   2.652 -0.5290  0.0467  0.2190
23529W        W40003   7.283   0.735  10.862 -0.2033 -0.2995  0.0098
23530W        W40004  11.714   3.266   4.047 -0.1489 -0.0135  0.0340
23531W        W40005   3.804  16.347  10.672  0.3655 -0.0382  0.0220
23532W        W40006  18.444  13.698   4.276 -0.1358  0.1699  0.1339
23533W        W40007  11.610   3.241   1.030 -0.1329 -0.0446  0.0684
23534W        W40008   7.676  13.897   0.670  0.1390  0.2112 -0.1793
23535W        W40009   1.827  12.670   9.866  0.1058  0.1196 -0.0356
23536W        W40010  18.500   2.423   4.816 -0.1573 -0.0857 -0.0125
23537W        W40011   8.941   0.081  13.733 -0.0066  0.2758 -0.1222
23538W        W40012   4.885  15.254  12.636  0.0578  0.3051 -0.0368
23539W        W40013  15.651  16.443  11.789 -0.0940  0.3146 -0.2226
23540W        W40014   1.767   2.220  13.186 -0.1049  0.1169  0.0074
23541W        W40015  16.632  14.107   3.335  0.0919  0.2176  0.2102
23542W        W40016   8.169   8.518   9.010 -0.1626 -0.1126  0.0415
23543W        W40017   2.743   6.970  12.208  0.1571 -0.1687  0.0931
23544W        W40018  16.359  12.140   5.180  0.0997 -0.1724  0.1073
23545W        W40019  11.059   9.190  11.462  0.1390 -0.0390  0.1642
23546W        W40020   0.300  14.073   4.989  0.0426 -0.1151 -0.1489
23547W        W40021   1.593   5.024   0.360 -0.0148  0.2010  0.2815
23548W        W40022  19.100  13.956  12.047 -0.1054 -0.0914  0.1317
23549W        W40023   0.243  10.071   4.504  0.2786  0.0826 -0.0465
23550W        W40024   3.001  16.874  12.435  0.3286  0.2304  0.0645
23551W        W40025  12.781  18.492   1.622 -0.0905 -0.0201 -0.1071
23552W        W40026  17.272  10.776   1.902  0.0335  0.1012 -0.0249
23553W        W40027  14.614   5.374   1.283 -0.1528  0.2139  0.1438
23554W        W40028  17.602  13.381  10.923  0.3093  0.1770 -0.1278
23555W        W40029  17.809   2.013  12.202  0.0501 -0.2565  0.0616
23556W        W40030  11.065  11.565  12.651 -0.0320  0.0899 -0.0081
23557W        W40031   1.458   5.368   0.746 -0.1419  0.0326  0.2185
23558W        W40032   8.650  17.254  13.278 -0.2228  0.2112 -0.5631
23559W        W40033   2.158  12.733  12.781  0.2457  0.1510 -0.0419
23560W        W40034   2.816  15.475  14.017 -0.1954 -0.0868 -0.0153
23561W        W40035  16.868  14.804  14.260  0.0944 -0.0515  0.0159
23562W        W40036   8.029   9.487  10.795  0.2852 -0.0201  0.0345
23563W        W40037   8.372   1.746  12.504 -0.1199 -0.0636 -0.2281
23564W        W40038  12.287   8.222  13.843 -0.0667 -0.0905 -0.2698
23565W        W40039   5.977  17.913  12.733  0.0680  0.1426 -0.0266
23566W        W40040  18.670   3.410  13.409  0.1008  0.3551  0.0530
23567W        W40041   0.746   5.521  11.921  0.1954 -0.3277  0.0194
23568W        W40042   7.549   3.847   4.420  0.2587  0.0593  0.1914
23569W        W40043   6.762   3.116  11.961  0.0949 -0.0436 -0.2032
23570W        W40044  16.826   7.995   4.735 -0.0964 -0.0479  0.0296
23571W        W40045   0.181  18.387   9.578 -0.2083 -0.0572  0.0399
23572W        W40046   1.939   6.077   0.458 -0.1033  0.2233 -0.2519
23573W        W40047  12.439   5.953   3.554 -0.2064  0.2291 -0.0166
23574W        W40048   4.068   9.544   3.338 -0.1955 -0.2006  0.1258
23575W        W40049   5.630   5.007  11.061 -0.0026  0.0739 -0.0630
23576W        W40050  10.832  13.693  14.088  0.0894  0.0689  0.0650
23577W        W40051   7.775   9.036   0.305  0.2562 -0.5035 -0.0550
23578W        W40052   0.654   8.574  12.857 -0.0006 -0.1763 -0.3043
23579W        W40053  15.841   3.655  11.800  0.2510 -0.1289 -0.0837
23580W        W40054   7.294   3.068  14.363 -0.0679  0.0508 -0.1759
23581W        W40055   6.251   9.880  13.051  0.0493 -0.2230 -0.1092
23582W        W40056   1.947   4.707   4.082 -0.2010  0.3238  0.0297
23583W        W40057   7.137  16.096   5.193 -0.1674 -0.1892  0.0370
23584W        W40058  16.363   1.440  14.442  0.1121  0.0540  0.2680
23585W        W40059   7.449   1.836   1.700 -0.0856 -0.2663  0.2016
23586W        W40060  14.285  12.272  13.695  0.2904  0.0144  0.3463
23587W        W40061  14.100  18.198  14.278  0.3882  0.2708  0.2311
23588W        W40062  17.298   8.942  11.855  0.1971  0.1138  0.2561
23589W        W40063  13.043  11.658  11.182  0.2403 -0.3330  0.2754
23590W        W40064  10.966   0.029   3.654  0.2149  0.2210 -0.2771
23591W        W40065  14.923   8.813   4.614  0.1398 -0.0557  0.0144
23592W        W40066   4.545  10.133   5.074 -0.0840 -0.3486  0.1383
23593W        W40067   4.459  11.493   3.512  0.0459  0.0459  0.0587
23594W        W40068  11.714  15.537   4.683 -0.0083  0.0285  0.0784
23595W        W40069  16.552   9.460   1.537  0.0627 -0.1850 -0.0355
23596W        W40070   7.444  16.884  11.595 -0.1959 -0.0457 -0.3895
23597W        W40071   5.524  15.259   1.095 -0.2453 -0.0553 -0.0512
23598W        W40072  12.817   4.919  10.169  0.1933  0.1500  0.2865
23599W        W40073  11.498   0.220   4.780 -0.5400  0.0782  0.0474
23600W        W40074  17.085   4.440  12.191  0.1050 -0.0614  0.0195
23601W        W40075   4.085  13.815   3.737 -0.2052  0.2066  0.0332
23602W        W40076  17.294   7.579  14.634  0.0147 -0.2628 -0.2965
23603W        W40077   0.578  17.586   1.638  0.1047 -0.1437  0.4056
23604W        W40078   8.440  19.333   4.175 -0.0266 -0.0435 -0.1254
23605W        W40079   8.476   1.682  11.443  0.2781  0.0778  0.3207
23606W        W40080   5.946   6.044  14.353  0.3390 -0.2451 -0.4533
23607W        W40081  14.889   2.385  10.820  0.0995  0.0223 -0.2319
23608W        W40082   6.529   6.043  13.081 -0.0463  0.0585 -0.0926
23609W        W40083  11.855  18.455   0.489 -0.3537  0.0229 -0.0612
23610W        W40084   6.375  18.378   9.447  0.1742 -0.0956 -0.0746
23611W        W40085  19.029   9.164   2.620  0.0359 -0.1560 -0.0002
23612W        W40086  17.105   3.110   9.809 -0.1689 -0.0119  0.0749
23613W        W40087   7.784  15.175   0.259 -0.1750  0.3472 -0.0302
23614W        W40088   0.264   1.576   0.190  0.0362  0.0323 -0.0293
23615W        W40089   8.230  15.976  11.128  0.2882  0.0077 -0.2240
23616W        W40090  11.962  19.301  10.639 -0.0588  0.2355  0.2163
23617W        W40091   5.303   5.608   2.351  0.2825  0.0440 -0.0342
23618W        W40092   8.175   3.098   1.882  0.2607  0.1357  0.3055
23619W        W40093  12.292  13.709   2.022 -0.1501  0.1063 -0.1092
23620W        W40094  17.890  14.890  12.809 -0.0111 -0.0065  0.0625
23621W        W40095  13.427   1.743   1.587 -0.0124  0.1000 -0.2127
23622W        W40096  15.034   5.296  14.211  0.1368 -0.2410 -0.0121
23623W        W40097   6.936   3.731  10.107  0.1193 -0.2829  0.3170
23624W        W40098   1.855   3.377  14.376 -0.1508 -0.0684  0.1849
23625W        W40099   9.622  11.020   3.501 -0.1117  0.2356  0.0236
23626W        W40100   7.854  18.667  13.425 -0.0707  0.1647 -0.0600
23627W        W40101   3.784   5.319  13.427 -0.1243 -0.1793  0.2545
23628W        W40102  11.777   9.955   2.105 -0.3090 -0.0721  0.1018
23629W        W40103   2.702   1.811  13.340  0.0585  0.2464  0.1272
23630W        W40104  15.365  13.198  12.696  0.0164 -0.3623 -0.0145
23631W        W40105  15.697   4.814  13.578  0.1339  0.2715 -0.0203
23632W        W40106  10.355   3.746   0.932 -0.0071 -0.1725 -0.1930
23633W        W40107  18.397  14.477   1.572 -0.0995 -0.0697 -0.1990
23634W        W40108   3.889  16.811  11.579  0.3833  0.0897 -0.4157
23635W        W40109   2.843  18.921   4.415 -0.2040  0.3842  0.3779
23636W        W40110   0.065   3.661  12.559 -0.2769  0.2328 -0.1931
23637W        W40111   4.892  17.452  13.302  0.0132 -0.1459 -0.0493
23638W        W40112  16.567   2.123   5.036 -0.1881  0.0288 -0.0450
23639W        W40113  18.453   9.631   0.709 -0.2767 -0.1817  0.0125
23640W        W40114   7.668  17.662  11.775 -0.0171 -0.4845 -0.1173
23641W        W40115   4.962   2.482  10.495 -0.0869  0.2279 -0.0467
23642W        W40116   4.534   3.323  11.419  0.2477 -0.2125 -0.0653
23643W        W40117  11.376   1.441   3.336 -0.0360  0.4459  0.0899
23644W        W40118  12.497  17.763   1.543 -0.1740 -0.2387 -0.1948
23645W        W40119  19.254  11.161   1.271 -0.2460  0.0511  0.1412
23646W        W40120   8.784  10.340   2.800 -0.1723  0.2931 -0.4570
23647W        W40121  14.680  10.431   3.056 -0.0098  0.1465 -0.1400
23648W        W40122   5.567   5.591  13.189  0.0235  0.2892  0.0563
23649W        W40123   7.966   9.774   5.311  0.2423  0.0283 -0.2310
23650W        W40124   9.631   2.058  13.534 -0.0495  0.1854  0.0426
23651W        W40125  13.363   8.039   0.843  0.1186 -0.1998  0.0574
23652W        W40126   5.691  16.861  10.650 -0.1143  0.2307 -0.2403
23653W        W40127   7.039   8.672   3.163  0.1551 -0.1259 -0.0994
23654W        W40128  18.910   9.252  11.724  0.0010  0.2265 -0.0138
23655W        W40129   1.115  11.205  11.869 -0.0898 -0.0350  0.2077
23656W        W40130  13.793  12.352  14.859  0.1764  0.1594  0.0373
23657W        W40131   0.328   7.419   2.487 -0.2412 -0.3615 -0.0065
23658W        W40132  10.967   9.423  13.782  0.1468  0.0594 -0.1529
23659W        W40133   3.776   5.079   4.050  0.0324  0.1417  0.1045
23660W        W40134  19.256   6.524   2.722  0.2411  0.0839 -0.1617
23661W        W40135   7.179   0.609  10.047  0.2800 -0.1205  0.4672
23662W        W40136   3.311  13.226  14.174  0.2909  0.2112  0.3800
23663W        W40137  16.502   9.370  11.407 -0.1573 -0.1284 -0.4476
23664W        W40138   0.623  10.407  10.716 -0.0383  0.2474 -0.0012
23665W        W40139  11.865  12.542  13.120  0.0422 -0.5552  0.2806
23666W        W40140  14.169  12.836  11.012  0.0508  0.0134 -0.0035
23667W        W40141   7.419   9.112  11.079  0.0075 -0.3101  0.0601
23668W        W40142  10.321   2.471  13.470 -0.0641 -0.1276 -0.2450
23669W        W40143   0.627   1.770   4.189  0.1091  0.1542 -0.1415
23670W        W40144  10.181  18.680   0.051 -0.1754 -0.0636  0.0798
23671W        W40145  18.409  13.806   4.749  0.2008 -0.2573  0.0979
23672W        W40146   2.162   5.811  11.575 -0.2760 -0.1876  0.2256
23673W        W40147  17.750  16.095  11.226 -0.0202  0.3601 -0.0252
23674W        W40148   6.116  19.353  11.382 -0.2057 -0.2961 -0.1387
23675W        W40149   7.684   4.085   3.917 -0.0224  0.0202  0.0088
23676W        W40150   6.270  11.770  11.591 -0.0236 -0.1981  0.2097
23677W        W40151  16.280  17.635  11.512 -0.3199  0.0152  0.0480
23678W        W40152   1.694   9.853  12.302  0.0487 -0.2863 -0.1139
23679W        W40153  19.086  14.974   4.751  0.0895  0.2116 -0.2617
23680W        W40154   4.312   7.476  10.818  0.3296  0.0049  0.2984
23681W        W40155   7.675  16.474  14.412  0.0832 -0.0627  0.0716
23682W        W40156   0.266   0.437  12.962  0.2848 -0.0166  0.1424
23683W        W40157   0.608  11.805  13.942  0.1149  0.0307  0.1492
23684W        W40158  11.060   5.916  14.237 -0.0115  0.0963  0.0985
23685W        W40159   3.066   2.136   2.197 -0.1072  0.1030  0.1465
23686W        W40160  12.987  14.313  10.773  0.2609 -0.1375 -0.2018
23687W        W40161  18.554  10.572  14.627 -0.1181 -0.1924  0.2774
23688W        W40162   7.630   4.196  12.499  0.1938 -0.0359  0.2009
23689W        W40163   4.279   8.613  12.965  0.0063  0.1089 -0.2709
23690W        W40164   5.315   1.482  10.611 -0.0438  0.0222  0.0701
23691W        W40165  13.752  13.570   1.256  0.1903 -0.1778 -0.2266
23692W        W40166   8.598  16.337   4.195 -0.0356 -0.0325 -0.0891
23693W        W40167   0.065   1.711  12.784  0.1268 -0.0771 -0.1240
23694W        W40168   3.497   7.821   2.324 -0.0817  0.1423  0.0311
23695W        W40169  19.194   3.906   3.513  0.1506  0.3483 -0.0429
23696W        W40170   7.913  15.931   2.679 -0.0810 -0.1006  0.0306
23697W        W40171  18.961  16.507  13.721  0.1707  0.3580  0.0338
23698W        W40172  15.714   7.564  11.860  0.2046  0.0166 -0.2321
23699W        W40173  16.631  15.602  14.274 -0.1317  0.1666 -0.2381
23700W        W40174   6.068  10.489   4.043  0.1443  0.1089  0.1676
23701W        W40175   0.105   5.493   0.418  0.1257 -0.0897  0.0006
23702W        W40176  10.534   9.744   4.335  0.1487  0.1070  0.2869
23703W        W40177  12.417   5.411   2.794  0.1224  0.1067  0.3006
23704W        W40178  18.071  15.530   3.325  0.1054 -0.1613 -0.0941
23705W        W40179   0.777  14.158   1.351 -0.0888 -0.1570 -0.2048
23706W        W40180  18.735  12.525  13.390  0.1402 -0.2143  0.0091
23707W        W40181   0.792  11.143   4.366 -0.1544  0.1055 -0.0096
23708W        W40182  10.371   3.301   2.424 -0.0116 -0.0269  0.0376
23709W        W40183   5.340  15.292  10.625 -0.3435  0.0195  0.2688
23710W        W40184  12.152   8.651   2.805  0.5230 -0.0799 -0.0005
23711W        W40185  15.232   8.489   4.831  0.0529 -0.0407 -0.2514
23712W        W40186   8.633  10.519   1.114 -0.3608 -0.0347  0.0356
23713W        W40187   0.208   7.919   1.618  0.0800 -0.0119 -0.3030
23714W        W40188   9.605   3.018   2.372  0.3612 -0.1522 -0.0011
23715W        W40189  15.045  15.120  14.428  0.2937 -0.2904  0.1068
23716W        W40190  17.370  15.054   2.679 -0.1599 -0.2022  0.0577
23717W        W40191  18.243   0.791  11.081 -0.2672  0.4604 -0.1548
23718W        W40192  10.085  11.538   4.271  0.0085  0.1841  0.1610
23719W        W40193   2.883  13.696   3.118  0.1886  0.2347 -0.5290
23720W        W40194   4.449  15.490   0.686 -0.0610 -0.2803 -0.1124
23721W        W40195  11.126   1.181  13.797 -0.2114  0.2072  0.2022
23722W        W40196  18.278  15.273   0.747 -0.1658  0.0087  0.1721
23723W        W40197  14.087   4.202  14.826 -0.0400 -0.2379  0.0209
23724W        W40198  18.221   5.500   0.764 -0.0273 -0.2795  0.1384
23725W        W40199   6.975  19.217  13.320 -0.1272 -0.0889 -0.0001
23726W        W40200  10.160  12.610   5.087 -0.0866 -0.2856 -0.3219
23727W        W40201  16.257   8.103   1.479 -0.0259 -0.0436 -0.1286
23728W        W40202  17.261   7.365  11.803 -0.0937 -0.2280 -0.2562
23729W        W40203  10.990   9.964   1.058  0.1420  0.0929  0.1428
23730W        W40204  13.531   5.838  12.602 -0.0587  0.0907  0.1181
23731W        W40205  14.457   7.373  13.931 -0.0016  0.1061  0.0188
23732W        W40206   7.014   2.154   1.471  0.2394  0.3915  0.1761
23733W        W40207   5.092   8.607  13.935 -0.0866  0.0631  0.0252
23734W        W40208   7.121   7.528  12.237  0.1250  0.1287 -0.0345
23735W        W40209   9.524   4.148  12.720  0.1293  0.1789 -0.2293
23736W        W40210  18.275   9.423  14.869 -0.0198 -0.0809 -0.1438
23737W        W40211   2.751   1.826   4.363 -0.0408  0.0447 -0.4207
23738W        W40212  15.587   9.140   5.406 -0.3797 -0.0979 -0.0193
23739W        W40213  15.245   2.120  10.356  0.0915 -0.3729 -0.1630
23740W        W40214  19.041   1.447  12.921  0.0098  0.1493 -0.2099
23741W        W40215  17.432   4.583   0.100  0.0090 -0.1010 -0.0575
23742W        W40216  14.915  17.259  14.397  0.0603  0.2079 -0.0889
23743W        W40217  11.299  11.735   0.441 -0.1554 -0.1940  0.2940
23744W        W40218  17.364  19.032   4.915 -0.0461 -0.2046 -0.1533
23745W        W40219   6.195   4.639  13.170  0.0062  0.1518  0.0684
23746W        W40220   8.509   6.158  14.407  0.1942 -0.0934  0.1054
23747W        W40221  18.526  16.498   3.556  0.1845  0.1220  0.0965
23748W        W40222  15.701  13.379  11.783 -0.1948  0.0988 -0.1495
23749W        W40223   6.828  15.019  11.551  0.0482 -0.0333  0.2257
23750W        W40224   8.398   8.248   1.128 -0.0568  0.3495  0.1276
23751W        W40225   4.335  12.510   4.111  0.2357  0.3511 -0.4191
23752W        W40226  10.810   8.405   4.559  0.0728  0.1458  0.0509
23753W        W40227  17.780  15.967   5.022 -0.0248 -0.0225  0.3063
23754W        W40228  18.783  17.882  14.145  0.2692  0.0325  0.3535
23755W        W40229   4.743   4.833  11.494 -0.1027 -0.0974 -0.4793
23756W        W40230   1.359  14.820   4.278  0.1297  0.0369 -0.0850
23757W        W40231  10.032   4.699   2.073 -0.0452 -0.1372  0.1377
23758W        W40232   6.342   4.792  10.132 -0.3740  0.2526 -0.0003
23759W        W40233  14.978  13.275   1.845 -0.2433 -0.2391 -0.3774
23760W        W40234   9.522  11.581  11.364  0.1177 -0.0481 -0.0646
23761W        W40235   0.687  12.554   0.312 -0.0720  0.3061 -0.0996
23762W        W40236   5.249  14.561   1.994 -0.0889 -0.0339 -0.2014
23763W        W40237   0.690  17.190  13.233  0.1401  0.1762  0.2547
23764W        W40238  13.992  14.117   0.032 -0.0890  0.2231 -0.1840
23765W        W40239  10.372   3.886   2.651  0.2887 -0.2245  0.1576
23766W        W40240   8.117  13.471   0.050  0.1065 -0.3207  0.3492
23767W        W40241  15.793   3.701  14.733 -0.0749 -0.0340  0.1063
23768W        W40242  15.764   5.880  13.628  0.1736  0.0617  0.0125
23769W        W40243  10.106   7.588   4.084 -0.2857 -0.1581  0.1263
23770W        W40244   4.564  16.527   4.859  0.0587  0.2645  0.0152
23771W        W40245   9.847   1.903  10.137 -0.2202  0.0348  0.2760
23772W        W40246  15.786  17.495   5.698  0.0731  0.0505 -0.0784
23773W        W40247   9.802  16.157   2.848 -0.2210  0.0070 -0.1811
23774W        W40248  17.890  13.132   4.970  0.2320 -0.1907 -0.3379
23775W        W40249   1.285   6.563  11.264 -0.0170 -0.0397  0.0780
23776W        W40250  10.961  11.292   4.809 -0.0233  0.0427 -0.0156
23777W        W40251  16.340  11.415  12.930  0.1444  0.1700  0.2226
23778W        W40252  17.596  19.360   4.574 -0.0801  0.1669  0.2642
23779W        W40253  13.953  11.323  10.503  0.0502 -0.0660  0.0281
23780W        W40254  18.965  13.753   2.567 -0.0870  0.1274 -0.0633
23781W        W40255   9.633  14.721  11.519  0.4202  0.2249 -0.0015
23782W        W40256   2.156  18.673  14.440 -0.0104  0.0123 -0.0291
23783W        W40257  14.195   2.848   0.081 -0.1875  0.4072  0.1149
23784W        W40258   2.069  11.811  13.866  0.1468 -0.0488  0.1104
23785W        W40259  14.086  17.044   3.460 -0.1750 -0.1821 -0.2077
23786W        W40260   6.585  10.437   2.155  0.0701  0.4123  0.1574
23787W        W40261  12.183   5.199  11.366  0.2797  0.1043  0.2652
23788W        W40262  14.325  15.810  14.398 -0.1678  0.0800 -0.0708
23789W        W40263  17.211  14.413   3.815 -0.1014 -0.1680  0.2316
23790W        W40264  10.836  18.151  14.311  0.0930 -0.1546  0.4072
23791W        W40265   0.231   0.797  10.619 -0.0458  0.1906 -0.0357
23792W        W40266   1.957   8.209  13.360  0.0954 -0.2098 -0.2903
23793W        W40267   0.734   5.378   0.085  0.2083 -0.1276  0.1330
23794W        W40268  10.175  10.939  13.318 -0.0131 -0.2266 -0.3030
23795W        W40269  11.695   1.060   9.609  0.4540  0.0375 -0.0814
23796W        W40270   5.520   6.886  12.134 -0.3756 -0.2043  0.2653
23797W        W40271  13.453   0.405   5.859  0.1166 -0.1257 -0.1302
23798W        W40272   0.825  14.216   4.919 -0.2017 -0.2636  0.1041
23799W        W40273   1.815  15.367   6.051 -0.2410 -0.1832 -0.1028
23800W        W40274   9.262  10.163  13.528  0.0857  0.1763  0.1326
23801W        W40275  14.436  11.297  10.498  0.0687  0.2002 -0.2778
23802W        W40276  10.939   6.706   3.330  0.2763 -0.1041  0.2362
23803W        W40277   0.305   2.089   1.762  0.2696 -0.2217 -0.3222
23804W        W40278  17.484   5.234   1.448  0.0213 -0.3061 -0.2284
23805W        W40279  11.035  18.782  11.310 -0.0309  0.3069 -0.0977
23806W        W40280  11.961   2.768   3.430  0.1330  0.5397 -0.1369
23807W        W40281   4.764  17.302   0.775  0.0515  0.0694 -0.1896
23808W        W40282  10.132  11.904  13.148  0.1926 -0.1157 -0.1900
23809W        W40283   7.104   1.186  14.024 -0.0410 -0.0327  0.0486
23810W        W40284   8.686   6.323  10.950 -0.0084  0.2132 -0.0709
23811W        W40285  17.267  12.535  11.771 -0.2708 -0.2239  0.1734
23812W        W40286  18.005   6.034  12.368  0.1725  0.2841 -0.1747
23813W        W40287   9.794   8.056  12.801 -0.0969 -0.1575 -0.0530
23814W        W40288  16.208  13.422   2.371 -0.1081  0.1332  0.0326
23815W        W40289   5.423   2.008   3.332  0.1121 -0.1643 -0.1931
23816W        W40290   9.859  15.131   5.077  0.2013  0.0889  0.3545
23817W        W40291  16.621  14.709   0.398  0.0479  0.1611  0.1072
23818W        W40292   0.272  18.067  13.108 -0.3268 -0.1137  0.2426
23819W        W40293   3.463   0.286  13.149  0.0680 -0.0091  0.1303
23820W        W40294  18.561   8.786  11.746  0.0893 -0.1561 -0.3702
23821W        W40295  17.237   5.008  11.283 -0.1544  0.0799 -0.0919
23822W        W40296  17.852   5.053   4.114 -0.2793 -0.2575  0.0364
23823W        W40297   3.049  16.824   4.975 -0.0116  0.3544 -0.0121
23824W        W40298  16.365   9.625  13.283 -0.1144 -0.1352  0.0029
23825W        W40299  18.779   9.972   4.162 -0.1871 -0.2969 -0.0176
23826W        W40300   3.019  15.674   4.204  0.0407  0.0227  0.2074
23827W        W40301  17.084   3.209   5.977  0.3097 -0.0694  0.0736
23828W        W40302  13.483   5.732  11.851 -0.2598  0.1658 -0.3035
23829W        W40303  11.161  18.874  10.394 -0.2698 -0.2148  0.3950
23830W        W40304  17.905  19.173  14.459  0.0162 -0.3125 -0.1005
23831W        W40305   7.796  11.480  12.859 -0.0596 -0.0082 -0.0174
23832W        W40306  15.432   7.261   3.208  0.0654  0.0206  0.0577
23833W        W40307  18.105   3.824  12.749  0.2353 -0.0983 -0.0057
23834W        W40308  18.902  14.874   0.359  0.0682  0.0245 -0.1449
23835W        W40309  10.768  16.781  11.908 -0.0141 -0.2633 -0.1933
23836W        W40310  10.771  15.281   2.703 -0.3136  0.2546  0.0206
23837W        W40311  18.976   9.337   4.467 -0.0627 -0.0508 -0.0446
23838W        W40312   6.740   5.108   1.251 -0.1413  0.0686 -0.1350
23839W        W40313  14.779   9.425   3.204  0.2381 -0.1457  0.0586
23840W        W40314  18.849   1.801   2.786  0.2363 -0.1706 -0.1804
23841W        W40315  17.651  12.389  11.413  0.0193 -0.2464 -0.2326
23842W        W40316  10.738   6.269  14.424 -0.1823  0.0421 -0.3656
23843W        W40317  10.014  14.117   2.667  0.1103  0.1330 -0.2092
23844W        W40318   7.026  15.842   1.174  0.3616 -0.1436  0.1936
23845W        W40319   7.239   7.080  10.476  0.0142 -0.1103 -0.2388
23846W        W40320  14.371   3.413  10.513 -0.1242  0.0028  0.3178
23847W        W40321   6.679  14.252  11.344 -0.0458 -0.0508  0.0479
23848W        W40322  13.802  19.203   0.379  0.4507 -0.0486  0.0840
23849W        W40323  10.554   5.239   2.598  0.1194  0.3216 -0.0331
23850W        W40324  16.765  13.071  11.192 -0.0611 -0.1643 -0.3414
23851W        W40325  11.941   5.695   2.826 -0.2850 -0.0102 -0.1709
23852W        W40326   7.371   1.578  13.649 -0.0265  0.1391 -0.3419
23853W        W40327   1.206   6.592  14.539  0.3239  0.0180 -0.0123
23854W        W40328   5.097   0.585  12.897 -0.1665 -0.1450  0.2472
23855W        W40329   2.194   4.759   0.601  0.1399 -0.1860 -0.0180
23856W        W40330  15.403   0.772  10.483  0.1516 -0.4728  0.3810
23857W        W40331  14.295  14.525  10.477  0.2423 -0.3767 -0.1582
23858W        W40332  13.122  12.312  14.149 -0.2411 -0.0556  0.1423
23859W        W40333  12.960   4.550   1.600  0.3291 -0.2100 -0.3420
23860W        W40334   5.861  15.278  13.955 -0.2880 -0.1813 -0.0834
23861W        W40335   9.358   1.473  12.857  0.1746  0.1276  0.1496
23862W        W40336  11.026  17.547   2.748  0.1343  0.0602  0.0853
23863W        W40337  14.690   3.076  14.829  0.2341 -0.1109  0.1526
23864W        W40338  13.363  17.275  13.017 -0.3947  0.0346 -0.0707
23865W        W40339  15.391  10.985   4.358  0.3776 -0.2572 -0.0345
23866W        W40340  10.497   7.982   9.419 -0.1496 -0.2164  0.0473
23867W        W40341  13.949  15.054   1.290  0.0567  0.2302  0.0639
23868W        W40342  17.326  15.325   4.018  0.3122  0.0092  0.1310
23869W        W40343   7.538  11.850  13.851  0.1593  0.2814  0.1218
23870W        W40344  18.257   6.521   3.344 -0.0563 -0.1140  0.2390
23871W        W40345  13.591  17.826   0.149 -0.1280 -0.1499 -0.0544
23872W        W40346   0.560  12.090   1.224 -0.0712 -0.0657  0.0475
23873W        W40347   8.381   5.492   3.520  0.2608  0.1522 -0.2221
23874W        W40348   6.006   7.328   0.846  0.1554  0.0718 -0.3659
23875W        W40349   3.452  16.776  10.598 -0.2692 -0.1178  0.2226
23876W        W40350   0.221  18.507   2.650  0.0496  0.1728  0.2855
23877W        W40351  10.395  15.443   1.755 -0.1252  0.2151  0.1731
23878W        W40352  14.974   9.905   2.058  0.2657 -0.0685 -0.0966
23879W        W40353  17.472   8.810   5.572  0.2680 -0.0892 -0.0173
23880W        W40354  17.691  14.119   0.880  0.2529 -0.1043 -0.4319
23881W        W40355   7.812   8.325  14.078  0.0704  0.0199  0.3087
23882W        W40356   1.506   7.944   0.556  0.1146 -0.0066  0.0329
23883W        W40357  17.254   2.402  11.391 -0.1742 -0.0419  0.1530
23884W        W40358  17.116  17.148  13.688 -0.3354 -0.0644  0.1783
23885W        W40359   7.850  10.557  12.308  0.0269 -0.2062 -0.0353
23886W        W40360  11.679  11.905   5.019  0.0428 -0.0832  0.0973
23887W        W40361  11.589   4.138  12.078 -0.2212 -0.0232 -0.4374
23888W        W40362   0.984  13.676  14.658 -0.0078  0.4879  0.0927
23889W        W40363   1.223   2.936   1.248 -0.0109  0.3103 -0.2610
23890W        W40364  14.401  16.511  13.048 -0.0303  0.1571 -0.1170
23891W        W40365   6.166  18.478   2.266 -0.0999 -0.2020  0.0996
23892W        W40366  16.958   4.616   0.870 -0.2836 -0.2965 -0.1925
23893W        W40367  10.185   8.540  12.626  0.0678  0.4170  0.2649
23894W        W40368  19.097  12.660  11.320 -0.2634  0.0261 -0.1805
23895W        W40369   4.058   2.088   3.085 -0.0064  0.1752 -0.1266
23896W        W40370  13.649   9.005   9.777  0.1156  0.1113 -0.2169
23897W        W40371  16.068   3.112  13.946  0.1790 -0.1134  0.3520
23898W        W40372   8.681   1.198  12.209  0.0732  0.0465 -0.4904
23899W        W40373  10.952  16.171  12.027 -0.1665  0.0667 -0.1881
23900W        W40374   4.678  18.785  10.811  0.1461  0.1698 -0.1070
23901W        W40375   5.418   8.887   1.330  0.2094 -0.2768 -0.1056
23902W        W40376  13.353  16.519   3.466 -0.0524  0.2395 -0.1049
23903W        W40377   2.203   9.083  11.140  0.2861 -0.3155 -0.0106
23904W        W40378   5.576  12.369   3.120  0.0215  0.3678 -0.0337
23905W        W40379   8.069  10.939  13.473  0.2328  0.0943  0.2110
23906W        W40380  14.194  10.971  10.797  0.2701  0.1352 -0.0389
23907W        W40381   8.444   9.774   1.800 -0.0524 -0.2397  0.0159
23908W        W40382  18.878   7.557  13.029  0.1108  0.0351  0.0466
23909W        W40383  10.081   5.179  13.401 -0.2115 -0.1184  0.1022
23910W        W40384   4.526  17.027   3.414 -0.0859 -0.1738 -0.2675
23911W        W40385  12.887  19.352   3.039 -0.5682  0.0209  0.1573
23912W        W40386  15.432   0.704   4.611 -0.2052  0.2418 -0.3059
23913W        W40387  12.928   1.879   1.685 -0.1963  0.1556 -0.2017
23914W        W40388  15.184   1.057  14.337 -0.0592  0.2563  0.2417
23915W        W40389   6.961  16.514   0.852  0.1607 -0.3061 -0.1494
23916W        W40390   8.030   2.584   4.302 -0.0043 -0.0795  0.1395
23917W        W40391   2.685   0.720  11.523 -0.0719  0.1703 -0.2022
23918W        W40392  11.115   9.440   0.178 -0.4428  0.1855 -0.2858
23919W        W40393  17.915   1.880   1.728 -0.1758  0.1894  0.2888
23920W        W40394   0.746  16.839   2.958  0.2270  0.1182 -0.0607
23921W        W40395   3.938   2.556  10.015 -0.1745  0.3143 -0.2433
23922W        W40396  13.960   6.030   1.690 -0.2558 -0.1009 -0.1323
23923W        W40397  12.452  11.917  10.407  0.3434 -0.2500 -0.0881
23924W        W40398  18.874   8.112  14.770 -0.1310 -0.0776  0.2679
23925W        W40399  19.010  10.144   0.382  0.1540 -0.2352  0.0920
23926W        W40400   4.368  13.125   3.102  0.1138 -0.0476  0.0882
23927W        W40401  16.373   2.614   4.263 -0.0610 -0.0795  0.0486
23928W        W40402  12.571   7.457  13.843  0.2566  0.0751 -0.1357
23929W        W40403   8.233   5.668   8.807  0.0260 -0.1980 -0.0839
23930W        W40404   0.240   5.211  12.783  0.2023  0.4136 -0.1666
23931W        W40405   5.514  15.932  14.781  0.1569 -0.2564  0.0630
23932W        W40406   5.535   6.086   0.313 -0.0666 -0.1415 -0.0588
23933W        W40407  12.871   7.128   1.307  0.1553  0.0716  0.1223
23934W        W40408   0.555   1.965  13.779 -0.2485 -0.0196  0.5135
23935W        W40409   0.619   4.493  14.583  0.0785 -0.2185 -0.3069
23936W        W40410   7.974  14.780   2.828  0.2991 -0.1984 -0.1266
23937W        W40411   9.810   0.759  14.439  0.0079  0.3399 -0.1398
23938W        W40412  16.596   4.718  13.462 -0.0634  0.0043  0.0203
23939W        W40413  12.628   8.399   0.352  0.0573 -0.0667 -0.2406
23940W        W40414  16.622   2.033  11.334  0.0778  0.1104  0.0063
23941W        W40415   9.467  10.456   3.199 -0.1252 -0.0942  0.4546
23942W        W40416   0.907   4.108  12.753  0.1772  0.0095  0.0811
23943W        W40417   2.873   0.340  11.212  0.1811  0.2098  0.2016
23944W        W40418  11.441  16.629   0.183 -0.2153 -0.0084 -0.0337
23945W        W40419   5.914  13.272   4.787 -0.1590 -0.0407 -0.2379
23946W        W40420   0.770  10.378   1.713  0.0228 -0.1773 -0.2661
23947W        W40421   2.224  11.592   1.915 -0.2988  0.3345  0.1259
23948W        W40422   7.309   9.098   3.062  0.0291 -0.0297  0.1181
23949W        W40423   7.762   0.466  13.093  0.1295  0.1289  0.2378
23950W        W40424   5.798  10.192  14.060 -0.0377 -0.1789 -0.0648
23951W        W40425  10.980   7.111  13.081 -0.1554 -0.2910  0.1364
23952W        W40426  11.619   1.541  10.490  0.1205  0.3984  0.3828
23953W        W40427   9.953   0.969  13.566  0.2804 -0.0823 -0.1633
23954W        W40428  12.073   7.467   1.874 -0.0784  0.0225  0.0123
23955W        W40429   1.722   0.044   1.992  0.0470 -0.2277 -0.0312
23956W        W40430  10.294   1.676   0.964 -0.1017  0.1902  0.0859
23957W        W40431  14.569  19.320  12.619  0.0704  0.2050  0.1660
23958W        W40432  18.791   2.892  14.271 -0.1157 -0.1435  0.0076
23959W        W40433  19.292   3.340  12.173  0.2184 -0.0491  0.2100
23960W        W40434   9.426  14.537   5.670  0.1443  0.1305 -0.1148
23961W        W40435  13.368  14.106  13.530  0.0909  0.1174 -0.2333
23962W        W40436   4.466  12.467   4.645 -0.0558  0.2026 -0.1464
23963W        W40437  11.339  15.702  10.504 -0.0997  0.2462 -0.0264
23964W        W40438  15.545  16.908   2.585 -0.1911  0.1357 -0.2818
23965W        W40439  14.970  13.427   0.775  0.0834 -0.3611 -0.2554
23966W        W40440  17.824  17.344  13.357 -0.1360 -0.1607 -0.1263
23967W        W40441  13.225   5.706   3.829 -0.2419 -0.1857  0.1467
23968W        W40442   0.235  18.929   9.446 -0.0990 -0.0631 -0.0319
23969W        W40443   4.593   4.836   2.317  0.1638  0.1892  0.0568
23970W        W40444   8.492   9.717  13.520  0.0136 -0.0345  0.0488
23971W        W40445   9.686   6.775   3.914 -0.0355 -0.1406  0.0698
23972W        W40446  15.448  14.442  14.043 -0.2127 -0.1225 -0.1773
23973W        W40447  18.474   4.117  10.099 -0.0764 -0.0841 -0.0952
23974W        W40448  15.629  19.157  11.804  0.0762 -0.1897  0.5702
23975W        W40449  11.326   7.884  11.982 -0.2895  0.1955  0.0218
23976W        W40450   4.727  18.176   4.082 -0.0200  0.0741  0.1555
23977W        W40451  10.365   2.496  11.367  0.1792 -0.0722 -0.2141
23978W        W40452   1.562   8.770  13.016  0.2366 -0.0201  0.1470
23979W        W40453   7.935  10.137  14.276 -0.0866  0.0101  0.1827
23980W        W40454  13.591   2.130  11.376 -0.0555 -0.1191 -0.0872
23981W        W40455  12.003  14.161   3.304 -0.2197 -0.0930 -0.2773
23982W        W40456   8.775  18.605  10.700  0.0046  0.0243  0.1271
23983W        W40457  15.091  11.398  10.772  0.3047 -0.1737  0.0849
23984W        W40458   0.627   1.400   0.549 -0.0684  0.0335  0.0947
23985W        W40459  10.755  19.195   5.006  0.1988 -0.1898  0.2263
23986W        W40460  13.608  17.171   4.032 -0.0422  0.2181 -0.2357
23987W        W40461  16.621  13.737  13.767  0.0669 -0.0135  0.2167
23988W        W40462   2.243   2.450   4.610 -0.0071  0.1675 -0.1442
23989W        W40463  17.585   1.033  12.368  0.2615 -0.0615  0.1041
23990W        W40464   1.108  11.943   1.710  0.0592 -0.1099  0.0214
23991W        W40465  17.541  17.561  14.866  0.2141 -0.2795  0.1610
23992W        W40466   0.609  13.081  11.113  0.0855  0.1693 -0.0324
23993W        W40467   4.165  17.485  10.793  0.2869  0.0570 -0.0858
23994W        W40468   0.642   9.101  14.460 -0.4509 -0.0861 -0.2891
23995W        W40469   3.328  13.441   2.466  0.1458  0.0731 -0.0268
23996W        W40470   0.056  15.859  10.376  0.1997  0.3371  0.0599
23997W        W40471   5.724  12.662   4.578  0.1836  0.2736 -0.0486
23998W        W40472   3.503  10.886  13.882  0.1448 -0.2110  0.1854
23999W        W40473  11.727   3.664   3.627 -0.0448  0.1213 -0.0573
24000W        W40474  18.839   3.808  11.582  0.0925  0.0691  0.2057
24001W        W40475  13.062  15.647  13.034 -0.0963  0.2344  0.1857
24002W        W40476  17.822  16.783   1.726  0.3515  0.0436 -0.0901
24003W        W40477   7.618  16.364  13.906 -0.2922 -0.3858 -0.1623
24004W        W40478  13.913  15.748   2.005  0.1835 -0.3048 -0.1821
24005W        W40479  15.859  16.656  13.671 -0.2742  0.0692 -0.0775
24006W        W40480  14.965   6.512  10.898 -0.2993 -0.1739 -0.2419
24007W        W40481  12.193   8.115  14.473 -0.1591  0.3877  0.1356
24008W        W40482   5.235  16.726  13.150 -0.2928  0.0013 -0.0764
24009W        W40483   0.317  14.983   1.008 -0.0329 -0.6659  0.0883
24010W        W40484   5.985   4.822  10.777  0.0341 -0.1714  0.0847
24011W        W40485   2.532  15.686   1.125 -0.0611 -0.1701  0.0127
24012W        W40486  18.366  12.405   0.219 -0.0206 -0.1436  0.1028
24013W        W40487   2.626   1.964  11.916  0.1776  0.1949  0.0971
24014W        W40488  10.630  14.722   4.758  0.1976  0.1241 -0.0324
24015W        W40489  12.959  16.125  12.738  0.2670  0.0657  0.1372
24016W        W40490  13.295   8.869  13.049  0.2235 -0.1857 -0.2391
24017W        W40491  13.524   4.995   2.472  0.0670  0.2611 -0.1025
24018W        W40492  18.701  19.338   3.589  0.2877 -0.2489 -0.2332
24019W        W40493  15.691   3.909   1.535  0.0070 -0.0009  0.2537
24020W        W40494   5.458   7.293  11.367  0.0552  0.2884 -0.0649
24021W        W40495   2.673  14.426  12.908 -0.4781  0.4589 -0.0090
24022W        W40496  10.226  14.592   4.468  0.0042  0.0472  0.1894
24023W        W40497  13.021  15.423   1.031  0.2800  0.3380 -0.2032
24024W        W40498   6.470  15.309  11.988  0.4007  0.0943 -0.2068
24025W        W40499   2.458  10.942  12.628  0.0515  0.0716  0.0155
24026W        W40500   3.271  13.006   2.231 -0.1945  0.3023 -0.0436
24027W        W40501  10.084   7.344   1.641  0.1287 -0.2783  0.0363
24028W        W40502   6.312  17.268   4.196 -0.0394 -0.1687 -0.1403
24029W        W40503   5.259   0.947  14.726  0.1886 -0.2039 -0.0811
24030W        W40504  15.307   9.075  12.223  0.1803  0.3022  0.0457
24031W        W40505  12.796  11.544   2.545 -0.2424  0.1524  0.0009
24032W        W40506   0.480   0.388  12.507  0.1859  0.3459  0.0495
24033W        W40507  13.276   9.228   0.264  0.0549  0.1645  0.4134
24034W        W40508   9.196  18.604  13.146 -0.1916 -0.0906 -0.4989
24035W        W40509  16.280   6.769  11.583  0.0574  0.2981  0.1079
24036W        W40510  19.150   6.584   4.992  0.1992  0.3259 -0.2135
24037W        W40511  17.861   8.863  13.414 -0.1275  0.0970  0.1018
24038W        W40512   5.481   6.013   2.679  0.3064 -0.0674  0.3103
24039W        W40513  11.888   7.871   2.723  0.0107  0.2188  0.1582
24040W        W40514   8.032   8.584   0.357 -0.3537  0.2869  0.3199
24041W        W40515   7.380   2.190   2.636 -0.1214  0.1472 -0.1717
24042W        W40516  17.679   2.001   1.219  0.1743  0.0908 -0.1605
24043W        W40517  15.199   4.364   1.515 -0.2418 -0.0629  0.0773
24044W        W40518   3.664   4.008  11.645  0.1588  0.1665  0.1258
24045W        W40519  17.557  10.170   5.659  0.2603 -0.0556 -0.0030
24046W        W40520  13.821  15.409   1.654 -0.0589  0.1667  0.1837
24047W        W40521  12.264   1.649  14.142 -0.1818 -0.0634  0.3313
24048W        W40522  18.401  10.541  13.326 -0.2153  0.0475  0.0273
24049W        W40523   5.881   1.523  10.010  0.1255 -0.3352  0.1547
24050W        W40524  15.012  12.071   3.613  0.2077 -0.3976 -0.1499
24051W        W40525  10.149   3.370   3.961 -0.0795  0.0754  0.3797
24052W        W40526   7.407   6.802  10.024 -0.2137 -0.1753  0.2457
24053W        W40527   7.899   6.771  14.328 -0.2347  0.0340 -0.2122
24054W        W40528   3.385   9.342   2.046 -0.3726  0.1488 -0.1205
24055W        W40529  12.451   7.086  12.615 -0.0826 -0.0591 -0.2369
24056W        W40530   7.060  13.218   3.000  0.1972  0.0785 -0.1517
24057W        W40531  12.180  13.541   0.373 -0.3047 -0.1177 -0.1560
24058W        W40532   7.308  10.468  12.325 -0.0836  0.0389 -0.3837
24059W        W40533   7.088   3.588   0.757 -0.0037 -0.0188  0.1592
24060W        W40534   0.232   5.887   0.723 -0.1636 -0.1808  0.0180
24061W        W40535   6.550   9.818  11.998 -0.2566 -0.3240 -0.0663
24062W        W40536   3.235   1.560  14.842 -0.0632  0.0088 -0.0671
24063W        W40537  13.694  12.051  10.520  0.1404 -0.3866  0.1642
24064W        W40538   6.686   6.875   3.506 -0.0656 -0.2161  0.1389
24065W        W40539   6.343  17.238   3.706 -0.0308  0.0906 -0.0299
24066W        W40540   8.441  16.376  10.786 -0.2051  0.0981 -0.3143
24067W        W40541  14.201  16.617   5.316  0.2506  0.3475 -0.0154
24068W        W40542   6.184  10.090   4.307 -0.1358 -0.0157 -0.2206
24069W        W40543   8.681   8.369   3.384 -0.0795  0.0249  0.0477
24070W        W40544  13.433  10.065  12.746 -0.0033  0.0154 -0.0934
24071W        W40545  13.534   4.149   3.243  0.2820 -0.0056 -0.0734
24072W        W40546   8.715   2.262   0.769  0.1351 -0.0056 -0.3568
24073W        W40547   6.907  11.887   0.474  0.3530 -0.0350 -0.1556
24074W        W40548  13.467   4.742   3.668 -0.0454 -0.0344 -0.2529
24075W        W40549  10.268  15.794   3.418  0.0709  0.1136  0.2311
24076W        W40550   2.186  14.292   3.112  0.3469  0.1953  0.0609
24077W        W40551   6.185   5.365   0.549  0.0173  0.0450  0.4044
24078W        W40552  14.518  14.802  14.320 -0.1464 -0.0485 -0.1165
24079W        W40553  13.336  13.120  11.821 -0.1526 -0.2298  0.0572
24080W        W40554  11.735  13.460  13.958 -0.0875 -0.1180  0.1951
24081W        W40555   4.687  10.633   4.127 -0.3634 -0.0774 -0.0166
24082W        W40556  12.497  19.374  10.447 -0.2028 -0.3342 -0.1402
24083W        W40557  15.768   1.087  12.682  0.0029 -0.1218  0.0208
24084W        W40558   1.239  15.021   3.482  0.0597  0.0887 -0.0389
24085W        W40559   5.992  14.136   3.114  0.1210  0.2052 -0.2331
24086W        W40560  16.791  18.475   0.131 -0.1228 -0.0740  0.2258
24087W        W40561   7.508  17.675  10.792 -0.2600  0.1556 -0.0059
24088W        W40562  11.792   9.268   3.391  0.0225  0.1476 -0.1428
24089W        W40563  17.324   0.408   1.276  0.3032  0.4409  0.0791
24090W        W40564   8.093   7.042  14.748  0.3483  0.2487 -0.2943
24091W        W40565   9.459  18.292   2.240 -0.1350 -0.0783  0.0438
24092W        W40566   0.483   4.320   4.300  0.0614  0.0253 -0.1411
24093W        W40567  18.317   0.455   4.155  0.0368 -0.0601 -0.1696
24094W        W40568   6.948   6.499   3.794 -0.1513 -0.3176  0.1460
24095W        W40569   8.910   5.795  11.772  0.1772  0.1207  0.1908
24096W        W40570   9.801  15.712  12.685 -0.1237  0.1160  0.0315
24097W        W40571  15.469   7.888  10.810 -0.0061  0.0426  0.1145
24098W        W40572   5.064  18.501   1.166 -0.1969 -0.0520  0.2005
24099W        W40573   5.973  13.119  13.713 -0.1721  0.2793  0.1222
24100W        W40574   6.809  18.653  10.068  0.1331 -0.4212 -0.0968
24101W        W40575   5.719   3.985  10.586  0.0373  0.2431 -0.1286
24102W        W40576   9.313   8.726  12.393  0.1350 -0.2217  0.0999
24103W        W40577   2.676   5.953  11.402  0.2726 -0.0886 -0.2783
24104W        W40578  19.294   5.270  14.112  0.0892  0.1883  0.1168
24105W        W40579   4.826   4.795  10.581 -0.1971  0.2417  0.0691
24106W        W40580  16.720   8.802   1.107  0.1717  0.1374 -0.1161
24107W        W40581  17.464  18.053  13.740 -0.3610 -0.2116  0.1285
24108W        W40582   9.031   6.938  14.535  0.2927  0.1348 -0.0442
24109W        W40583  15.773  13.453  10.859 -0.2038 -0.0998 -0.0478
24110W        W40584   0.505   7.837  10.317  0.2614 -0.0013  0.2494
24111W        W40585   4.896   5.885  14.682 -0.0130  0.1495 -0.1032
24112W        W40586  14.217  12.339  11.158  0.1804 -0.0972  0.0926
24113W        W40587   9.076  19.076  13.371  0.3628 -0.3871 -0.2494
24114W        W40588  17.268   7.888  13.553 -0.2800 -0.2835 -0.2342
24115W        W40589   4.296   7.023  10.560  0.2458  0.1289 -0.3567
24116W        W40590  17.744  18.701  14.403  0.1693  0.0672 -0.1433
24117W        W40591   9.901  14.261   3.135  0.0030  0.4610  0.4953
24118W        W40592  17.840   6.840  12.415  0.1153 -0.1193 -0.4142
24119W        W40593  11.459   1.603   2.273  0.1053  0.0059  0.1963
24120W        W40594   9.899  14.271  10.595  0.1563  0.2476  0.1813
24121W        W40595   5.728  16.489   2.765  0.3106 -0.1884 -0.2907
24122W        W40596   7.455   5.012  14.421 -0.0437 -0.1027  0.0917
24123W        W40597   0.159   4.558   2.389  0.2542 -0.0463  0.1641
24124W        W40598  13.666   8.322  12.210  0.1662 -0.3482  0.2876
24125W        W40599   3.411   2.792   3.672  0.1102  0.1097  0.0553
24126W        W40600  10.069  10.197   3.051  0.2472  0.0735 -0.0739
24127W        W40601  16.738  17.038  14.607 -0.0532  0.0649  0.1940
24128W        W40602   7.467   7.442   1.598 -0.0044  0.2828  0.0026
24129W        W40603   0.987  15.272  11.739  0.4287 -0.0258 -0.2182
24130W        W40604  16.509  11.563  13.695 -0.1219 -0.1109 -0.0798
24131W        W40605  17.477   5.276   4.756 -0.1230  0.0275 -0.0213
24132W        W40606  11.504  10.388   2.298 -0.0008  0.1747 -0.3465
24133W        W40607  13.406  14.874   0.397  0.2682  0.0528 -0.0547
24134W        W40608  10.911   4.423  10.964 -0.1551  0.1456 -0.2773
24135W        W40609   7.180  19.247  12.860 -0.0521  0.3915 -0.3489
24136W        W40610  10.548   0.403  10.528 -0.5334  0.1381 -0.1855
24137W        W40611  17.480  16.366   3.779  0.1032  0.1145 -0.1616
24138W        W40612   0.384   9.354  14.826 -0.1468 -0.1259  0.2564
24139W        W40613  12.263   0.132   0.159 -0.5348  0.2588  0.2466
24140W        W40614   1.348   7.476  10.932 -0.0934 -0.2477  0.0611
24141W        W40615  18.969  15.811   0.340  0.3020 -0.1341  0.0120
24142W        W40616  11.344  14.919  14.811 -0.0634  0.1974  0.2444
24143W        W40617   7.149  14.680   4.578 -0.2629 -0.2750 -0.1687
24144W        W40618  11.730  16.115   3.649 -0.1339 -0.0510  0.0845
24145W        W40619  15.041   2.708   3.013  0.0158  0.2153  0.0376
24146W        W40620   7.037  11.920   0.002  0.2414 -0.0999 -0.1177
24147W        W40621  13.326  13.057  14.591  0.0504 -0.2920 -0.1946
24148W        W40622   6.709   3.081   4.417 -0.0898 -0.0102  0.1110
24149W        W40623  18.952  15.274   2.218 -0.1093 -0.0832  0.1380
24150W        W40624  13.726  16.985   1.029 -0.0201 -0.1254  0.5809
24151W        W40625   1.116   1.138   5.041  0.0576 -0.0253  0.3393
24152W        W40626   0.221  15.269   2.001  0.2916  0.2955  0.0397
24153W        W40627   4.683   6.074   1.583 -0.2141  0.0373  0.4417
24154W        W40628   5.306  11.200   0.561  0.2401  0.1245 -0.3953
24155W        W40629   7.929   2.679  10.233  0.1125  0.3483 -0.1028
24156W        W40630   7.745   1.008  10.804 -0.0465  0.3412 -0.0444
24157W        W40631  13.297  11.642  11.655  0.1989  0.0638  0.0797
24158W        W40632  11.799   1.255   3.093  0.0535 -0.1209 -0.0041
24159W        W40633  17.014   8.133  14.183  0.0174 -0.0748 -0.1096
24160W        W40634   3.873  17.591   1.441  0.4021 -0.2030  0.2702
24161W        W40635   2.079   0.057   5.463  0.3370 -0.2960  0.2826
24162W        W40636   2.637   2.606  11.372  0.2309 -0.0116 -0.4163
24163W        W40637   6.818   7.209  10.175  0.2298  0.1510  0.0193
24164W        W40638   1.897  10.547   0.011  0.1560 -0.2463  0.1599
24165W        W40639  12.184   8.298   3.542 -0.4276 -0.1423 -0.3419
24166W        W40640  17.370   8.303   4.788 -0.2830  0.1774 -0.0166
24167W        W40641   7.000   8.767  12.956 -0.1940  0.0862 -0.0114
24168W        W40642   6.527   9.211   3.511 -0.2485 -0.2006  0.0988
24169W        W40643   8.694  16.005   2.040  0.0195 -0.0251 -0.0657
24170W        W40644   2.991  14.016   1.704 -0.2627  0.0779  0.0694
24171W        W40645   3.332   2.137  10.456 -0.1503  0.1294  0.2650
24172W        W40646  12.125   3.368  12.291  0.0146  0.1619 -0.1476
24173W        W40647  14.745  12.381  11.326 -0.0142  0.2180 -0.1720
24174W        W40648  14.079  19.281  12.771 -0.1346 -0.0522  0.0794
24175W        W40649  16.165   3.457   1.134  0.0095 -0.3000  0.1597
24176W        W40650   8.947  12.333   3.089 -0.0288 -0.1381  0.1032
24177W        W40651   5.394  13.515  14.887 -0.0298  0.0015 -0.0539
24178W        W40652   4.908  10.834   4.674  0.1863 -0.1104  0.1264
24179W        W40653   1.540   2.466  10.607  0.0880 -0.0319  0.0992
24180W        W40654  16.830   7.519  11.595  0.3155 -0.1724  0.3482
24181W        W40655   5.677   7.746  12.598 -0.1709  0.1194 -0.2714
24182W        W40656  11.425  13.543  13.607 -0.1612  0.1478  0.3154
24183W        W40657  11.976   6.471   0.650  0.0200  0.5589 -0.0372
24184W        W40658   1.793  16.562   2.339 -0.4644 -0.1291  0.2039
24185W        W40659   5.626  10.705   0.594 -0.0561 -0.3073 -0.1781
24186W        W40660  10.802  11.024   0.817  0.1862 -0.2479 -0.0282
24187W        W40661   9.827   9.576  13.411 -0.0862 -0.2705  0.1695
24188W        W40662  18.007   1.139  14.181  0.0124 -0.2640  0.0013
24189W        W40663  17.923  14.726  11.648 -0.4365 -0.1952  0.0495
24190W        W40664   7.327   3.433  13.341 -0.0477  0.2344 -0.1342
24191W        W40665   9.801   3.478   3.577 -0.4735  0.0119 -0.0482
24192W        W40666  12.390  13.990  14.441  0.1386  0.1366 -0.0595
24193W        W40667   5.391   3.024   2.947  0.0901 -0.0583  0.1232
24194W        W40668   5.615  11.945   0.750  0.0360 -0.0666 -0.2908
24195W        W40669  18.279  18.139  12.283 -0.1698 -0.3103 -0.1500
24196W        W40670   2.317  11.528  14.616 -0.3983  0.3030 -0.0341
24197W        W40671   4.621  17.838   0.692 -0.2196  0.0018 -0.1416
24198W        W40672   4.698  14.483  13.352  0.0994 -0.0517 -0.0265
24199W        W40673   1.426  11.911   5.356 -0.1363  0.1985  0.1627
24200W        W40674   0.261   8.211  11.019 -0.0346 -0.1634  0.3292
24201W        W40675  11.830  18.558   3.024 -0.0888 -0.1627  0.3064
24202W        W40676   0.531  16.947   4.444  0.2623 -0.2527  0.1124
24203W        W40677  16.397   1.306  12.741 -0.2222  0.0066  0.0416
24204W        W40678  14.767   0.432  11.037 -0.1209 -0.1273 -0.2741
24205W        W40679  16.264   7.214   2.873  0.0599 -0.2056 -0.0439
24206W        W40680   1.326   5.396   5.076  0.2230  0.2264  0.0058
24207W        W40681  16.618  18.717   3.071 -0.0705  0.0489  0.2036
24208W        W40682   4.023   9.384   3.811  0.0122 -0.0809  0.2710
24209W        W40683   3.168   8.260  11.611  0.2161 -0.2696 -0.0254
24210W        W40684   6.573   0.746   2.032 -0.0454  0.2790  0.1690
24211W        W40685  12.907  12.400  13.728  0.1974  0.1309  0.0856
24212W        W40686   4.419   1.960   3.457 -0.2555 -0.2597 -0.3011
24213W        W40687  11.519  14.092   0.581 -0.0270 -0.2412 -0.4133
24214W        W40688  17.664   8.978   2.194  0.2098  0.1099  0.0560
24215W        W40689  19.348  12.322   3.068 -0.0472 -0.0437  0.0336
24216W        W40690  18.699   4.479  12.513  0.1318  0.1478  0.2204
24217W        W40691   2.684   8.007   9.142 -0.1578  0.2265  0.1187
24218W        W40692  10.326   3.207  13.275  0.0845  0.2166  0.0888
24219W        W40693   2.491   6.302   3.417  0.1229 -0.2505  0.1101
24220W        W40694   1.616   9.731  12.791 -0.1414 -0.1489 -0.0368
24221W        W40695  14.676  18.036  13.053  0.1834  0.1285  0.0359
24222W        W40696  14.401   2.101  12.634  0.3172 -0.0409 -0.1770
24223W        W40697  14.089   3.770   0.181  0.1161  0.0174  0.2967
24224W        W40698  13.867   6.308   2.127  0.0891 -0.4726 -0.1328
24225W        W40699  14.197  17.174  13.342 -0.0983  0.0814  0.3527
24226W        W40700   5.374   2.641  10.134 -0.0448 -0.2786 -0.2609
24227W        W40701  12.236  19.128  14.721 -0.0711  0.1423  0.1865
24228W        W40702  14.744   9.807  11.681  0.0712  0.1006  0.0305
24229W        W40703  15.268   4.049   5.491 -0.1125 -0.1386 -0.0514
24230W        W40704  17.815   7.658   0.545 -0.0426  0.1475 -0.0589
24231W        W40705   0.874  11.962  12.186 -0.0435 -0.2195  0.2283
24232W        W40706  11.493  11.283  14.287 -0.1275  0.1772 -0.2514
24233W        W40707  16.129   7.151   9.328 -0.1105  0.1670 -0.0449
24234W        W40708   5.946   4.460  10.428 -0.3132  0.1150  0.1010
24235W        W40709   5.109   7.304   4.401  0.0423  0.2937  0.0678
24236W        W40710   3.556   6.380   9.876 -0.2613  0.1265 -0.1522
24237W        W40711   4.556   7.829  10.435 -0.1229  0.0237 -0.1204
24238W        W40712  19.351   1.725  10.396 -0.3551  0.1951  0.4407
24239W        W40713   2.168   3.695   3.397  0.4333  0.2477  0.0745
24240W        W40714   7.693  19.045   3.080 -0.2147  0.0268  0.0676
24241W        W40715   0.864   0.678   5.028  0.1907 -0.0172  0.3334
24242W        W40716   1.078  17.211  12.141  0.3503  0.0107  0.0831
24243W        W40717  17.436   8.076  14.600  0.3505 -0.0132 -0.0618
24244W        W40718   4.482   3.222   2.265 -0.0461 -0.0440  0.0146
24245W        W40719   0.986   1.928  13.547  0.1965 -0.1496 -0.1805
24246W        W40720  10.367  18.073   2.814 -0.0792 -0.1395  0.1187
24247W        W40721   0.354  13.707  14.402 -0.1130  0.0219 -0.1931
24248W        W40722   7.330   1.536  10.192  0.0769  0.1685 -0.2184
24249W        W40723  16.951   5.262   4.894 -0.0416 -0.0765 -0.0178
24250W        W40724   9.627  14.373   2.373  0.0565 -0.0777  0.2376
24251W        W40725  16.707  16.704   3.167 -0.1461  0.0967  0.3034
24252W        W40726   6.740   9.457   2.188  0.1544 -0.0921  0.2195
24253W        W40727  14.028  12.715   4.948 -0.1267 -0.2306  0.0051
24254W        W40728  16.235   6.448   0.368 -0.1209  0.1019  0.1536
24255W        W40729  17.369   0.878   5.073 -0.0730 -0.2252  0.0408
24256W        W40730   1.956  15.558  13.279 -0.0088 -0.1516 -0.2536
24257W        W40731  15.110  15.170   4.962  0.2809 -0.0587  0.3092
24258W        W40732   5.699   8.852  14.546 -0.0731 -0.0231 -0.2165
24259W        W40733  15.222   1.063  11.792  0.2249 -0.3145 -0.0548
24260W        W40734   4.955   5.255  13.835  0.1861  0.0299  0.0624
24261W        W40735  15.663  17.288  11.016 -0.0828  0.2545  0.1072
24262W        W40736  17.067  16.590  13.098 -0.1927  0.0300  0.3004
24263W        W40737  16.599   6.866   4.058 -0.1738 -0.0202  0.1049
24264W        W40738   0.403   8.811   3.515  0.2429  0.3550 -0.0354
24265W        W40739   3.013  16.108  11.834 -0.4896  0.2112 -0.0402
24266W        W40740   7.267   6.164  12.379 -0.1023  0.0145  0.4454
24267W        W40741   8.954  13.215   1.074 -0.0291 -0.1651 -0.5006
24268W        W40742   5.020   7.714  10.588  0.0498  0.2441  0.1401
24269W        W40743  10.150   9.810   4.653 -0.1416  0.3117  0.0723
24270W        W40744  12.479  13.950   2.839  0.1331 -0.0285  0.1393
24271W        W40745   0.524  16.502   3.304  0.1524 -0.1778 -0.1430
24272W        W40746  12.998   8.499   4.446 -0.6578  0.0230  0.1221
24273W        W40747   1.158   2.746   3.437  0.2309  0.0335  0.2564
24274W        W40748   0.760  16.279   2.046 -0.0295  0.0116 -0.2514
24275W        W40749   6.401  15.785  11.338 -0.1421 -0.0738 -0.1030
24276W        W40750   9.112   1.390  14.652  0.1358 -0.2167  0.0889
24277W        W40751   1.940  12.042  10.378  0.0735 -0.2969 -0.0214
24278W        W40752   3.131  17.104  13.686 -0.0086 -0.4119  0.0220
24279W        W40753  14.804  14.321   1.511  0.2748 -0.1077 -0.2706
24280W        W40754  12.140   5.606  13.513 -0.0593  0.3725 -0.1524
24281W        W40755   5.077   0.745   3.291  0.0264  0.1564 -0.3429
24282W        W40756  16.631   8.062   9.916 -0.1894  0.1763 -0.0961
24283W        W40757   3.379  19.209  12.846  0.3595  0.1722 -0.0471
24284W        W40758   8.970  16.783   0.308  0.1579  0.0597 -0.1277
24285W        W40759  12.656   1.896  10.350 -0.3336  0.0968  0.2654
24286W        W40760  17.257   6.096   1.587  0.1812  0.0444 -0.0492
24287W        W40761   7.928  12.506  14.408 -0.0827  0.0039 -0.1766
24288W        W40762   1.946   4.158  12.937 -0.0710  0.3632  0.0158
24289W        W40763  12.815  18.883  11.606 -0.0242 -0.3493 -0.0530
24290W        W40764   2.273  11.911   0.136 -0.1885  0.2753 -0.0569
24291W        W40765  14.478  12.987   5.065 -0.2179 -0.3941  0.1197
24292W        W40766   3.410  16.940  12.203 -0.0662 -0.0032 -0.0500
24293W        W40767   6.692   2.938  10.316 -0.0363  0.1729 -0.2634
24294W        W40768  13.150   9.578  13.871  0.1839 -0.1397 -0.1698
24295W        W40769   9.110   3.088   0.995  0.0405  0.0442  0.0043
24296W        W40770  15.490   2.927   2.078  0.4785 -0.0235  0.0484
24297W        W40771   2.301   0.776  10.258 -0.0667  0.0390  0.1011
24298W        W40772   3.178  10.157   5.050 -0.0169 -0.3161 -0.1782
24299W        W40773   8.517  13.687   4.148  0.2151 -0.3604 -0.1905
24300W        W40774   9.482   0.459  12.202  0.3157  0.0976  0.0963
24301W        W40775  18.017  15.661  11.209  0.1104  0.1168  0.1274
24302W        W40776  12.523   4.962  12.199  0.1440  0.1583  0.0680
24303W        W40777   7.672  12.009   2.134 -0.0306 -0.0504 -0.0118
24304W        W40778  16.936   0.421  12.236  0.0519  0.2213 -0.3669
24305W        W40779  14.961  10.989  11.056  0.0270  0.0565 -0.0312
24306W        W40780  15.877   3.822   5.309  0.1683  0.2842 -0.0041
24307W        W40781   8.845   7.604  11.639 -0.0727 -0.4319 -0.0489
24308W        W40782  16.312  16.072   1.238  0.1950 -0.2860  0.0174
24309W        W40783   1.327  12.217  12.198  0.5100 -0.1170  0.0105
24310W        W40784  12.701   0.950   3.297 -0.1910 -0.1776  0.4471
24311W        W40785  15.756  18.850   3.743  0.0024  0.1999 -0.2122
24312W        W40786  10.125  16.656  12.405 -0.1802  0.0914 -0.1687
24313W        W40787   8.644   8.460   0.202 -0.1723  0.0007 -0.4231
24314W        W40788   0.340  16.876  12.604 -0.0871  0.2635  0.0849
24315W        W40789  17.036   0.824   4.197 -0.0304 -0.1365 -0.0153
24316W        W40790  17.250   3.999  10.841  0.2206  0.1771  0.2904
24317W        W40791  13.319  13.280  13.052 -0.0639  0.2294 -0.1964
24318W        W40792   4.777   8.577  13.374 -0.1918  0.0065  0.0745
24319W        W40793   6.921  13.459   4.837 -0.0937  0.1452  0.2786
24320W        W40794  11.065  15.086   9.951  0.1408  0.1454  0.3128
24321W        W40795   5.013   1.585  11.069 -0.2131  0.0975  0.0907
24322W        W40796   0.406  15.708   4.262  0.2493 -0.2717 -0.3100
24323W        W40797  16.624  15.934  14.697 -0.1452  0.2576  0.1381
24324W        W40798  14.480   1.631   0.121  0.0232 -0.1700 -0.1056
24325W        W40799   4.158   0.847   1.242 -0.0080 -0.0296 -0.1108
24326W        W40800  10.305  15.377  11.324 -0.0992  0.1545  0.1468
24327W        W40801   7.126  10.430   3.373 -0.2656 -0.0883 -0.3881
24328W        W40802   1.893   2.623  13.721  0.0340 -0.1649 -0.0305
24329W        W40803  17.172  14.324  14.305  0.2690  0.0613 -0.0103
24330W        W40804  19.339  10.206   1.237 -0.1249  0.1759  0.2629
24331W        W40805   4.338  10.734   0.900  0.2711  0.0879  0.4318
24332W        W40806  16.190  13.640  13.655 -0.2714  0.1229  0.0089
24333W        W40807  19.302  11.639  10.114  0.2564 -0.3402  0.1142
24334W        W40808  10.381  15.233   6.062  0.0108  0.3180  0.0469
24335W        W40809   9.534  17.418   0.045  0.2193  0.0241 -0.2084
24336W        W40810  17.002  16.165   3.177 -0.0396  0.1543  0.1553
24337W        W40811   4.096  19.121  13.298  0.1259 -0.2633  0.1533
24338W        W40812   6.281   8.021  14.497 -0.0269  0.1132 -0.0788
24339W        W40813  18.345  12.539   2.260 -0.1667  0.3267 -0.0178
24340W        W40814   7.994   2.181   1.911  0.1785 -0.0896  0.3175
24341W        W40815  12.348   8.165  13.176 -0.1498  0.2052  0.1421
24342W        W40816   6.593   0.065   0.729 -0.0784  0.2611 -0.3207
24343W        W40817   8.641   0.882   2.478 -0.0257  0.2794  0.0182
24344W        W40818   5.373  11.158  13.788  0.0043  0.1486 -0.0104
24345W        W40819   7.117  13.873   4.682  0.0695  0.0915  0.1047
24346W        W40820   1.289  17.360   3.427 -0.2961 -0.0964  0.1732
24347W        W40821  19.275   0.531   4.131  0.1742 -0.0220 -0.1944
24348W        W40822   3.002   4.423  12.557 -0.2377 -0.0599  0.2288
24349W        W40823  10.278   9.488   1.697 -0.1050 -0.0263 -0.0099
24350W        W40824  14.470  18.646  14.242  0.0095 -0.1750  0.0661
24351W        W40825   3.127  11.367   2.393  0.1081 -0.0617 -0.0180
24352W        W40826  11.422   9.112   2.429 -0.0132 -0.1360 -0.1121
24353W        W40827  12.054  11.427  11.119  0.0364 -0.0150  0.0623
24354W        W40828  16.798  10.584  14.032  0.0730  0.1274 -0.2292
24355W        W40829  17.576  17.438  12.679 -0.3269  0.1560 -0.2462
24356W        W40830  11.184   1.899  13.142 -0.0499  0.2634  0.0407
24357W        W40831   9.806   2.421   2.344  0.1163 -0.1816 -0.1631
24358W        W40832   7.060   0.669  13.968 -0.0946 -0.0620 -0.0080
24359W        W40833   6.698   3.846  14.573 -0.3894 -0.0801  0.1990
24360W        W40834  16.182  13.356  11.763  0.0871 -0.2469  0.0993
24361W        W40835   5.550  16.683   0.643 -0.0153  0.1871 -0.2599
24362W        W40836   6.309   2.990   1.626 -0.0533  0.1005 -0.1362
24363W        W40837  12.250  18.803  12.840 -0.0173  0.0306  0.3567
24364W        W40838  11.851  12.369  11.091  0.0027 -0.3288  0.2862
24365W        W40839   8.781  19.018   9.318 -0.2689  0.1701 -0.0633
24366W        W40840   9.544   6.347  13.606 -0.0820  0.1310 -0.2048
24367W        W40841   7.369  13.266   4.654 -0.0723  0.0573 -0.2182
24368W        W40842  13.911   2.240   2.301  0.1717  0.1727  0.1554
24369W        W40843   8.451   4.291  10.389 -0.1320 -0.0338  0.3643
24370W        W40844   5.126   8.051   0.766 -0.0641 -0.1479 -0.0148
24371W        W40845   8.099   6.575  14.855  0.3273  0.3057 -0.0073
24372W        W40846   3.423  14.346  14.859 -0.1200  0.0979 -0.2836
24373W        W40847   6.777  11.717   2.783 -0.1131  0.0053 -0.0798
24374W        W40848  16.137  17.216   1.071 -0.1978  0.1556  0.2596
24375W        W40849   1.694  18.579  11.439 -0.1090  0.0286 -0.0712
24376W        W40850   0.802   4.896   3.024  0.1852 -0.1078  0.2617
24377W        W40851   5.254   9.796   0.935 -0.2427  0.3736  0.2162
24378W        W40852   6.796   4.720   2.466 -0.0010  0.0481 -0.1452
24379W        W40853   5.541  16.166   0.930  0.0852 -0.1774  0.0147
24380W        W40854   9.324   1.264  14.157  0.2174  0.2250  0.1140
24381W        W40855  14.534  10.290   0.077 -0.0939 -0.0498 -0.4241
24382W        W40856   9.474   0.015  14.248  0.0741 -0.0598  0.1358
24383W        W40857   2.225   3.397  11.906  0.1706 -0.1451  0.0791
24384W        W40858  12.363   3.434   1.467 -0.1458  0.1093 -0.0545
24385W        W40859   6.014   8.965  13.216 -0.1308 -0.1645 -0.2061
24386W        W40860   4.954  13.906   0.753 -0.2255 -0.3474  0.2031
24387W        W40861   5.539   0.776  12.719 -0.0798 -0.2702  0.4328
24388W        W40862   0.871   3.254   2.372  0.1788 -0.3279  0.0071
24389W        W40863   4.094  16.385  11.666  0.1689  0.0511  0.2003
24390W        W40864   6.375   4.481  11.247  0.2338  0.2023  0.1603
24391W        W40865  12.867   6.154   1.300  0.1443 -0.0985  0.0449
24392W        W40866   1.454   5.254   4.604  0.1428  0.1730 -0.1485
24393W        W40867   5.410  16.075  12.410  0.1047  0.2414  0.3555
24394W        W40868  12.428  16.270   2.478  0.1088 -0.0184  0.1787
24395W        W40869   7.209   6.678  14.606  0.3790 -0.1078 -0.0334
24396W        W40870  12.332   4.303   2.800 -0.3990  0.2294 -0.0638
24397W        W40871  17.740  13.757   5.289  0.0545  0.1178  0.2201
24398W        W40872  13.988   0.812  10.953  0.0759  0.1604 -0.2358
24399W        W40873   9.892   3.269   0.108  0.2371 -0.0909  0.0486
24400W        W40874  10.307   0.417   3.444  0.1399  0.0916  0.0738
24401W        W40875  12.723  16.558  11.938  0.1116  0.2146 -0.0732
24402W        W40876   1.719   1.770  13.755  0.1910  0.2374 -0.1095
24403W        W40877  10.297   1.171   9.853 -0.1717 -0.0276 -0.2467
24404W        W40878  19.064   7.867  13.473 -0.2693 -0.0377  0.1315
24405W        W40879   6.546  12.317  14.491  0.1161 -0.0371 -0.2047
24406W        W40880  16.485  18.436   0.528 -0.0808 -0.0510  0.0514
24407W        W40881   7.688   2.548   3.266 -0.0535  0.1301 -0.1068
24408W        W40882  18.649  18.537  14.452  0.0452  0.0882 -0.1229
24409W        W40883   7.995   7.861   2.687 -0.1428 -0.0954 -0.2174
24410W        W40884  13.876  17.607  10.471  0.0057 -0.2231 -0.0624
24411W        W40885   5.713  11.758   4.086  0.0333 -0.0949 -0.3050
24412W        W40886  15.881   9.173  14.066 -0.0397  0.1723 -0.1945
24413W        W40887  14.936   2.588  11.720 -0.2289  0.2333  0.1462
24414W        W40888  16.618   4.242  12.662  0.1561  0.2490  0.2006
24415W        W40889   0.527   6.239  14.762 -0.3685  0.2842  0.2257
24416W        W40890  18.877   2.976   3.634 -0.0038 -0.0004  0.3665
24417W        W40891  17.799   4.333   4.184 -0.1825 -0.2909 -0.1779
24418W        W40892  18.917   8.762   3.618 -0.1788 -0.0620  0.0859
24419W        W40893  12.942  17.886  13.327  0.1058 -0.0014 -0.0690
24420W        W40894   7.799   7.421  13.800  0.0355  0.1798 -0.0124
24421W        W40895   5.765  17.033  13.815 -0.1966 -0.2885 -0.2339
24422W        W40896   3.308  14.690  11.027 -0.0486 -0.0512 -0.2071
24423W        W40897   6.971  15.175  13.887 -0.2251  0.0206 -0.1584
24424W        W40898  18.679   0.705   0.435 -0.1216 -0.0101 -0.2627
24425W        W40899  14.528  12.906  13.181  0.0993 -0.0084  0.2642
24426W        W40900  11.879   6.064   4.734  0.2496 -0.1260 -0.0877
24427W        W40901  17.996   4.424  14.219  0.1081  0.1401 -0.2405
24428W        W40902   5.268  14.866  10.837 -0.5995  0.2919 -0.3039
24429W        W40903  16.628  11.092  13.785 -0.0199  0.0909  0.2538
24430W        W40904  16.190  11.206   4.845  0.2174 -0.2804 -0.0764
24431W        W40905  12.594  15.580  12.198  0.5478 -0.2533  0.4105
24432W        W40906  14.723   9.033   1.868 -0.0789  0.0688  0.4312
24433W        W40907  17.135  17.253   5.957  0.0246  0.0249  0.1030
24434W        W40908  12.719  14.853   2.735  0.0040 -0.1150 -0.0743
24435W        W40909  14.851   6.522  14.482  0.1243 -0.1511 -0.2434
24436W        W40910   1.577   7.021   0.329 -0.0308 -0.0936  0.1357
24437W        W40911  18.504   0.584  10.051 -0.0237  0.3939  0.0117
24438W        W40912  10.715  11.817  13.221 -0.0561 -0.1394  0.0931
24439W        W40913   1.024  17.993   0.025 -0.0269 -0.0671 -0.2328
24440W        W40914   9.308  14.567   1.997  0.0961  0.0689 -0.0292
24441W        W40915   4.745  10.953   0.601  0.0446  0.0866  0.4870
24442W        W40916  18.972   5.804   3.048  0.1518  0.0328  0.0492
24443W        W40917  17.334  16.893   3.973 -0.2428  0.2160  0.2518
24444W        W40918  18.252   4.697  11.113 -0.1954  0.4409 -0.2968
24445W        W40919   3.758   6.783  14.872 -0.0265  0.3165  0.1616
24446W        W40920  15.173   4.972  10.420  0.0545  0.0607 -0.0508
24447W        W40921  13.762   0.298  11.056 -0.0713 -0.1279  0.1140
24448W        W40922   0.858   4.660  13.927 -0.1041  0.0442  0.2502
24449W        W40923   3.876  11.471  13.562  0.1457 -0.0667  0.2500
24450W        W40924  10.416  13.157  11.827 -0.2220  0.0436  0.0449
24451W        W40925  14.902   7.936  13.797 -0.0251 -0.1373  0.0933
24452W        W40926   4.187  10.056  14.292  0.0831  0.0853  0.0040
24453W        W40927   0.945  17.209   3.982  0.0881  0.0796 -0.3435
24454W        W40928   9.771  11.877   3.986  0.1363  0.2237 -0.2724
24455W        W40929  15.123   1.749   5.419 -0.2149 -0.3881  0.1123
24456W        W40930   5.852  12.839   5.129 -0.0220  0.3602 -0.0357
24457W        W40931  18.159  17.610   1.772 -0.1722  0.0017 -0.0857
24458W        W40932   1.103  15.684  14.489  0.2005 -0.3996  0.1026
24459W        W40933   9.828   0.078  12.190  0.1045 -0.2099  0.0120
24460W        W40934   7.217   0.952  11.729  0.1960 -0.0421  0.0186
24461W        W40935   1.432  18.732  13.698  0.1667  0.1144  0.0399
24462W        W40936  17.058  12.307  13.423 -0.0722  0.2227  0.2269
24463W        W40937  12.272  12.693   2.839 -0.0099  0.0501 -0.0676
24464W        W40938  11.095  11.069   3.701  0.1736  0.0376  0.1217
24465W        W40939  12.082  11.262   3.696 -0.1209 -0.2093  0.1144
24466W        W40940   1.303   9.534  11.383  0.0051 -0.0777 -0.1850
24467W        W40941  18.511   2.060   0.190 -0.2788 -0.1116 -0.0388
24468W        W40942  10.905  17.428   2.125 -0.0252  0.4075  0.1559
24469W        W40943   6.792  17.213   2.380  0.3970 -0.1353 -0.4157
24470W        W40944   8.227   4.726   2.230 -0.4115  0.0363 -0.0834
24471W        W40945  13.652   1.909   2.566 -0.1313 -0.1001  0.2464
24472W        W40946   0.990   1.754  14.671  0.0361 -0.0514 -0.2408
24473W        W40947   5.803   6.614  13.079  0.0114 -0.3527  0.0549
24474W        W40948  11.036   6.351  13.443  0.0902  0.0257  0.1254
24475W        W40949   5.584  13.492  13.045 -0.0538 -0.0421 -0.0079
24476W        W40950   4.958  16.042  14.512  0.1853  0.3470  0.1112
24477W        W40951   5.178  13.621   4.325  0.1206 -0.2467 -0.1866
24478W        W40952  18.711   4.833  11.515 -0.0453 -0.2154 -0.3952
24479W        W40953  15.960   6.066   0.473  0.1628 -0.0234 -0.0790
24480W        W40954  12.240   5.275   1.676  0.0281 -0.1379  0.0048
24481W        W40955  16.620  11.784  12.706 -0.1738 -0.1734  0.0917
24482W        W40956  17.491  11.867   3.325  0.2070  0.0185  0.0283
24483W        W40957  13.601   0.591   3.227  0.2595  0.1684 -0.5115
24484W        W40958   8.272  16.102   4.655  0.1492 -0.1778 -0.0858
24485W        W40959   8.953   1.208  10.834 -0.3459 -0.3258  0.0956
24486W        W40960  14.341   6.183   3.023  0.1895 -0.1743  0.0811
24487W        W40961   1.506  18.977   3.517 -0.0479  0.3189  0.0215
24488W        W40962  15.503  12.977  13.374 -0.0519 -0.1331 -0.1333
24489W        W40963   4.951  17.326   5.405 -0.1129 -0.1183  0.2504
24490W        W40964   2.105   8.747  10.689  0.0402  0.1841 -0.0162
24491W        W40965  12.439  15.035   9.381 -0.3083 -0.2053  0.1844
24492W        W40966  14.709   4.722   0.195 -0.1458  0.0789  0.1084
24493W        W40967  17.215  13.088  14.230 -0.5019 -0.0474  0.3583
24494W        W40968  17.219  10.930   3.613  0.0019  0.2796 -0.0500
24495W        W40969   1.983   6.472  12.541 -0.2889 -0.1261  0.2414
24496W        W40970   2.994  14.716   3.399 -0.0395 -0.0753  0.0417
24497W        W40971  14.510  17.569  11.661 -0.1436  0.0119  0.2091
24498W        W40972  18.139   7.370   4.452 -0.2679  0.2619 -0.2297
24499W        W40973   4.064   1.948   2.606  0.0758 -0.0272 -0.1020
24500W        W40974   9.915   1.270  11.749  0.2087  0.2087  0.2070
24501W        W40975   8.505   5.143  14.380  0.0148 -0.1115 -0.0969
24502W        W40976  11.772  11.399  12.139  0.1479  0.4098 -0.1748
24503W        W40977   5.592   3.408   3.680  0.0422  0.2597 -0.1174
24504W        W40978  13.056   3.998  13.466 -0.3181 -0.2655  0.0835
24505W        W40979  13.261   1.168  13.987 -0.0431 -0.2603 -0.0177
24506W        W40980   9.323   9.263  10.252  0.0567 -0.0423  0.0181
24507W        W40981  10.116  12.443  10.822  0.0825  0.1792 -0.1174
24508W        W40982   8.968   4.663   2.894  0.0750  0.2064  0.1175
24509W        W40983  11.213   6.010   1.545  0.0790 -0.0561  0.0424
24510W        W40984   7.022   1.553  10.636  0.1155  0.3738 -0.1710
24511W        W40985   8.998   0.867  13.846 -0.3912  0.0259  0.0599
24512W        W40986   7.980   1.027  13.871 -0.2042 -0.0958  0.2654
24513W        W40987   1.310  19.093   2.352 -0.0247 -0.0799  0.1199
24514W        W40988   9.595   8.297  11.320 -0.1469 -0.1416  0.1506
24515W        W40989   1.164  13.396   0.160 -0.0654  0.1515  0.2134
24516W        W40990   6.668  15.221   2.627  0.0183 -0.3282  0.0178
24517W        W40991  17.742  18.872   4.567  0.0974  0.0022 -0.2335
24518W        W40992  13.764  14.989  11.906 -0.0128  0.0921  0.0796
24519W        W40993  14.059  14.600  14.239 -0.2047  0.0906 -0.2113
24520W        W40994  17.772   0.423   0.957  0.0164 -0.0853  0.0889
24521W        W40995  15.419  18.652   3.300 -0.2627 -0.1095  0.2397
24522W        W40996   3.033  15.463  13.579  0.2727  0.0960  0.0113
24523W        W40997  13.513   2.843  10.742  0.1671 -0.0586  0.0584
24524W        W40998   2.584   4.207   2.610 -0.1290 -0.1628  0.0640
24525W        W40999  13.959  18.408   1.036 -0.3330  0.1083 -0.1415
24526W        W41000  12.448  15.884   3.436 -0.1042 -0.1505 -0.1220
24527W        W41001   9.429   2.652  10.905 -0.2005  0.3460 -0.0693
24528W        W41002   6.367  14.416   5.100  0.0427  0.1246  0.0154
24529W        W41003   6.847  13.271   2.521 -0.1417 -0.1899 -0.2069
24530W        W41004   3.858  15.408  14.404  0.3189 -0.0637  0.3149
24531W        W41005   0.247   5.465  13.635  0.1547  0.0221 -0.0470
24532W        W41006  12.788   2.476  10.346 -0.0306  0.0004 -0.2363
24533W        W41007  16.599   0.096  12.513 -0.2050 -0.2288  0.0497
24534W        W41008   9.624   8.598  13.677  0.0195 -0.1191  0.3240
24535W        W41009   0.467  13.899   2.359  0.3996 -0.1015  0.0723
24536W        W41010   3.798  16.638  14.209 -0.0079  0.2686 -0.0540
24537W        W41011  18.064  18.597  11.390  0.3283 -0.1756 -0.2342
24538W        W41012  18.927  13.066   4.666  0.1985  0.0279  0.1420
24539W        W41013  18.130   7.291  12.454 -0.5355  0.1993  0.2258
24540W        W41014  11.030   4.062  12.457  0.2306 -0.2497 -0.1448
24541W        W41015   2.599   2.029   1.982 -0.0185 -0.0247 -0.3052
24542W        W41016   0.416  14.509   0.815 -0.2889 -0.1330  0.0396
24543W        W41017  13.713  10.091   4.928  0.1811 -0.0688 -0.1648
24544W        W41018   8.403  10.230  11.662  0.3283  0.2726  0.1694
24545W        W41019   9.265   4.162  13.277  0.1141 -0.3985 -0.0307
24546W        W41020   1.723   1.826  12.233 -0.0019  0.1317 -0.0366
24547W        W41021   5.819  10.589  12.822 -0.3361  0.1717 -0.3247
24548W        W41022   7.318  17.942   3.549 -0.2829  0.0257  0.0225
24549W        W41023  17.538   0.754   4.571  0.2190 -0.2071  0.1134
24550W        W41024  12.436   4.259   0.156 -0.0031  0.2136  0.2755
24551W        W41025  12.811   3.837   9.762  0.0303 -0.2166  0.0839
24552W        W41026   7.029   7.100  11.893  0.1529  0.0489  0.1022
24553W        W41027  14.447  18.407  10.095  0.0724 -0.1131 -0.0861
24554W        W41028  15.520   4.069   5.050  0.2774  0.0065  0.0734
24555W        W41029   2.096  17.589  11.262 -0.1758 -0.2995 -0.0962
24556W        W41030   7.513  13.504  14.880 -0.0643 -0.1229  0.3536
24557W        W41031   4.896  11.507   0.732 -0.0586  0.0805 -0.2426
24558W        W41032   1.845  17.955  13.859 -0.5361  0.1239 -0.1328
24559W        W41033   7.479  16.219   0.273  0.0409  0.1859 -0.2537
24560W        W41034   2.378  11.040  14.142 -0.1085  0.1478 -0.1483
24561W        W41035  18.546  12.536   3.462 -0.1371 -0.2459 -0.0495
24562W        W41036  18.378   1.128  12.938 -0.0353 -0.0335  0.0201
24563W        W41037   9.419   8.921   3.033  0.0220 -0.1209  0.1969
24564W        W41038   2.601  16.832  11.746  0.3497  0.0898 -0.1758
24565W        W41039  19.210   8.530   0.806  0.0057 -0.0245 -0.3206
24566W        W41040  18.862   5.853   0.680 -0.4600  0.2364  0.2460
24567W        W41041   2.940   2.270  13.139  0.2499 -0.0821  0.2591
24568W        W41042  18.583  15.746   4.299  0.0405 -0.0044  0.2410
24569W        W41043   4.806   6.720  14.642  0.0318  0.2748 -0.0760
24570W        W41044  12.167  10.828   3.491 -0.1650  0.0853 -0.0572
24571W        W41045   2.855  18.786   2.606 -0.0509 -0.3195  0.0843
24572W        W41046  10.859  16.313   4.647 -0.0166 -0.1472  0.0680
24573W        W41047  15.642  10.507  12.147 -0.0703  0.3392 -0.1082
24574W        W41048   0.625   3.480  11.521  0.0362  0.3080  0.0936
24575W        W41049   4.139  15.660   4.089  0.0411 -0.0399  0.1156
24576W        W41050  14.213  18.506  13.832  0.1348  0.4267 -0.4512
24577W        W41051   3.446  16.508  11.837  0.1589 -0.1786 -0.1945
24578W        W41052  11.626  14.064  12.686 -0.1345 -0.0678  0.0118
24579W        W41053  13.345  18.328  13.284  0.2010 -0.1378  0.3677
24580W        W41054   4.861  13.455  14.325  0.1833  0.1384 -0.0966
24581W        W41055  12.024   0.105  11.143  0.0331  0.2110 -0.2669
24582W        W41056   1.701  14.001  12.564  0.1077  0.1033 -0.0738
24583W        W41057   1.414  15.468   4.162 -0.3780  0.2519 -0.3613
24584W        W41058   1.681  12.020  14.794 -0.2014 -0.0732 -0.3839
24585W        W41059   1.375  18.467   3.862 -0.4023 -0.0678  0.0347
24586W        W41060  17.247  10.374  14.209 -0.1498  0.1960 -0.1251
24587W        W41061   1.452   2.172   2.558  0.2567 -0.1265 -0.1628
24588W        W41062   5.559  12.553  12.574  0.2872  0.4968 -0.1750
24589W        W41063   4.173   4.098  12.039 -0.0578 -0.2587  0.1127
24590W        W41064   8.126  10.071   1.434 -0.2777  0.1029  0.2576
24591W        W41065   2.243   5.012   3.183 -0.1596 -0.0243  0.1275
24592W        W41066  13.553   9.664  14.192 -0.0667 -0.1602 -0.0844
24593W        W41067  12.723   4.978   2.530 -0.1912 -0.1499  0.3695
24594W        W41068  10.709   9.371  14.410  0.4745 -0.2327 -0.1028
24595W        W41069   3.880   7.105   3.515  0.1359  0.1346  0.3446
24596W        W41070  19.067   8.838   5.254 -0.1253 -0.0732  0.0107
24597W        W41071  19.357   5.277  14.683 -0.2406  0.0607  0.1199
24598W        W41072  12.168  10.732   4.067 -0.0377 -0.2495 -0.1393
24599W        W41073   8.184   7.007   1.970 -0.1043  0.0862 -0.2383
24600W        W41074   3.422   2.836  14.554  0.0965 -0.0946  0.1775
24601W        W41075  16.903   6.025  12.076 -0.0237 -0.1913  0.1284
24602W        W41076   8.848   3.779  12.354  0.1401 -0.0947 -0.0846
24603W        W41077  15.347  10.478   1.506  0.0309 -0.4539  0.0738
24604W        W41078   0.707   8.186   3.430 -0.2129  0.0909 -0.2288
24605W        W41079  17.422  16.476   9.717  0.3772  0.0870  0.0060
24606W        W41080  11.294   0.986   1.541  0.0232  0.0982  0.1726
24607W        W41081   9.425   4.576  13.641  0.0632  0.0748 -0.0405
24608W        W41082   9.650  16.413   4.713  0.0744  0.0089 -0.0826
24609W        W41083   8.110  10.820   3.614 -0.0287  0.0211 -0.1629
24610W        W41084   5.152  12.940   2.289  0.1240  0.0308 -0.5137
24611W        W41085   9.840   3.434   1.614  0.0504 -0.1786 -0.0982
24612W        W41086  11.224  15.997   4.281 -0.0716 -0.1305  0.0282
24613W        W41087  13.181   8.481  12.303 -0.1625  0.3379 -0.1397
24614W        W41088   5.222  12.782   2.799 -0.0838 -0.0070 -0.1052
24615W        W41089   5.969  17.163   0.058 -0.0032 -0.0039 -0.3268
24616W        W41090  12.525   2.483  11.170  0.0924  0.0986  0.3369
24617W        W41091  12.496   8.601   3.785  0.1117 -0.0451  0.2231
24618W        W41092   6.507   2.179   1.220  0.0704  0.1058 -0.0617
24619W        W41093  14.652   9.741   1.631 -0.0782  0.0480  0.1422
24620W        W41094   5.481  14.647  13.994  0.0050  0.0809 -0.1448
24621W        W41095  12.450  18.584  10.080  0.0723 -0.0118  0.1938
24622W        W41096   4.641  16.088   0.563  0.1497 -0.0907  0.3270
24623W        W41097   5.252   5.431  14.671  0.3908 -0.4356 -0.0714
24624W        W41098   2.103   6.697   2.583 -0.0308  0.1224 -0.0612
24625W        W41099   8.948   9.823  13.850  0.2927  0.1577  0.1390
24626W        W41100   7.318   9.237   2.231  0.2201 -0.1777 -0.1332
24627W        W41101   4.851   1.362   2.144  0.2030 -0.0491  0.0450
24628W        W41102  17.872  13.937   4.783  0.0593  0.1049  0.0010
24629W        W41103   0.445  15.996  13.866 -0.0867 -0.1635  0.0151
24630W        W41104   1.757   5.165  13.740  0.1122 -0.2734  0.0587
24631W        W41105  16.018   9.225  13.338 -0.1339 -0.0083 -0.0757
24632W        W41106   4.820   9.618  10.042 -0.4689 -0.0621  0.2386
24633W        W41107  13.550  12.295   1.503  0.0287 -0.1166 -0.2640
24634W        W41108  15.287   4.550  12.136 -0.0928  0.2334 -0.1578
24635W        W41109  15.563  12.817  13.848  0.1055 -0.2374 -0.1623
24636W        W41110   3.186   6.879  10.168  0.4450 -0.1102  0.1809
24637W        W41111  15.330  13.366   3.077 -0.1574 -0.3387  0.2387
24638W        W41112   5.186   4.490   4.990 -0.0868  0.3932 -0.3637
24639W        W41113  15.140  13.383  11.634 -0.1179  0.1969 -0.3085
24640W        W41114   9.275  14.480  11.211  0.1249  0.1515 -0.2399
24641W        W41115   7.309  13.743  12.915  0.3117 -0.1242  0.0865
24642W        W41116   4.207   8.634   3.188 -0.2165 -0.0022  0.1506
24643W        W41117  17.053   3.388  11.641 -0.2485 -0.4092  0.2042
24644W        W41118  14.057  16.613  12.675 -0.0726 -0.2536  0.0229
24645W        W41119  17.828   1.351   9.658 -0.0632 -0.2822  0.1896
24646W        W41120  18.732   5.688   4.571 -0.1944  0.0450 -0.0551
24647W        W41121  11.623   8.358   1.076 -0.0091  0.1168 -0.1540
24648W        W41122  18.077  10.981  11.088 -0.0799  0.0017 -0.0708
24649W        W41123   1.461  14.506  13.335 -0.1231 -0.0340  0.0927
24650W        W41124  14.744  16.558   3.799  0.0847 -0.0854 -0.3650
24651W        W41125  14.490  16.164   4.494  0.2355  0.0323  0.1370
24652W        W41126  19.283   6.832   0.676  0.2708 -0.2229 -0.0158
24653W        W41127   6.442   5.076   2.096  0.1399 -0.0251 -0.1089
24654W        W41128   2.262   0.492  11.793 -0.2352  0.0158  0.1024
24655W        W41129   3.379   9.458   5.399 -0.3388 -0.1724 -0.0246
24656W        W41130   6.211   5.713  14.100 -0.1145 -0.2024  0.0523
24657W        W41131  13.381  13.219   1.076 -0.1897  0.0093 -0.0281
24658W        W41132   5.776  15.287  13.442 -0.3138 -0.0215 -0.0324
24659W        W41133  10.107  15.767   4.697 -0.2337  0.2212  0.0332
24660W        W41134  14.470   3.826   3.757 -0.1184  0.0495  0.2330
24661W        W41135  14.824  14.893  13.376 -0.0537  0.0979 -0.1518
24662W        W41136   0.962   6.249  12.684  0.2190 -0.1544  0.0246
24663W        W41137   2.501  13.435   0.488  0.0554  0.1771 -0.0301
24664W        W41138  17.417   0.562  13.839 -0.0018 -0.2064 -0.3188
24665W        W41139  14.185  13.926   4.916  0.2524 -0.0490  0.0390
24666W        W41140   5.424  14.230   1.643  0.0765  0.1454  0.0092
24667W        W41141  13.757   2.028   1.827 -0.1660  0.0986  0.0832
24668W        W41142   0.336   0.800   2.131 -0.1394 -0.0057 -0.0438
24669W        W41143   0.034  18.493   4.471 -0.0958 -0.0626  0.1581
24670W        W41144  12.004  13.263   3.633  0.3159  0.0111  0.0960
24671W        W41145  10.156  12.101  10.430  0.1967 -0.1644 -0.1031
24672W        W41146   4.289   7.013   4.940 -0.2115 -0.1675  0.1253
24673W        W41147  13.806  11.856   1.694 -0.1369 -0.0399 -0.2356
24674W        W41148  16.613   6.473   0.778 -0.3166  0.3578  0.0640
24675W        W41149   7.760   6.160  11.087 -0.0394  0.0392 -0.0289
24676W        W41150  16.374   3.410  12.362 -0.0797  0.0559 -0.0852
24677W        W41151  15.735   1.899  11.900 -0.0179 -0.1127 -0.2429
24678W        W41152  15.296  18.692  13.120 -0.1846 -0.0163 -0.0107
24679W        W41153   7.500   1.032  10.126  0.3728 -0.1365 -0.3411
24680W        W41154   2.141   1.439   3.681  0.0848  0.1655 -0.2019
24681W        W41155  16.448   3.769  12.709 -0.0272 -0.2040 -0.1240
24682W        W41156   2.110   8.768   2.630  0.2263 -0.2151 -0.5121
24683W        W41157   9.109  15.478  13.985  0.0319  0.1022 -0.0252
24684W        W41158  17.469   3.651  11.780  0.1745 -0.1235  0.1959
24685W        W41159   8.352   5.006  14.886  0.2087 -0.0406 -0.0740
24686W        W41160  12.345   4.841   0.052  0.1661 -0.1828 -0.0828
24687W        W41161   4.419  17.421   1.505 -0.3276  0.0557 -0.2093
24688W        W41162   5.566  12.150   0.285  0.2010 -0.0340  0.0391
24689W        W41163   8.029   2.647   2.124 -0.0599 -0.2013 -0.0294
24690W        W41164   3.042   1.677   0.794  0.4314 -0.2119  0.2737
24691W        W41165   6.902   0.969  12.079 -0.0129  0.1479  0.0161
24692W        W41166  10.239   9.452   3.828 -0.0880 -0.3254 -0.1342
24693W        W41167  10.023  13.325   9.303  0.0934 -0.0028 -0.1870
24694W        W41168  11.018   9.452   2.152 -0.0642 -0.1234 -0.0133
24695W        W41169  10.246  15.144   1.279 -0.0785 -0.4397  0.2474
24696W        W41170   1.313   0.822  11.296 -0.2123  0.2651 -0.0277
24697W        W41171   1.709   5.127  12.142  0.0646 -0.0247 -0.0912
24698W        W41172   1.292  10.051  10.310 -0.2651  0.2309  0.0427
24699W        W41173   2.071  15.319   4.133  0.1852 -0.3082  0.2980
24700W        W41174   8.830   1.983  12.586 -0.0486 -0.1468  0.0403
24701W        W41175   3.520  12.276   4.184  0.1612 -0.0214  0.1267
24702W        W41176  13.064  18.336  11.119 -0.0448  0.2481  0.0365
24703W        W41177   8.567  11.947   0.329 -0.0555  0.1629 -0.1564
24704W        W41178  10.554   6.522  13.634  0.2716 -0.3083 -0.1401
24705W        W41179  10.146  16.784   3.087 -0.0231  0.1266  0.0934
24706W        W41180  18.616   5.500   0.343  0.3448 -0.1315 -0.2159
24707W        W41181  13.422   1.153  12.824  0.1194 -0.1500  0.1673
24708W        W41182   5.227  12.329  12.291  0.0973  0.0406 -0.1230
24709W        W41183   1.789  16.131   2.772  0.1308 -0.0987  0.2062
24710W        W41184   1.419  19.354  10.942 -0.2324 -0.1761  0.4357
24711W        W41185  14.253  15.881  11.475  0.0775 -0.0685 -0.2433
24712W        W41186  17.645   5.845   1.446  0.0099 -0.0732 -0.1118
24713W        W41187  17.723  10.010   4.583  0.2467 -0.0973 -0.1797
24714W        W41188   7.922   4.314  11.722  0.0895  0.1332 -0.1617
24715W        W41189  14.463  11.298   3.398 -0.1958  0.0596 -0.1026
24716W        W41190  17.481   0.353   4.859 -0.3149  0.3296  0.2758
24717W        W41191  14.514   6.376  11.048 -0.1862  0.0324 -0.1087
24718W        W41192   4.576   4.655   0.561  0.3387  0.2191  0.1335
24719W        W41193  10.265   9.611  13.211 -0.1058 -0.1512 -0.2307
24720W        W41194   0.832  11.873   5.525  0.2188 -0.2458 -0.4021
24721W        W41195  13.122  13.598   2.076 -0.1014  0.5042  0.1899
24722W        W41196   6.226  16.633  13.194  0.2000 -0.1051  0.2815
24723W        W41197   1.299   8.827   4.484 -0.2301  0.1967 -0.0749
24724W        W41198  13.593   1.487  10.608  0.2251  0.3628  0.0519
24725W        W41199   1.375   5.015   1.120  0.2133 -0.2510 -0.0620
24726W        W41200  13.942   2.072   1.195  0.0908  0.1317 -0.0851
24727W        W41201  18.821  15.756   3.551 -0.2502 -0.0957  0.4512
24728W        W41202  10.061   9.112  10.746  0.1058  0.3104 -0.1261
24729W        W41203   6.248   3.818  12.611 -0.3064 -0.2353 -0.0354
24730W        W41204  17.258  12.614   2.064  0.0532 -0.0591  0.0613
24731W        W41205   6.407   2.945   2.132  0.1236 -0.0554 -0.1151
24732W        W41206   1.002   6.911   1.015  0.2533  0.4039 -0.0456
24733W        W41207  14.045   4.723   0.675  0.3730  0.0614 -0.0731
24734W        W41208  17.456  13.055   3.321 -0.0749  0.0298 -0.1707
24735W        W41209   6.113  11.288  13.129  0.2530 -0.3782  0.0262
24736W        W41210   7.083   4.601  12.649 -0.1289  0.3367  0.0492
24737W        W41211   9.286  12.013  14.714  0.4437 -0.1384  0.2148
24738W        W41212  11.766   8.234  13.834 -0.0815 -0.3205 -0.1015
24739W        W41213  15.182   2.034   0.398 -0.0774 -0.0709  0.0520
24740W        W41214  11.148  13.444  10.729 -0.1909  0.2961 -0.2600
24741W        W41215   7.514   5.807  12.141 -0.1014 -0.2909  0.1138
24742W        W41216   4.111   7.153  14.775 -0.0281  0.0587  0.4527
24743W        W41217   3.665   0.158   1.250  0.1516  0.1572 -0.1160
24744W        W41218   8.342  16.325  11.821 -0.1239 -0.1001  0.1103
24745W        W41219  12.944  12.095   3.288  0.3191 -0.3052  0.0691
24746W        W41220  18.850   3.541  12.062  0.1403 -0.1520 -0.2458
24747W        W41221  15.050  10.820   2.191 -0.1265  0.2603 -0.0425
24748W        W41222  14.301  18.035  11.782 -0.1446 -0.0709 -0.1424
24749W        W41223  11.260   4.221   5.198 -0.1438  0.1044  0.0145
24750W        W41224   9.945  16.116  10.383  0.2196 -0.2825 -0.0847
24751W        W41225  13.119   5.026   1.703 -0.1378  0.0077 -0.0084
24752W        W41226  10.708  13.564  11.011 -0.0010  0.0069 -0.1023
24753W        W41227   1.185   3.762  12.476 -0.1180  0.0102  0.0644
24754W        W41228   3.547   6.143   0.689  0.1182  0.0199  0.0286
24755W        W41229  17.427   3.194   5.058  0.1242  0.2203  0.0406
24756W        W41230  17.940   1.051  13.710 -0.2415  0.0680  0.0984
24757W        W41231  12.613   9.916  14.230  0.2603  0.0985  0.1359
24758W        W41232  18.118   8.077  12.859 -0.0393  0.0031  0.2161
24759W        W41233   0.755  16.991  11.778 -0.1110 -0.5192 -0.2130
24760W        W41234   3.483  11.753   3.290  0.1889  0.1865  0.1099
24761W        W41235  14.177  16.192   5.597 -0.1459 -0.4176 -0.1960
24762W        W41236  11.859   0.445   0.261 -0.0833 -0.1529 -0.0358
24763W        W41237   1.943  13.996  13.479  0.1747 -0.1046 -0.0097
24764W        W41238   7.570   9.188  14.597 -0.0192 -0.0956 -0.2612
24765W        W41239   7.034  15.514   5.802  0.0546  0.1145  0.2033
24766W        W41240   7.165   2.442   3.119  0.0181 -0.0581 -0.1130
24767W        W41241   0.400   8.463   0.623  0.2309 -0.0375  0.3311
24768W        W41242   1.058   8.184  10.720 -0.2078 -0.2209 -0.0888
24769W        W41243  15.687  18.208   3.003 -0.3953  0.2331 -0.0499
24770W        W41244  11.252   3.240   3.270  0.0827  0.4104  0.0225
24771W        W41245  18.549  11.655  12.073  0.0843 -0.2159  0.1594
24772W        W41246  17.255   8.670  13.486 -0.0179  0.1933  0.1654
24773W        W41247  16.938   2.018  10.553 -0.1104 -0.2775 -0.2388
24774W        W41248  10.180  15.051   4.620 -0.1153  0.0380  0.2695
24775W        W41249  17.868   9.796   3.220 -0.1509  0.0529  0.2437
24776W        W41250   3.315  10.224  14.548  0.2128 -0.1229  0.0568
24777W        W41251   6.701   1.135  12.576  0.0321 -0.1116  0.1964
24778W        W41252  12.244   0.497   3.912  0.1867 -0.3398  0.1496
24779W        W41253  15.302  17.024   2.165 -0.2305  0.6258 -0.1573
24780W        W41254   2.068  16.172   0.971 -0.0919 -0.4282 -0.2619
24781W        W41255  13.720   8.403   1.137  0.2153  0.0682 -0.2071
24782W        W41256  17.887  18.942   3.206  0.1714  0.0944  0.1922
24783W        W41257  11.676   2.603  13.324 -0.1466 -0.0390  0.0986
24784W        W41258  18.426   4.232  11.099  0.0496 -0.1678 -0.1997
24785W        W41259   0.216   3.566   3.709  0.0308  0.3942 -0.2424
24786W        W41260   2.566   1.598   1.578  0.2437  0.0908 -0.2426
24787W        W41261   0.391  18.349   0.055  0.1950 -0.0471 -0.2774
24788W        W41262   0.783  16.393   0.127  0.4154 -0.0323 -0.1429
24789W        W41263  18.310   6.773   2.393  0.1352  0.2443  0.4819
24790W        W41264   4.426  17.555  13.330  0.0495  0.0694 -0.1671
24791W        W41265  18.284  13.350   3.043  0.2185  0.2102  0.2360
24792W        W41266  13.632  13.401   3.763  0.0201 -0.0184  0.1689
24793W        W41267   8.839   0.114   9.330  0.0752 -0.0085  0.0436
24794W        W41268   3.641   2.902   2.348 -0.1901 -0.2392 -0.1281
24795W        W41269  10.040   1.257   4.123 -0.1569 -0.1239  0.2262
24796W        W41270  12.409   7.942   2.391  0.1498 -0.0073 -0.0086
24797W        W41271   6.541  19.251   3.468  0.3823 -0.1482  0.0458
24798W        W41272  18.617  10.994   0.589 -0.1773 -0.2632 -0.0732
24799W        W41273   2.514   3.147  11.216  0.1160 -0.0823  0.1830
24800W        W41274  14.149  12.308   4.653  0.1444  0.1387  0.1176
24801W        W41275   2.859   8.008  13.300  0.3919  0.2389  0.0638
24802W        W41276  14.388  17.790  14.529 -0.0511  0.4129 -0.4441
24803W        W41277   2.267   8.328   0.560 -0.2741  0.1927 -0.0077
24804W        W41278   9.285  16.057   9.409  0.3101  0.0118 -0.0647
24805W        W41279   1.191   9.456  13.888 -0.1503  0.0732  0.0288
24806W        W41280   1.932   1.423  11.892  0.0720  0.1832 -0.0329
24807W        W41281   5.109   9.895   2.141  0.0504 -0.0013  0.1838
24808W        W41282   2.855  16.154  11.064  0.0012 -0.1193  0.1955
24809W        W41283   3.490   9.198   9.623  0.1085  0.1311 -0.1074
24810W        W41284   3.194   2.653  12.906 -0.1201 -0.0317  0.1176
24811W        W41285  17.748  17.733  14.294  0.3648 -0.2463  0.0969
24812W        W41286   1.389   7.868   1.027  0.1187 -0.2090 -0.0054
24813W        W41287   6.907   3.571   1.787 -0.1158 -0.0001  0.1912
24814W        W41288   2.400   1.928  13.960 -0.3236  0.1572  0.0694
24815W        W41289   7.972  13.045   3.724  0.1073 -0.4166  0.0996
24816W        W41290   1.460  18.182   2.913 -0.5731 -0.2847  0.0551
24817W        W41291  13.436  17.212   1.417  0.0907  0.2411 -0.0490
24818W        W41292  17.548   6.129   3.196 -0.2549 -0.3926 -0.0657
24819W        W41293  12.065   0.277  12.944  0.2153 -0.0665  0.2299
24820W        W41294   6.175   4.369   3.728  0.1806  0.0606  0.0452
24821W        W41295   8.905  14.320   4.598  0.2872 -0.0573 -0.0595
24822W        W41296   6.909   1.184  13.058 -0.0582 -0.2115 -0.1268
24823W        W41297   7.797   2.290   9.815  0.2002  0.0282 -0.3356
24824W        W41298  15.209  13.584   4.838 -0.2760  0.2544  0.1969
24825W        W41299   3.345   2.981  13.305  0.1985 -0.0265  0.0398
24826W        W41300  13.976  15.391  13.686  0.1655  0.0094  0.2285
24827W        W41301   2.755  10.444  10.883  0.1557  0.1878 -0.0182
24828W        W41302   2.220  14.220   4.412  0.1202 -0.1256  0.1002
24829W        W41303   0.342   8.424  13.690 -0.2412 -0.0397  0.0271
24830W        W41304  15.899   6.960   1.691  0.0504  0.1934 -0.2059
24831W        W41305  17.329  16.396  14.769 -0.3451  0.2257  0.1232
24832W        W41306   7.643   3.763  13.707  0.4816 -0.0607  0.2584
24833W        W41307  17.404  14.797   2.241 -0.1209  0.0043 -0.3009
24834W        W41308  14.417  16.697  11.723  0.1061  0.0875 -0.2028
24835W        W41309  13.482   9.314   4.284  0.0663  0.1133 -0.0412
24836W        W41310  16.511   8.333   4.881  0.1113 -0.0405 -0.1111
24837W        W41311  13.509   6.404  11.011  0.1470 -0.3504 -0.2387
24838W        W41312  10.835   5.219   3.020 -0.3317 -0.2533  0.1648
24839W        W41313   5.106   1.995  10.248  0.1064  0.1330  0.0186
24840W        W41314   9.372  15.330   2.469  0.2677 -0.1463 -0.1036
24841W        W41315   2.516  10.117  11.152 -0.3195  0.2387  0.2648
24842W        W41316  19.373   8.061   5.462  0.2093  0.1983 -0.1492
24843W        W41317   2.452   8.087   4.276  0.0298 -0.1617 -0.0064
24844W        W41318   6.682   7.397  14.676 -0.0038 -0.0303  0.0580
24845W        W41319  11.460   1.506   5.493  0.0186 -0.0697 -0.4476
24846W        W41320  17.611   5.976   4.268 -0.3342  0.0107  0.2094
24847W        W41321  13.531   8.741   5.089  0.1437 -0.0247  0.2141
24848W        W41322  18.547   3.196   3.930  0.0977  0.2434 -0.0647
24849W        W41323  12.458   1.007  14.871 -0.2021  0.1479 -0.0514
24850W        W41324  11.047  19.262   1.489  0.3955 -0.1029 -0.1156
24851W        W41325  19.073  10.314  14.749 -0.0355 -0.0247  0.2443
24852W        W41326  10.357   7.067   1.106 -0.3452 -0.2598  0.1386
24853W        W41327  18.351  14.214  10.420 -0.0166 -0.0100  0.0634
24854W        W41328   8.285  14.972   1.075  0.2474 -0.1499 -0.0012
24855W        W41329   8.513   2.767  11.388  0.0414 -0.0760  0.1841
24856W        W41330   0.481   9.389  13.572 -0.1928  0.0000 -0.0745
24857W        W41331  17.927  12.175  13.380  0.0425  0.1264 -0.1657
24858W        W41332  15.109   1.375   2.850  0.0919 -0.0510  0.0514
24859W        W41333  12.334   6.763  13.417 -0.1059  0.5418  0.1273
24860W        W41334  13.260   3.852   0.482  0.1779  0.0730 -0.2320
24861W        W41335  17.318   4.663  13.781 -0.2444  0.0128  0.3918
24862W        W41336  11.531  13.019   2.935 -0.0144  0.0293  0.0494
24863W        W41337   0.346   0.875  13.207  0.0827  0.0802 -0.0395
24864W        W41338  15.822  14.604   3.505  0.2204 -0.0855  0.4518
24865W        W41339  17.354   4.395  11.314  0.0952  0.1059 -0.1010
24866W        W41340   5.175   2.311  14.376 -0.1542 -0.3154 -0.0284
24867W        W41341  13.525  15.386   2.068  0.1629 -0.4816 -0.0792
24868W        W41342  12.373   9.112  13.767  0.2729  0.2069 -0.3016
24869W        W41343  16.083  17.841   5.366 -0.1946 -0.0543  0.1466
24870W        W41344   0.049  13.538   2.372 -0.1197  0.2751 -0.0100
24871W        W41345  10.312  12.033   2.787  0.2627 -0.3188 -0.2861
24872W        W41346  10.146   6.012  12.378 -0.1463 -0.1604  0.1070
24873W        W41347   9.197  14.130  14.322  0.1196 -0.1816  0.1915
24874W        W41348   1.337   8.306   0.189  0.0881 -0.0371  0.0701
24875W        W41349   5.928   6.444   3.336  0.1475 -0.1133  0.2619
24876W        W41350   5.676   8.705  12.012 -0.0669  0.0616  0.0765
24877W        W41351   4.843  16.710   3.602 -0.0684 -0.2567 -0.0236
24878W        W41352   7.548   8.620   1.421  0.1492 -0.0537  0.2423
24879W        W41353   5.683  17.038   5.535  0.3440 -0.0050  0.1345
24880W        W41354  10.130   8.808  12.091  0.0896 -0.0296  0.2210
24881W        W41355  11.578   9.516   0.856 -0.0391  0.0792  0.3004
24882W        W41356   7.027  11.045  13.249  0.0009  0.1981 -0.1400
24883W        W41357  12.933  11.397  12.656  0.1528  0.2255  0.4241
24884W        W41358  16.570   8.246  14.517 -0.3949 -0.1160 -0.0041
24885W        W41359   9.642   5.761   0.335  0.4901  0.0164 -0.2649
24886W        W41360  11.510  19.000  13.307  0.0334 -0.1056  0.2458
24887W        W41361  13.046  18.388   4.076  0.0395  0.2651  0.3974
24888W        W41362   3.834   2.564   0.621 -0.0974 -0.4770  0.2512
24889W        W41363  19.040  13.426   0.135  0.2692  0.0741  0.2119
24890W        W41364  10.431   1.004  13.118  0.1720  0.1496  0.0510
24891W        W41365  11.330   1.923  14.473  0.4374 -0.1728 -0.0374
24892W        W41366  10.289  10.591  11.767  0.3065  0.4108  0.1091
24893W        W41367   9.326   6.861  12.425 -0.0210  0.0008  0.0458
24894W        W41368   4.411   0.269  11.748  0.0590 -0.0331 -0.0185
24895W        W41369  14.866   8.120  10.247 -0.2018  0.0445  0.1252
24896W        W41370  18.500   7.391  12.024  0.1475  0.3341 -0.1213
24897W        W41371   2.627  14.263   4.140 -0.1941  0.0232  0.0152
24898W        W41372   0.272  10.853   9.532 -0.2655 -0.1260 -0.2326
24899W        W41373  18.338  18.732   1.992  0.1312 -0.0369 -0.0395
24900W        W41374   2.931   5.912  13.801  0.0109 -0.1932 -0.3388
24901W        W41375  18.297   4.823   1.953 -0.0695 -0.2111  0.1021
24902W        W41376   0.355   6.954   0.004 -0.4350 -0.0551 -0.0447
24903W        W41377   2.227   5.420  13.867  0.0271  0.0332  0.0987
24904W        W41378   5.781   8.080   2.966 -0.2293  0.2676 -0.0335
24905W        W41379   3.599   2.909   9.838  0.2126  0.1275 -0.1063
24906W        W41380  17.349  10.947   4.638 -0.2394 -0.2225  0.2400
24907W        W41381  14.990  17.516   3.915 -0.1866 -0.0816 -0.4412
24908W        W41382   9.072  18.784   1.093  0.0235 -0.0211  0.3210
24909W        W41383   2.459  16.748  14.132  0.2980 -0.2117 -0.0755
24910W        W41384   5.056   5.326   0.776 -0.5054 -0.3146 -0.0295
24911W        W41385  11.422   7.272  12.378 -0.0181 -0.1069  0.2517
24912W        W41386   2.675   9.497  14.336  0.0637 -0.1059 -0.3645
24913W        W41387   7.664   1.310   0.299 -0.0309 -0.3027 -0.0631
24914W        W41388  11.146  18.845   0.655 -0.1554  0.2596  0.2141
24915W        W41389   8.845   3.488  11.947 -0.1247 -0.0545 -0.1671
24916W        W41390  15.949   5.020   2.650  0.1469  0.0070  0.1969
24917W        W41391   0.279  16.572   2.405 -0.2253  0.5219  0.3833
24918W        W41392  14.013   0.465   4.434 -0.0679 -0.1145  0.1386
24919W        W41393  17.705  12.260   0.880  0.0638  0.0184 -0.0274
24920W        W41394   2.570   7.790   1.307  0.0024  0.0543  0.2485
24921W        W41395  14.483  13.593  13.825  0.1036 -0.0979 -0.1850
24922W        W41396   3.758   1.680  11.649  0.5437  0.4441  0.0863
24923W        W41397   2.875   5.308   1.703 -0.1107  0.1586 -0.1244
24924W        W41398   6.084  11.814   0.822  0.2057 -0.0796  0.2682
24925W        W41399   6.100   6.655   0.285  0.1076  0.0301 -0.0752
24926W        W41400   4.663   9.262   0.324  0.2852  0.0393 -0.4084
24927W        W41401  18.130  14.019   3.037  0.1055  0.0408 -0.2097
24928W        W41402   9.985   4.669  11.024 -0.4013 -0.1662 -0.2200
24929W        W41403  12.952  13.194   2.459  0.0797 -0.2578 -0.1135
24930W        W41404  14.556  11.989   1.726 -0.0216 -0.1603 -0.1626
24931W        W41405   2.596   7.245   1.776 -0.3236  0.2541 -0.1526
24932W        W41406  12.362   4.867   2.147  0.1079 -0.0724  0.1057
24933W        W41407   3.670  12.801   3.820  0.0564 -0.0507 -0.0133
24934W        W41408  13.780  11.000   1.184 -0.0694  0.1434  0.0248
24935W        W41409  16.911  15.941   2.730 -0.4065 -0.0987 -0.1591
24936W        W41410  14.788   1.310  11.991  0.2204 -0.0727  0.0424
24937W        W41411   3.719   9.966  11.476  0.1573 -0.1297 -0.1049
24938W        W41412  17.118   0.943   2.667  0.3169 -0.0366  0.2659
24939W        W41413  17.959  13.532   4.534  0.0377 -0.0125 -0.0974
24940W        W41414   9.716  13.735   0.634  0.0487  0.0063  0.0397
24941W        W41415  12.498  10.136   4.430  0.5213 -0.2284  0.0054
24942W        W41416   5.819  19.041  14.217 -0.1865 -0.2279  0.0009
24943W        W41417  19.353  19.070  13.809 -0.1593 -0.0020 -0.3062
24944W        W41418   8.650  18.286   0.487  0.2618 -0.3081  0.1306
24945W        W41419  17.631  10.930  12.205  0.0153 -0.1964  0.1931
24946W        W41420  12.759  16.279   2.094  0.1719  0.0702  0.1072
24947W        W41421   0.042  18.870   1.334 -0.0252 -0.1475 -0.0152
24948W        W41422  17.173  10.539   2.670  0.0547  0.0289  0.0301
24949W        W41423   2.078   3.072   5.284  0.1889 -0.3157 -0.0408
24950W        W41424   0.231   8.549   5.875 -0.0248  0.1276 -0.1927
24951W        W41425  12.341   8.764  12.899 -0.2000  0.2562  0.0946
24952W        W41426   6.198  18.330   3.143 -0.0980  0.1891  0.0853
24953W        W41427  15.778  18.972   2.409  0.3946 -0.2247 -0.1711
24954W        W41428   7.208  13.616   3.353 -0.0453 -0.3569 -0.0141
24955W        W41429   9.921   8.501  11.717  0.2018  0.4691 -0.3543
24956W        W41430   8.242   9.863   0.964 -0.0115 -0.0217  0.0858
24957W        W41431  13.076   7.598  10.344 -0.5185 -0.1923 -0.0466
24958W        W41432  11.260   3.900  10.796  0.1955  0.1068 -0.0066
24959W        W41433   2.173  18.192  12.676 -0.0563  0.0053  0.0694
24960W        W41434  11.046  17.571   5.693 -0.2368 -0.1190  0.1994
24961W        W41435  13.369   0.170   3.380  0.2679 -0.1829 -0.1749
24962W        W41436   2.199  14.596  12.728  0.2985  0.1246  0.0003
24963W        W41437   4.673  18.951   3.317 -0.2463  0.0855  0.0399
24964W        W41438  13.811  16.838   5.005  0.0450 -0.2816 -0.0330
24965W        W41439  15.745  11.866  14.077  0.1728  0.0177  0.0731
24966W        W41440   5.813  12.894   1.491 -0.1274  0.0986 -0.0234
24967W        W41441  10.399   8.207   8.960  0.1798  0.1750  0.0075
24968W        W41442  10.925  14.109   3.469 -0.1051 -0.2915  0.1430
24969W        W41443   5.360   1.191  13.739 -0.0236 -0.0182  0.0118
24970W        W41444  12.302  15.753   2.586 -0.1096 -0.3607 -0.1273
24971W        W41445   6.650  19.106   2.708 -0.1985  0.2530  0.0113
24972W        W41446   2.465   1.823  11.040 -0.2078 -0.0449  0.0005
24973W        W41447  11.237  14.404   0.926 -0.0178  0.0778  0.0130
24974W        W41448   6.079   5.225  11.885 -0.0267  0.0482 -0.0915
24975W        W41449   8.495   0.869  13.310 -0.1150 -0.1489 -0.2445
24976W        W41450  13.526  16.242  13.958 -0.5002 -0.0466  0.2090
24977W        W41451  14.540   9.013   0.881 -0.0175  0.1194 -0.2502
24978W        W41452  17.997  19.024   5.797 -0.0088  0.2210  0.1745
24979W        W41453   3.403   6.442   0.266 -0.4889  0.2214 -0.4374
24980W        W41454   2.186  16.494  13.021  0.1119 -0.0044  0.0767
24981W        W41455   6.930   1.185  14.546  0.2485  0.1885  0.2036
24982W        W41456  17.575  15.522   5.217  0.0684 -0.0114  0.0178
24983W        W41457  14.638  12.322  14.103 -0.0402  0.1172 -0.0054
24984W        W41458  11.749   5.880  13.071  0.3395 -0.0120 -0.1794
24985W        W41459  17.859   0.770   0.550 -0.0526 -0.2610  0.0041
24986W        W41460  11.937  10.284   3.869 -0.1251 -0.0711  0.1358
24987W        W41461   3.751   3.242  14.714 -0.4725 -0.1018 -0.0240
24988W        W41462   2.551   5.141   2.788 -0.2618 -0.2118 -0.0523
24989W        W41463  18.463   0.949  12.416  0.1406  0.1212 -0.1379
24990W        W41464  14.316   0.776   2.462 -0.0048  0.0443 -0.1413
24991W        W41465  16.619  16.480  12.461 -0.3465 -0.0281  0.0105
24992W        W41466   1.965  16.151  12.120  0.1462  0.0369 -0.0167
24993W        W41467   3.979  13.129  11.983 -0.1509  0.4417  0.0009
24994W        W41468  12.732   9.610  11.758 -0.1119 -0.3453 -0.1017
24995W        W41469   6.130  11.069   1.544  0.2118 -0.0139 -0.0825
24996W        W41470   3.411  15.194   0.923  0.0177  0.0547 -0.0589
24997W        W41471  14.462  12.160   5.588 -0.1442 -0.1649  0.1227
24998W        W41472  13.839   4.347  10.455  0.0627 -0.1420  0.0319
24999W        W41473  18.146  16.317  13.021  0.1478  0.1291 -0.0060
25000W        W41474   0.459  14.325  13.120 -0.3633  0.1839  0.0922
25001W        W41475  16.675  11.518   2.589  0.2081 -0.2243  0.4342
25002W        W41476   0.236   8.437  12.535  0.1275  0.0055 -0.0032
25003W        W41477  14.434  18.057  13.966 -0.0210 -0.0208  0.0096
25004W        W41478   7.834   7.438  11.866 -0.3859  0.2209 -0.2057
25005W        W41479   3.086  12.279   4.476  0.2100  0.0287 -0.1312
25006W        W41480  16.935   4.626   1.614 -0.0242 -0.3188 -0.2442
25007W        W41481   0.892  14.699   4.270 -0.3435 -0.1707 -0.0923
25008W        W41482  10.077   2.067  14.097 -0.2644 -0.1121 -0.2154
25009W        W41483  16.098   6.331  11.606  0.1097 -0.3982 -0.0174
25010W        W41484   1.292  16.425  10.260  0.1748  0.1630 -0.0906
25011W        W41485   8.941   4.899   1.267 -0.1441 -0.0147 -0.5690
25012W        W41486  14.493   1.693   9.339 -0.2147 -0.0956  0.0624
25013W        W41487   0.203   4.333  10.966  0.0965 -0.0792 -0.0758
25014W        W41488   4.025   4.834   3.528 -0.1135  0.1523 -0.2098
25015W        W41489  12.639   9.537   1.832  0.0057 -0.1281 -0.2716
25016W        W41490   5.663   9.499   4.088 -0.0127  0.0800 -0.3442
25017W        W41491  12.555  16.236  10.584 -0.0865 -0.3535  0.0098
25018W        W41492  15.927  16.273   2.588 -0.0118  0.1148  0.0324
25019W        W41493   3.912   6.376   0.235  0.2047 -0.1093 -0.2041
25020W        W41494  13.625  10.026   3.053 -0.0325 -0.1557  0.2396
25021W        W41495   1.044  11.862   3.571 -0.1393  0.1505 -0.1653
25022W        W41496  17.638   7.850   4.796 -0.0031 -0.0390  0.0450
25023W        W41497  13.785   5.600  11.474 -0.0240 -0.1212 -0.3232
25024W        W41498  10.762   2.334  11.099 -0.3045 -0.2006 -0.2937
25025W        W41499  11.648   1.449  11.099 -0.1296  0.1814 -0.2722
25026W        W41500   6.803  15.301   1.985 -0.0875 -0.1417  0.1751
25027W        W41501   7.709   9.023   9.829 -0.0241 -0.1451 -0.1554
25028W        W41502   1.580   2.152  11.803 -0.1524  0.3477  0.0687
25029W        W41503  12.989  17.798   3.471  0.0372 -0.4709  0.0472
25030W        W41504   6.272  13.357   1.714 -0.0487 -0.1354  0.0784
25031W        W41505  18.236   7.778   5.352 -0.0361 -0.1859 -0.0445
25032W        W41506   7.838   6.284   3.348 -0.0544  0.0315 -0.2763
25033W        W41507   3.720  10.396   9.817  0.1605  0.1126 -0.1595
25034W        W41508  11.228   5.396  13.551 -0.3947 -0.2577 -0.2160
25035W        W41509   1.826   7.406  12.648 -0.0929 -0.1991  0.1955
25036W        W41510   9.377   0.698   1.931  0.2578 -0.1841  0.6473
25037W        W41511   7.459   9.670   3.649  0.1881 -0.1177  0.1010
25038W        W41512   0.714   1.506   1.048 -0.2094 -0.3360  0.4445
25039W        W41513  14.109   8.881   2.624 -0.2307  0.0393 -0.0804
25040W        W41514  15.619  15.407   1.007  0.1384 -0.1278  0.1200
25041W        W41515  13.819  14.515  11.721 -0.2626  0.3009  0.0625
25042W        W41516  17.596   5.065   1.972 -0.0776  0.1908 -0.1460
25043W        W41517  17.911   4.003  10.783  0.1593  0.1208 -0.1014
25044W        W41518   0.107   4.518   4.596  0.2555  0.0728  0.1648
25045W        W41519   8.944  14.099   1.870  0.0319 -0.1869  0.0542
25046W        W41520   2.471  17.764  10.144  0.1214 -0.1289  0.0250
25047W        W41521   1.204  11.732  11.713  0.3374  0.0360 -0.1184
25048W        W41522   2.271   9.187  10.530 -0.2506 -0.0949  0.1531
25049W        W41523  17.320   4.339   1.157  0.0448  0.0088 -0.2589
25050W        W41524   5.191   8.133   2.848  0.0732  0.2980 -0.3353
25051W        W41525   5.329  17.348  13.629 -0.1287  0.0056 -0.3136
25052W        W41526  14.589  11.861   4.154  0.0630  0.0425 -0.0129
25053W        W41527   4.957  17.031  14.120 -0.0333  0.0689  0.1191
25054W        W41528   9.666   2.429   4.668 -0.1266  0.1132 -0.2417
25055W        W41529  15.518   2.112   2.290  0.0733 -0.0015  0.2395
25056W        W41530   0.109  17.523   1.421 -0.3563 -0.1281 -0.1268
25057W        W41531   1.089   5.598  11.249  0.0367 -0.0675  0.0468
25058W        W41532  11.706  12.677   2.139 -0.1361 -0.0007  0.1839
25059W        W41533  15.124   3.606   3.546 -0.1467 -0.0439 -0.0852
25060W        W41534  18.736   8.526  11.231  0.0094 -0.0153  0.1197
25061W        W41535   8.012  15.853   3.686  0.0651 -0.1788  0.2037
25062W        W41536   4.142   2.991  11.403  0.1024  0.1780 -0.3231
25063W        W41537  10.913  16.346   3.500  0.3501 -0.1854 -0.4568
25064W        W41538  11.155   1.940   0.206  0.1400  0.0307  0.0474
25065W        W41539  18.881  12.149  11.224 -0.3874  0.0654 -0.1021
25066W        W41540   7.976   5.664  10.210 -0.0816 -0.1018 -0.0565
25067W        W41541  13.257  14.476   0.944 -0.0068  0.2914 -0.2447
25068W        W41542   5.201  12.720   1.100  0.0510 -0.3859  0.1364
25069W        W41543   1.194   5.519  14.075 -0.1774  0.2029  0.2711
25070W        W41544   2.330  11.102   3.464 -0.2418  0.2612  0.1257
25071W        W41545  10.100   1.973   3.369 -0.5013 -0.1125 -0.0507
25072W        W41546  11.534  15.790   3.987  0.1381  0.0732  0.0771
25073W        W41547  15.304   9.756   0.167  0.0917  0.3256 -0.0667
25074W        W41548   2.434   6.239   3.993  0.0345 -0.0386  0.2094
25075W        W41549  14.155   6.824   4.783 -0.1980  0.0758 -0.2305
25076W        W41550  19.104   7.343  10.753 -0.3139  0.1813 -0.2921
25077W        W41551  17.671  14.367   2.933 -0.0654  0.1555 -0.0304
25078W        W41552   6.396   9.944   3.001  0.1698  0.0127 -0.0337
25079W        W41553   3.632   9.916  11.949 -0.2096  0.4917 -0.2706
25080W        W41554   0.457  14.878   9.631  0.0725 -0.1727 -0.2144
25081W        W41555   8.287   4.322   3.464  0.3963 -0.2419 -0.1872
25082W        W41556   2.191   2.166   5.070 -0.0173 -0.2040  0.0387
25083W        W41557   5.307   0.187   5.029  0.1526  0.1285 -0.1626
25084W        W41558  19.246  13.479   1.635  0.0506 -0.0709  0.0268
25085W        W41559  17.186  17.091   5.314 -0.1136  0.0559 -0.0816
25086W        W41560  17.591   3.028   4.612 -0.2271 -0.0507 -0.2253
25087W        W41561   1.690  16.685   3.247  0.1913  0.4175 -0.1777
25088W        W41562  17.201  17.895   0.724  0.1933 -0.1734  0.0594
25089W        W41563   8.729   4.926   4.084 -0.2202  0.1383 -0.1561
25090W        W41564   1.652   9.717   5.104  0.0629 -0.0556 -0.0282
25091W        W41565   1.675   7.409   3.733 -0.3031 -0.1032 -0.4031
25092W        W41566  14.250   4.764   3.191 -0.3432 -0.2783  0.0613
25093W        W41567   0.771   2.723  12.243  0.1186  0.1312  0.0147
25094W        W41568  17.195  12.572   5.060  0.2348 -0.1177  0.0274
25095W        W41569  14.858  11.454   2.662 -0.0618  0.2743  0.0043
25096W        W41570   4.410   4.623   1.102  0.0935 -0.4386  0.4086
25097W        W41571   2.828   5.710   3.247 -0.1571 -0.0965  0.0699
25098W        W41572  10.118  17.712  13.935  0.0680  0.1630  0.1494
25099W        W41573   9.465   7.032   0.023 -0.1527  0.2507 -0.1112
25100W        W41574  14.686  10.919  13.052  0.2137 -0.2820  0.1597
25101W        W41575  14.569   3.175  11.866 -0.1675  0.1607  0.2856
25102W        W41576   5.836   0.816  11.314  0.1288  0.2638  0.0260
25103W        W41577   4.539   0.545   4.072 -0.4096  0.0034 -0.1899
25104W        W41578  15.370   2.653  14.471 -0.0626  0.2756  0.2219
25105W        W41579  17.184   0.399  14.674  0.1831 -0.0073  0.2104
25106W        W41580  16.703  16.386   4.531 -0.0338  0.3095 -0.0499
25107W        W41581  15.025  13.324  11.085 -0.1231 -0.1055 -0.0592
25108W        W41582  14.433  13.752  12.494 -0.0253 -0.0534  0.0577
25109W        W41583   5.398  10.097  10.819  0.3583 -0.0147 -0.3385
25110W        W41584   1.214   6.797  10.875 -0.3036  0.1026  0.1297
25111W        W41585   0.203   1.546   1.802  0.0672 -0.3197 -0.2320
25112W        W41586   2.328   4.226   1.847 -0.2523  0.0224  0.0800
25113W        W41587   6.900   3.088   2.181  0.2229  0.3733 -0.2568
25114W        W41588  16.994  16.726   0.037 -0.1458  0.0409 -0.0428
25115W        W41589  18.903  12.565   3.053  0.0336  0.2899  0.1242
25116W        W41590   0.504   7.446   3.546  0.0281 -0.1101 -0.1036
25117W        W41591   8.274  14.145  12.641  0.4309 -0.2948  0.1547
25118W        W41592   5.674  12.103   3.528 -0.0077  0.0719 -0.0662
25119W        W41593  13.482   8.320  13.877  0.3835 -0.3156  0.0944
25120W        W41594   7.723   2.532  13.435 -0.0638  0.0150  0.2448
25121W        W41595   8.868   8.346   0.893  0.1746  0.3488 -0.2390
25122W        W41596  18.574  18.432  12.558  0.2807  0.0113  0.4748
25123W        W41597   0.723  15.649   2.001  0.3479 -0.0897  0.1316
25124W        W41598  13.993  15.002   2.545 -0.4578 -0.3104 -0.0538
25125W        W41599   1.997  17.447   5.381  0.1878  0.0109 -0.1454
25126W        W41600  15.071   0.087  14.829 -0.0253  0.1078  0.0046
25127W        W41601   5.340   6.308  12.261 -0.2288 -0.1713 -0.3210
25128W        W41602  16.141  13.280  12.379 -0.0956 -0.0113 -0.0187
25129W        W41603   0.653   4.903  12.955  0.0956 -0.3007  0.0358
25130W        W41604   0.858   3.224   4.418 -0.2260  0.1339  0.0865
25131W        W41605   8.363  15.447   3.930 -0.2951 -0.3670 -0.1959
25132W        W41606  13.913   1.268  12.728 -0.3240  0.2537  0.1835
25133W        W41607   3.529  13.203   2.829  0.2663  0.3444  0.1566
25134W        W41608  10.612   0.437  11.058  0.1253  0.1758  0.1612
25135W        W41609   2.247  12.228   2.771 -0.2761 -0.4196  0.0200
25136W        W41610   1.238   6.625  12.359 -0.1058 -0.1642 -0.2861
25137W        W41611   6.953   7.327   3.553 -0.0401  0.0062 -0.0369
25138W        W41612  11.769   2.520   2.697 -0.0825 -0.1562  0.3577
25139W        W41613  18.880   5.825  10.452 -0.0827 -0.3523 -0.1372
25140W        W41614  11.112   3.415  14.113  0.0776 -0.0485 -0.0701
25141W        W41615  16.032   9.230   9.636  0.2179 -0.0341  0.2587
25142W        W41616   4.627   6.237   0.699 -0.3298 -0.0994 -0.0202
25143W        W41617   5.201  14.851  12.162  0.3093  0.0315 -0.0461
25144W        W41618   9.544  12.978   0.419 -0.2708  0.2927 -0.1006
25145W        W41619   3.141  16.779   4.503 -0.1986 -0.2472  0.1968
25146W        W41620   6.135  15.570   3.428 -0.2430 -0.3307 -0.0752
25147W        W41621  19.275   6.977   0.158  0.1023 -0.2003  0.0661
25148W        W41622  18.668  13.727   3.821  0.1332 -0.0505  0.1050
25149W        W41623  17.255   0.256  12.618  0.0362  0.0492  0.0936
25150W        W41624   2.825   3.853  12.354 -0.1331  0.0757 -0.0554
25151W        W41625   6.990   4.211   2.581  0.3358  0.1250 -0.1137
25152W        W41626   1.938   3.027  13.349 -0.0418  0.1155  0.1531
25153W        W41627  17.347   3.695   4.843  0.1532  0.0928  0.0980
25154W        W41628   3.121   7.206   0.462  0.3476  0.1487 -0.1920
25155W        W41629  15.885  13.612   0.667  0.1678  0.0627  0.0721
25156W        W41630  13.778  12.820  14.320  0.1736 -0.2252  0.0572
25157W        W41631  12.567  11.384  11.380  0.1663 -0.0559  0.1447
25158W        W41632   1.471  16.990   2.099 -0.0233 -0.0223 -0.2033
25159W        W41633  19.188  16.556   2.715  0.1633 -0.2107 -0.2745
25160W        W41634   1.502  14.630   3.815  0.0683 -0.2093  0.1338
25161W        W41635  17.079   0.222  13.637 -0.1575  0.0972  0.0065
25162W        W41636   0.133  18.346   0.917  0.0804  0.1886 -0.0409
25163W        W41637   9.172  18.415   1.731 -0.1021  0.2209 -0.0310
25164W        W41638  17.140   2.162   3.071  0.0932 -0.1844 -0.3284
25165W        W41639  17.971  11.394   0.554 -0.0206  0.0153 -0.1123
25166W        W41640  10.005   7.945  13.509  0.0495  0.2721  0.0917
25167W        W41641  16.775   2.717  13.310 -0.0056 -0.0020 -0.0067
25168W        W41642  18.085   1.416   4.639 -0.0378  0.0124 -0.3572
25169W        W41643   4.650   3.061   4.608 -0.0549 -0.0183  0.3047
25170W        W41644   4.553   0.606  12.923 -0.1965  0.0087  0.1322
25171W        W41645  10.057   4.476   0.303 -0.3678  0.2420 -0.1952
25172W        W41646   6.174   1.110  12.400  0.1866 -0.1533 -0.1552
25173W        W41647  16.003  13.655   1.694  0.1467 -0.2479  0.3518
25174W        W41648  19.282  15.351  12.421  0.2714  0.0845  0.0664
25175W        W41649  18.249  12.549  13.148 -0.2716  0.2983  0.1745
25176W        W41650   6.173   3.871   1.477  0.0001  0.1644  0.0043
25177W        W41651  15.962   2.804   4.000  0.1352 -0.0838  0.0609
25178W        W41652   5.616  13.413  11.627 -0.1898  0.1369  0.0577
25179W        W41653  12.726   0.295   4.146 -0.0800  0.0394  0.2610
25180W        W41654  14.577   9.278  11.090  0.2473 -0.1137  0.2116
25181W        W41655  14.069  15.970   2.416 -0.2254  0.1105 -0.2462
25182W        W41656  18.005  11.871  12.148 -0.1344 -0.1493  0.1703
25183W        W41657   0.080   8.172   4.460 -0.1807 -0.2225  0.1935
25184W        W41658  14.345  11.265   4.637 -0.2028  0.0393 -0.1972
25185W        W41659   9.461   5.558  11.853 -0.0486 -0.4605 -0.3357
25186W        W41660   8.017  13.173  12.638 -0.1762  0.0202  0.3560
25187W        W41661   0.945  19.007   1.992 -0.1437 -0.0704  0.0356
25188W        W41662  14.743   2.818   4.332 -0.3023 -0.1825 -0.0232
25189W        W41663  11.750  14.824  14.173  0.1985 -0.1492 -0.1947
25190W        W41664   4.236  11.371   3.936  0.0467  0.0006 -0.1521
25191W        W41665  11.171   4.343   9.366 -0.3587  0.2309  0.1395
25192W        W41666  16.551   0.747   4.031 -0.1906  0.0463  0.1754
25193W        W41667   0.780   2.256  10.224  0.4906 -0.1332 -0.2535
25194W        W41668   4.785   5.754   2.726 -0.0477 -0.0931 -0.0288
25195W        W41669   0.590  13.372  12.168 -0.2001  0.1048 -0.1045
25196W        W41670  11.010  18.918   4.592 -0.1780  0.0840 -0.0672
25197W        W41671   9.523  11.479  14.027  0.0933  0.0134  0.1814
25198W        W41672   9.850   5.978   0.886  0.0350  0.1081 -0.1684
25199W        W41673  15.405   9.952   0.959  0.0181  0.0746  0.0770
25200W        W41674  18.762  17.744   4.489  0.2810 -0.3639 -0.1704
25201W        W41675   8.091   9.297   0.001 -0.2748  0.0652 -0.2672
25202W        W41676   1.112   8.551  13.296 -0.3149 -0.0181  0.2700
25203W        W41677   5.324   2.042   0.418  0.1836  0.3303  0.0903
25204W        W41678   0.535  18.765   0.979 -0.2589 -0.2597 -0.2209
25205W        W41679  13.990  13.771  12.949 -0.1993 -0.1344 -0.0861
25206W        W41680  15.573   5.105  11.293  0.0009 -0.3289  0.0825
25207W        W41681   8.629  18.520   4.474  0.0479  0.2263  0.0196
25208W        W41682  14.266  19.147   3.411  0.1150 -0.0544  0.1825
25209W        W41683   4.832   2.462   1.081  0.1991 -0.0717 -0.3579
25210W        W41684   6.541   4.405   2.800 -0.0811 -0.2415 -0.1111
25211W        W41685   4.406  16.985  10.735 -0.2495  0.0901  0.0626
25212W        W41686   2.111   9.535  13.631  0.2338  0.0728 -0.2005
25213W        W41687   7.340   8.321   4.545  0.1785  0.1133  0.0384
25214W        W41688   0.550   2.871   3.546 -0.1856  0.1760 -0.0454
25215W        W41689   9.204  14.873  12.561 -0.0299 -0.1039  0.1914
25216W        W41690  11.006  11.159  14.042  0.0516 -0.1004  0.0784
25217W        W41691   5.385  13.823  11.481 -0.3001  0.0810 -0.2395
25218W        W41692   7.540  15.767  10.695  0.1743  0.2041 -0.4166
25219W        W41693   8.827  10.650  12.906  0.1501  0.2924  0.2944
25220W        W41694   8.505   5.994  12.186 -0.0936  0.2320  0.0148
25221W        W41695  16.056   2.562  11.513 -0.1322  0.0523 -0.1867
25222W        W41696  18.829   8.029  12.708 -0.3187  0.2929 -0.1913
25223W        W41697   4.142  12.530  13.560  0.2576  0.0946  0.1760
25224W        W41698  18.331  15.035   1.743  0.1133  0.0645 -0.1157
25225W        W41699   2.636   5.001  10.311 -0.2497 -0.2923  0.1457
25226W        W41700  15.342   0.833   9.216 -0.0578 -0.0651 -0.3946
25227W        W41701  19.112   8.883  11.373  0.5137 -0.2436 -0.1274
25228W        W41702   5.125  15.082   1.395  0.1640  0.2385 -0.5584
25229W        W41703   6.875  13.232   3.472 -0.0027  0.1593 -0.1062
25230W        W41704  16.269  14.893   3.542 -0.0189  0.3425  0.1567
25231W        W41705  18.986   8.287   3.214  0.1858 -0.1082  0.0927
25232W        W41706  15.413   1.985   3.657 -0.1756  0.0549  0.1311
25233W        W41707   0.450   8.139  14.128  0.2084 -0.0637  0.0769
25234W        W41708   3.792  17.295  11.943  0.2966 -0.0488 -0.3467
25235W        W41709  13.324   2.261   1.701  0.0107  0.0573 -0.2536
25236W        W41710  15.636  18.386  13.587  0.1945  0.1041 -0.2083
25237W        W41711   8.568  13.411   3.653  0.0327  0.0236  0.2468
25238W        W41712  11.206  15.927   1.738  0.0006  0.1487 -0.0537
25239W        W41713   7.883   8.429  13.482  0.4762 -0.1586 -0.2676
25240W        W41714   8.641   9.816   2.489  0.0837  0.0186 -0.1875
25241W        W41715   4.452  17.223  14.183 -0.1729 -0.0021 -0.1688
25242W        W41716  15.335   7.910   3.865 -0.0499  0.0125  0.1845
25243W        W41717   8.232  13.994  14.001  0.0580  0.2540  0.3668
25244W        W41718   4.742   0.216  12.306 -0.1085  0.0737  0.2227
25245W        W41719  15.479  12.639  10.998 -0.0101 -0.0089 -0.0813
25246W        W41720  18.301  16.651   0.830 -0.2745  0.2108  0.0764
25247W        W41721  12.212  10.931  11.063 -0.1009  0.0689  0.1832
25248W        W41722  12.476  14.919   4.892 -0.2068 -0.0562  0.1226
25249W        W41723  15.693   6.196   3.383  0.0830 -0.3931 -0.2275
25250W        W41724   2.335   7.808   3.327 -0.1454 -0.1364  0.3273
25251W        W41725  19.238   3.433   5.198 -0.1488  0.4947 -0.1106
25252W        W41726  12.457   2.127   4.466 -0.3607 -0.1110 -0.2837
25253W        W41727  19.170   5.607  13.745 -0.2865 -0.0934 -0.0158
25254W        W41728  14.568   4.282  12.805 -0.0734 -0.0453 -0.1537
25255W        W41729  16.208   7.194   4.061 -0.1805  0.1912 -0.1761
25256W        W41730   6.192  16.480   2.643 -0.1499  0.0368  0.1999
25257W        W41731  13.746   5.131   4.585  0.1595 -0.2298  0.1944
25258W        W41732  14.503   0.040  12.116 -0.0411 -0.0528 -0.1051
25259W        W41733  13.493   8.200  13.381  0.1640 -0.1812 -0.1551
25260W        W41734   2.319   1.322   4.311 -0.4381  0.0744  0.2126
25261W        W41735  11.869  19.181  12.977  0.2257 -0.2914 -0.0271
25262W        W41736  14.746  10.967   4.598 -0.0104  0.0060 -0.0340
25263W        W41737   2.151   4.933   2.627  0.0745 -0.1095 -0.1802
25264W        W41738  10.504   7.508   0.857  0.2131 -0.2490  0.0937
25265W        W41739  14.966   5.083   1.589  0.1538 -0.3769 -0.0523
25266W        W41740   2.954   4.841   1.726  0.1711 -0.1216 -0.0017
25267W        W41741  14.493   1.300  13.612 -0.2050  0.1098  0.1436
25268W        W41742  13.505   6.338  12.464  0.4394 -0.0602  0.2521
25269W        W41743   6.965  10.088  13.719 -0.1777  0.1901 -0.0514
25270W        W41744   5.468   2.908  12.361  0.0514 -0.0589  0.1215
25271W        W41745   5.210  17.806   1.615  0.0268 -0.2352  0.0170
25272W        W41746   6.677   5.931   1.290 -0.0898 -0.2395 -0.1954
25273W        W41747  14.372  18.410  11.386 -0.0345  0.2101  0.4420
25274W        W41748  11.812   8.764  13.125  0.1399  0.0796 -0.2434
25275W        W41749  10.833  18.369   0.602 -0.1984 -0.2410 -0.1840
25276W        W41750   1.277  14.800   1.521  0.0871 -0.0544 -0.1607
25277W        W41751   6.131   8.908   3.639 -0.1369  0.0914 -0.2247
25278W        W41752   0.684  15.180  13.766  0.2057 -0.2223 -0.1600
25279W        W41753   4.232   0.682   0.218 -0.0696 -0.1232  0.1596
25280W        W41754  10.113  12.946  11.398  0.1060 -0.2406 -0.0478
25281W        W41755  17.838  10.933   0.837 -0.1753  0.0175 -0.1646
25282W        W41756   8.498   7.087  10.089 -0.5461 -0.2254  0.1913
25283W        W41757   9.244   2.567   1.248  0.2977 -0.1082 -0.0629
25284W        W41758  10.266   4.927   0.024  0.0733 -0.2904  0.2429
25285W        W41759   8.223  18.460  11.582  0.3283 -0.3644 -0.0545
25286W        W41760   6.722   4.630   1.999  0.2781  0.1164 -0.0976
25287W        W41761  11.853   5.864  11.341  0.1955  0.0636 -0.5472
25288W        W41762  10.257   7.407   0.330 -0.2779 -0.0552 -0.4325
25289W        W41763  14.523   6.502   2.731 -0.3254  0.0557 -0.0315
25290W        W41764  18.386   8.617   0.392  0.1007 -0.0600 -0.0764
25291W        W41765  11.699  12.053  14.865 -0.0767 -0.0053 -0.0455
25292W        W41766  13.963   6.396  13.645 -0.0590  0.3490  0.2736
25293W        W41767   2.207  12.930   5.244 -0.2700 -0.2094  0.0588
25294W        W41768   4.123   7.423  14.005  0.3328  0.2531  0.0376
25295W        W41769   0.161   5.889  11.125  0.1860  0.0103 -0.0871
25296W        W41770  11.877   9.001   1.956 -0.1366  0.1106 -0.2814
25297W        W41771   1.483   3.637   5.488 -0.0482 -0.0455  0.0689
25298W        W41772   1.378   4.047   4.525 -0.1560  0.3265  0.2581
25299W        W41773   1.582  19.048  12.320 -0.0549 -0.0256 -0.1410
25300W        W41774  15.676  12.498  13.455  0.1976  0.2912  0.4577
25301W        W41775   6.826  13.870  12.724 -0.1231 -0.0255  0.0945
25302W        W41776  13.825  17.684  11.034 -0.0024 -0.0276  0.1348
25303W        W41777  15.292  17.732  11.051  0.0079  0.2066 -0.0361
25304W        W41778   5.219   0.091  13.033  0.3338 -0.0898 -0.2818
25305W        W41779  10.273   5.489   1.286 -0.1735 -0.1743  0.0884
25306W        W41780   5.880  15.084   2.351  0.0612  0.2730  0.2735
25307W        W41781   1.854  13.046  14.696  0.4637  0.1060  0.1504
25308W        W41782  11.276  12.077   4.244  0.1677  0.0436 -0.0094
25309W        W41783   7.040  18.979   2.409 -0.2345 -0.1869 -0.0929
25310W        W41784  16.278  17.539   3.093  0.1249 -0.0960  0.2177
25311W        W41785   9.916   1.907  13.104 -0.2414 -0.1612 -0.1492
25312W        W41786  16.947   1.090  11.555  0.0242  0.1522 -0.1263
25313W        W41787   8.359  19.011   1.882 -0.0181  0.1629 -0.1654
25314W        W41788  17.750  14.214   3.869 -0.0109  0.1403 -0.0430
25315W        W41789  17.758   1.021   0.152 -0.1240 -0.1615 -0.0673
25316W        W41790   6.742   4.848   2.990  0.3244 -0.3151 -0.0900
25317W        W41791   4.287   6.211  12.074 -0.2404  0.1120 -0.0700
25318W        W41792  12.454  10.926   0.888  0.0267  0.0152  0.0214
25319W        W41793   7.783  11.568   9.792 -0.0149  0.0716  0.0707
25320W        W41794   9.913  13.038  12.006 -0.2451 -0.2002 -0.1008
25321W        W41795   0.623   0.405   3.540  0.1448  0.1971  0.0800
25322W        W41796   1.455  14.648   2.010  0.0460 -0.2014  0.3653
25323W        W41797   6.312  14.846  14.447  0.1421  0.0036  0.1144
25324W        W41798  17.847   9.749   3.850 -0.2127 -0.0019  0.3022
25325W        W41799   2.100  14.779  10.742  0.0447  0.0103  0.2185
25326W        W41800   7.896  16.371   4.414  0.0399 -0.0817 -0.1561
25327W        W41801   1.448   4.203   3.590  0.2803  0.0573 -0.0623
25328W        W41802  13.212   1.784  14.881  0.0613 -0.1178 -0.1344
25329W        W41803   2.315  17.666  13.696 -0.2257 -0.0946  0.2177
25330W        W41804  17.399  17.562  13.640  0.0427  0.3205 -0.0145
25331W        W41805   3.648  15.991  13.825 -0.0059 -0.0259  0.1194
25332W        W41806   1.309  16.957   3.688 -0.1196  0.2792 -0.0394
25333W        W41807  17.018  14.433  11.931  0.2341 -0.2707  0.1303
25334W        W41808   6.980   6.328   0.602 -0.0848  0.0446  0.1794
25335W        W41809   1.024  14.458   2.526 -0.0286 -0.2183 -0.0665
25336W        W41810  12.369  13.843   4.353  0.3976  0.2884  0.1222
25337W        W41811  17.647  12.284   5.223  0.1374  0.0223 -0.1778
25338W        W41812   9.943  11.913   1.408  0.0311  0.0661 -0.1262
25339W        W41813   1.607  12.120   4.943 -0.0646 -0.0071  0.1276
25340W        W41814   2.822  13.839   3.599  0.0802 -0.2626  0.1164
25341W        W41815  13.439   4.037  12.205 -0.1430  0.3026  0.0126
25342W        W41816   8.840  12.125   4.266  0.0885  0.4816  0.0337
25343W        W41817   1.366   4.790   1.725  0.0758 -0.0014  0.2263
25344W        W41818   2.397   9.188   2.596  0.1614  0.1058 -0.1211
25345W        W41819   4.132   6.988   0.869  0.0349  0.1171 -0.0665
25346W        W41820  12.693  19.308  14.581 -0.0353  0.0085 -0.0537
25347W        W41821  11.533   9.733   0.296 -0.2759  0.0563  0.1599
25348W        W41822   4.746  16.375   1.909  0.1827  0.4650  0.0263
25349W        W41823   6.163   1.557   2.518  0.1689 -0.0206 -0.4214
25350W        W41824   7.971   0.802  11.271  0.1312  0.0806 -0.2160
25351W        W41825   0.391  12.598   2.691  0.0500  0.1504 -0.1948
25352W        W41826  12.190  17.995  11.540 -0.0052 -0.0786 -0.0124
25353W        W41827   4.708   5.123   0.465 -0.0532 -0.0700 -0.1463
25354W        W41828  12.989  14.318  12.696 -0.0341  0.0708  0.0660
25355W        W41829   4.502   2.627  10.340  0.4165  0.3866 -0.1167
25356W        W41830  17.407  17.899   1.308 -0.1261 -0.1014  0.0415
25357W        W41831   8.384   7.047  14.257  0.1626  0.1125 -0.5363
25358W        W41832   9.736   4.680  14.262 -0.0662 -0.0980  0.1457
25359W        W41833   1.263  15.192  14.620 -0.0656  0.1341  0.0016
25360W        W41834  15.919   8.851   1.810  0.2593 -0.0297 -0.0958
25361W        W41835  15.497   0.227  11.668 -0.0182  0.1048  0.4776
25362W        W41836  11.247   0.485   3.629  0.1595  0.0601  0.0028
25363W        W41837   7.485   1.490  12.868 -0.1696  0.0981 -0.0755
25364W        W41838  13.517  18.187   4.106  0.1261 -0.0255 -0.3834
25365W        W41839  16.488   2.687  10.264  0.3979 -0.1432  0.1178
25366W        W41840  17.860  16.434   0.719 -0.1172 -0.4175 -0.0314
25367W        W41841  13.551   8.819   3.922 -0.0968  0.1883 -0.1472
25368W        W41842  10.934   3.158   3.644 -0.0138  0.1999  0.0387
25369W        W41843   6.199   9.158  14.638  0.1575  0.0832 -0.2128
25370W        W41844   9.177   1.678   4.070  0.0493 -0.4921 -0.1053
25371W        W41845   6.403   8.612  11.056 -0.0290  0.0749  0.0615
25372W        W41846   8.259  18.059   4.553 -0.0944 -0.1023 -0.5557
25373W        W41847   9.736  11.939  10.847 -0.1089 -0.3826  0.0421
25374W        W41848   3.400  10.347   1.087 -0.0360 -0.3549 -0.1510
25375W        W41849   6.666  14.339   9.921 -0.2992  0.1605 -0.3942
25376W        W41850  18.860  13.475   0.749 -0.0696 -0.0856 -0.0398
25377W        W41851   5.711   3.082   0.528 -0.1984  0.1288 -0.2598
25378W        W41852   7.345   3.980  13.353 -0.0562  0.1484  0.1211
25379W        W41853  18.602   2.449   1.024 -0.2198  0.1391  0.0969
25380W        W41854  18.330   2.889   3.500 -0.1060  0.0282  0.0375
25381W        W41855   2.303   0.699   1.319 -0.1203  0.1062 -0.0053
25382W        W41856  16.803   9.124  14.049 -0.1220  0.1687  0.1723
25383W        W41857  15.923  10.765   2.191 -0.0134  0.0195 -0.1522
25384W        W41858   0.538   4.294   1.978  0.1703  0.2028 -0.1493
25385W        W41859   3.847   9.226   0.055  0.2434 -0.0295  0.1832
25386W        W41860  14.010  14.174  14.417  0.3456 -0.2741 -0.1713
25387W        W41861  15.701  13.729   3.217 -0.0347 -0.0131  0.0504
25388W        W41862   9.983  11.190  10.611 -0.0607  0.0167 -0.1372
25389W        W41863   1.356  14.357   3.421 -0.0988  0.1447 -0.4724
25390W        W41864   2.756  12.942   3.040 -0.0666  0.1035  0.0025
25391W        W41865  12.542  18.088  11.961  0.1880  0.0552  0.3862
25392W        W41866   2.860   1.193   2.057 -0.1939 -0.0962 -0.0931
25393W        W41867  13.790   7.570   2.400  0.2460  0.2763  0.0393
25394W        W41868   8.227   0.183   3.449 -0.2649  0.3161 -0.2681
25395W        W41869   1.851   0.642  11.515  0.0323 -0.3680 -0.1101
25396W        W41870  18.124   5.719  13.449  0.2746  0.2052 -0.0923
25397W        W41871   3.164   4.840  11.094 -0.0041  0.1166 -0.1495
25398W        W41872   0.631  18.759   5.544 -0.1293 -0.1699 -0.3181
25399W        W41873  16.030   1.478  14.006 -0.1910 -0.1064 -0.2350
25400W        W41874   4.000   9.619   4.645 -0.0498 -0.0543 -0.0090
25401W        W41875  14.762  12.024   2.854  0.2573 -0.1456  0.0085
25402W        W41876   9.162   7.330   5.495  0.3258  0.1337  0.0756
25403W        W41877   2.428  13.795   1.379 -0.3695  0.0009  0.1823
25404W        W41878   3.597   7.772   5.239 -0.4136 -0.0922 -0.4159
25405W        W41879   4.062   9.025  10.867 -0.2439 -0.1099 -0.1543
25406W        W41880  10.304   6.721  11.612 -0.0371 -0.2422 -0.1227
25407W        W41881   2.018   0.702   1.821 -0.2289  0.0925 -0.1010
25408W        W41882   5.484  10.589  10.724  0.1552 -0.1976  0.1928
25409W        W41883   8.206   0.840   3.746 -0.0244  0.0839  0.0225
25410W        W41884  11.185   1.432  11.239  0.2568 -0.1893  0.0011
25411W        W41885  14.917  16.660   0.911  0.6488  0.0552  0.2181
25412W        W41886  11.393  10.306   4.039  0.1054 -0.0690  0.2996
25413W        W41887   8.413   1.089   2.874 -0.0362 -0.2407  0.0514
25414W        W41888   8.930  14.579  14.477 -0.1513 -0.1214  0.0792
25415W        W41889   7.827  17.352   0.525 -0.0001 -0.2560  0.2629
25416W        W41890   7.025  11.027  14.300  0.2036 -0.0353 -0.0186
25417W        W41891  19.201  16.156   9.980  0.3046  0.0375 -0.0833
25418W        W41892   9.178   1.813  12.064  0.0969  0.1961 -0.1000
25419W        W41893  12.808  18.940  12.884  0.0791 -0.2795 -0.0622
25420W        W41894   0.805  12.919  14.050 -0.1409 -0.2376 -0.0185
25421W        W41895  13.138  14.090   4.102 -0.1147  0.1594  0.1409
25422W        W41896  17.096   6.986  10.441 -0.1170  0.0447 -0.2091
25423W        W41897  13.354  10.442   4.866  0.3992 -0.1478  0.2101
25424W        W41898  19.046  14.621  13.110 -0.0795  0.0214 -0.2331
25425W        W41899  18.546   8.295  11.814  0.3055  0.2175 -0.1056
25426W        W41900   9.434  19.108  12.338 -0.0646 -0.1919 -0.0461
25427W        W41901  10.815  13.665   2.042  0.0120 -0.4138 -0.0262
25428W        W41902  19.278  15.539   4.176 -0.0430 -0.1578 -0.0618
25429W        W41903   5.787   8.070  11.353 -0.2198 -0.2873 -0.2991
25430W        W41904   6.490   5.858   4.388  0.4323 -0.1230 -0.3204
25431W        W41905  11.730  10.085  13.829  0.1981  0.2258 -0.0426
25432W        W41906   2.247  18.726   2.042 -0.0156 -0.0341 -0.2251
25433W        W41907  12.050   0.937   0.276 -0.0658 -0.0197 -0.2428
25434W        W41908  13.192   8.872   1.472  0.1263 -0.0765 -0.1708
25435W        W41909   4.396   4.806   3.172  0.2463 -0.0853 -0.4311
25436W        W41910  18.255  14.280  12.497  0.1343 -0.2589  0.4897
25437W        W41911   0.879   9.918  14.062  0.1751 -0.2164  0.2939
25438W        W41912  11.696  12.840   4.500 -0.1005 -0.0731 -0.0294
25439W        W41913   1.932   4.049   0.204 -0.1070 -0.1716 -0.0455
25440W        W41914   2.385  15.955  12.357  0.2038  0.1831  0.0767
25441W        W41915  11.055  12.829   0.123 -0.1886 -0.1041  0.2027
25442W        W41916  10.798   0.039  12.132 -0.1203 -0.0238  0.0416
25443W        W41917   3.491  17.040   0.442  0.1353  0.0851  0.1012
25444W        W41918  12.198  15.922  10.889  0.3371  0.1992 -0.0559
25445W        W41919  15.461   2.013  12.307  0.1657 -0.0587  0.0536
25446W        W41920  17.561  13.110   2.856 -0.0750 -0.1963  0.1895
25447W        W41921  19.079   7.605   2.874 -0.1304  0.0803 -0.0636
25448W        W41922  17.526   2.285   3.509 -0.0290 -0.1427  0.0325
25449W        W41923  10.565  10.251  13.887  0.0613  0.3100 -0.1412
25450W        W41924  13.085   5.499   1.284  0.1367  0.4946  0.0750
25451W        W41925   6.768   9.115   0.318 -0.0568 -0.1186  0.0305
25452W        W41926  16.130   4.837  12.610 -0.2929  0.0117 -0.1155
25453W        W41927  13.187  10.495  12.990 -0.2534 -0.1280 -0.3288
25454W        W41928   9.207   0.680  13.432  0.0928 -0.1566  0.1628
25455W        W41929  18.652  10.346   4.678  0.0808 -0.1426  0.0787
25456W        W41930  11.104   9.895   3.761  0.0928  0.1411 -0.1112
25457W        W41931  14.739  17.703   0.856 -0.0431 -0.2730 -0.0690
25458W        W41932   8.085  19.054  10.301 -0.0543  0.0861  0.0436
25459W        W41933  18.302  12.412   4.178 -0.1986  0.0561  0.0944
25460W        W41934   0.464   5.764   2.569  0.2076 -0.1050 -0.0567
25461W        W41935  13.404  11.799   4.617  0.2344  0.0724 -0.2055
25462W        W41936   6.595  11.150   2.808 -0.0033  0.2054  0.3084
25463W        W41937  18.001   7.601  10.306 -0.0151  0.1679  0.2805
25464W        W41938   6.426  12.597  14.851  0.0310 -0.2557 -0.0832
25465W        W41939   6.677   3.966  10.488  0.1799 -0.4089  0.2674
25466W        W41940   5.663  18.567   4.581 -0.2181  0.1141  0.0119
25467W        W41941  10.581  16.594   3.095 -0.2093 -0.0362  0.2377
25468W        W41942  13.705   8.492  13.045 -0.1056  0.1969 -0.1307
25469W        W41943  16.673  16.618  14.234  0.2493  0.0093 -0.2818
25470W        W41944  12.017   5.808   0.029  0.0464 -0.1510 -0.0892
25471W        W41945   9.859  11.699  10.436 -0.2298  0.1812 -0.0549
25472W        W41946   3.159  13.033   5.190  0.1143 -0.3546  0.0288
25473W        W41947  14.782   7.981   1.730  0.2317  0.1282  0.1061
25474W        W41948  17.172   3.921   9.645  0.1770  0.1483 -0.4913
25475W        W41949   4.431  11.994  12.195  0.2387 -0.0304 -0.0465
25476W        W41950  17.801  17.800  12.397  0.0402  0.1364 -0.1631
25477W        W41951   6.385   3.034   3.084  0.0726 -0.0770  0.3196
25478W        W41952  15.329   6.362   2.271  0.2527 -0.0149  0.2031
25479W        W41953   1.913   5.149   4.400  0.0433 -0.2760 -0.4400
25480W        W41954  16.298  13.672  10.818 -0.2639  0.1201 -0.1612
25481W        W41955  13.058  11.895  12.106  0.1144  0.0075 -0.1618
25482W        W41956   0.235  18.332  12.689 -0.1056  0.2546 -0.0624
25483W        W41957   4.170   7.212   2.096  0.4572 -0.0367  0.1277
25484W        W41958   0.294   7.840   3.967 -0.0517 -0.0241  0.0482
25485W        W41959   9.248   2.912  11.350 -0.0402 -0.0744  0.1630
25486W        W41960   4.690  19.124  11.308 -0.3066  0.2307 -0.1756
25487W        W41961  13.490  11.516   2.560  0.0558 -0.0192 -0.2192
25488W        W41962   7.735   9.288  13.555 -0.1365  0.1194  0.0500
25489W        W41963   3.821   7.117  14.356 -0.1468 -0.0833  0.1195
25490W        W41964  14.077  18.560  10.921  0.1603 -0.1525 -0.1478
25491W        W41965   3.219  12.121   1.210  0.1279 -0.0623 -0.0338
25492W        W41966  18.642   7.495   4.433  0.1505  0.1136 -0.0474
25493W        W41967   8.951  15.072  13.011  0.0711 -0.0090 -0.3264
25494W        W41968   5.289  11.894   1.549  0.0956 -0.0421  0.0166
25495W        W41969  18.268   6.584   4.681 -0.1911  0.0850  0.0631
25496W        W41970  15.884   7.112  14.372 -0.2594 -0.0839  0.2162
25497W        W41971   6.690   9.494   4.794  0.2591 -0.2774 -0.2664
25498W        W41972   9.502   0.678   1.237 -0.3244  0.3130 -0.2508
25499W        W41973  17.570   2.510   4.601  0.0490  0.2105 -0.0067
25500W        W41974  12.473  13.434   2.792 -0.1614 -0.2423 -0.3105
25501W        W41975   3.440   1.453   3.239  0.0272 -0.4807 -0.2759
25502W        W41976   5.441   8.990   4.408 -0.2963 -0.0659  0.2092
25503W        W41977  18.904   3.541   2.402 -0.1631  0.2389  0.4177
25504W        W41978  12.588  10.119  11.625 -0.3194  0.1106 -0.0152
25505W        W41979   1.126   4.212   0.825  0.4162  0.2886 -0.1085
25506W        W41980   9.556   1.315   1.571 -0.0354 -0.2017  0.2854
25507W        W41981   6.368   1.827   0.201 -0.0912  0.1578 -0.1988
25508W        W41982  16.847  10.245  14.480  0.2814 -0.2311  0.0302
25509W        W41983   6.868  18.834   1.874  0.4273  0.0257  0.1196
25510W        W41984   1.636  18.428  12.048  0.0534  0.0293  0.1986
25511W        W41985   6.163   2.485  14.322 -0.0420  0.0386 -0.4546
25512W        W41986  15.254   3.542   0.647  0.0820  0.0813  0.3397
25513W        W41987   3.160  11.982  14.719  0.0629  0.3717  0.1594
25514W        W41988   8.199   2.296  11.147  0.0414 -0.0644 -0.1328
25515W        W41989  15.241   9.758   3.705  0.2934 -0.1942 -0.2448
25516W        W41990   3.426  17.354  14.862 -0.1462 -0.3234 -0.3680
25517W        W41991   7.774  14.880   1.138 -0.1503 -0.2360  0.0494
25518W        W41992  11.965   1.252   1.033 -0.0109 -0.1103  0.3620
25519W        W41993   3.999  14.940   2.177 -0.1952 -0.0131  0.2591
25520W        W41994   5.747  14.307  10.055  0.0472 -0.0943 -0.0545
25521W        W41995   2.852   0.041   9.229 -0.1882 -0.0627 -0.1808
25522W        W41996  13.201  11.514   0.536 -0.0599 -0.1041 -0.3232
25523W        W41997   7.212   9.625   1.888 -0.2539 -0.3366 -0.0588
25524W        W41998   1.501   2.899   1.832  0.3388  0.0154  0.0393
25525W        W41999  16.705  18.674  13.425  0.0853  0.1721 -0.0072
25526W        W42000  14.607   6.160   5.269  0.2332  0.0665 -0.2060
25527W        W42001   7.878   1.462  13.633  0.1270  0.2170  0.1280
25528W        W42002   5.100  17.723   3.670 -0.1861 -0.2772 -0.1107
25529W        W42003  15.855  12.109  12.182 -0.2106  0.0574  0.0654
25530W        W42004  10.595   8.750  12.119  0.0011  0.3482 -0.2174
25531W        W42005   0.252  16.587   4.643  0.0915  0.1713  0.2298
25532W        W42006  13.111   4.187   2.899  0.3416 -0.0455 -0.0825
25533W        W42007  11.672   2.331  11.423 -0.1172 -0.1405  0.1505
25534W        W42008  10.652  17.452   3.516 -0.1021 -0.2153 -0.3618
25535W        W42009   4.275  11.761  11.803 -0.2342  0.0541 -0.0345
25536W        W42010  12.642  18.248   3.170  0.2798 -0.1510 -0.1785
25537W        W42011   8.562  17.259   0.305 -0.0457  0.1591  0.0707
25538W        W42012  17.493   2.040   0.181  0.2124 -0.0725 -0.0514
25539W        W42013   5.655  12.514  12.091 -0.0820  0.1437 -0.0768
25540W        W42014   3.217   3.896   2.489  0.1579  0.3040  0.1475
25541W        W42015   1.663   1.058   1.738  0.2708  0.3832  0.1420
25542W        W42016   6.317   9.905  11.485  0.1616 -0.2759 -0.0928
25543W        W42017  18.471   2.362  11.389 -0.2032  0.2152 -0.2510
25544W        W42018  11.063   8.536   1.780  0.0037  0.1145  0.5068
25545W        W42019   4.455   6.435  14.193 -0.0081 -0.0685  0.0502
25546W        W42020  13.232  11.684  12.980 -0.2578  0.1336 -0.1111
25547W        W42021  17.268   3.310   1.623  0.1883  0.2605 -0.1742
25548W        W42022   3.623  13.827   0.592 -0.1472  0.0575  0.0741
25549W        W42023  16.377   9.060  14.361 -0.2889  0.2576  0.0445
25550W        W42024   8.024  10.817   9.592 -0.1178 -0.2022 -0.3645
25551W        W42025  16.619   5.693  14.705  0.0532  0.0930 -0.0638
25552W        W42026   1.448  12.116   0.632 -0.1135  0.0190  0.0163
25553W        W42027  11.614   1.218  10.083 -0.2066 -0.1474 -0.3766
25554W        W42028  13.456  17.050  13.941 -0.0685  0.0111 -0.1511
25555W        W42029   6.640   4.602  13.466 -0.5222  0.1270 -0.2800
25556W        W42030   5.497   3.383   9.673  0.0355 -0.1368  0.0396
25557W        W42031   9.431  18.681   4.754 -0.0834  0.0411  0.1546
25558W        W42032   4.618   0.967   3.454 -0.0900 -0.2184  0.3410
25559W        W42033  17.219   8.771  14.034 -0.0149 -0.1980 -0.1665
25560W        W42034  15.056   1.005  13.358 -0.1978  0.0714 -0.0057
25561W        W42035   6.980  13.844   5.151  0.1728 -0.0435 -0.2035
25562W        W42036  17.370  13.576   2.805  0.1188 -0.2486  0.3507
25563W        W42037  17.483  18.932   2.258 -0.1277  0.0201  0.4255
25564W        W42038  15.180  10.298   2.363  0.1114  0.0797  0.0613
25565W        W42039  15.015   0.103  11.315  0.0229  0.2913  0.2688
25566W        W42040   7.726  19.368   3.544  0.2152 -0.0799  0.0778
25567W        W42041  15.555  16.914  13.012 -0.0864  0.1168 -0.1740
25568W        W42042   9.550   5.694  12.877 -0.0766 -0.0282 -0.2108
25569W        W42043  15.831  19.304   4.996  0.1230 -0.2505 -0.1021
25570W        W42044   1.236   3.494   2.698 -0.0066 -0.2246 -0.0305
25571W        W42045   2.367  12.624   2.467  0.2151  0.1318  0.1852
25572W        W42046  15.581   4.813   0.373 -0.6500  0.2408 -0.2914
25573W        W42047  16.054   7.334   5.061 -0.0249  0.0665 -0.1680
25574W        W42048   7.681  12.103   5.709  0.4548 -0.0464 -0.1613
25575W        W42049   7.716   9.340   1.518  0.5874 -0.4076 -0.0371
25576W        W42050   4.620   4.343   3.934  0.3620  0.2139  0.2640
25577W        W42051   2.755  16.504   4.666 -0.1838  0.1684 -0.0734
25578W        W42052   2.673   5.910   1.252  0.1122  0.0929  0.0784
25579W        W42053   3.754  15.723   1.617  0.1299  0.1378 -0.0349
25580W        W42054   3.905  11.673  12.814  0.0395 -0.2069 -0.3199
25581W        W42055   2.942  14.902   5.749 -0.0207  0.1407 -0.0330
25582W        W42056   6.139  16.854   3.969 -0.2587 -0.1152 -0.0792
25583W        W42057   8.239  16.954   2.130 -0.0978  0.0491 -0.4130
25584W        W42058  11.754  16.521  14.279  0.0517 -0.3838  0.3630
25585W        W42059  16.651   3.672  11.332  0.1339 -0.1087  0.0950
25586W        W42060  14.254  12.437   0.131 -0.4013  0.1183  0.0649
25587W        W42061   8.191  16.402  13.146 -0.2052 -0.0765  0.0923
25588W        W42062   3.840  13.098   0.957  0.0853 -0.1700 -0.2303
25589W        W42063   6.272   4.051  14.198 -0.1976  0.1464 -0.3446
25590W        W42064  12.637   1.918   2.092  0.2249 -0.1470 -0.1306
25591W        W42065   3.255  11.102   4.331  0.0931  0.0333  0.1537
25592W        W42066  12.418   5.223  12.573 -0.2233  0.3337  0.0038
25593W        W42067   4.933   7.604  14.334  0.1511 -0.0958  0.1320
25594W        W42068   1.450  16.110  14.473 -0.1655 -0.0993 -0.1387
25595W        W42069   1.619  12.074  12.897 -0.0331 -0.1919 -0.1347
25596W        W42070   9.457   9.807  10.918  0.0089  0.1778 -0.2247
25597W        W42071   3.688  15.314   1.344 -0.3901 -0.0601 -0.3937
25598W        W42072  15.409   5.238   3.929  0.3983 -0.0709  0.1870
25599W        W42073   0.966   9.159  10.491  0.0979 -0.0610 -0.1040
25600W        W42074   4.479   5.245  14.639  0.1503  0.1820 -0.1533
25601W        W42075  10.321   5.379   3.126 -0.1495  0.2096  0.0778
25602W        W42076   7.960   2.022  12.555 -0.2434  0.1776  0.1140
25603W        W42077   1.469  13.600   5.248 -0.1532  0.0458 -0.0571
25604W        W42078  12.366  15.817   1.628  0.0572  0.0237  0.1234
25605W        W42079  18.747   0.951   3.247  0.5125 -0.0778 -0.2216
25606W        W42080  10.894   5.901  14.705 -0.2106 -0.0914  0.4186
25607W        W42081   9.345   2.827   3.779 -0.1716 -0.0944 -0.1641
25608W        W42082  13.055   7.246  11.464 -0.1400  0.4161 -0.1316
25609W        W42083  10.890  18.353  13.331  0.1308 -0.1312 -0.2418
25610W        W42084  17.721  18.459  14.858 -0.1017  0.0416 -0.2247
25611W        W42085   3.719   2.773  13.084 -0.3145  0.1504  0.4161
25612W        W42086  14.403   8.272   4.807 -0.0745 -0.1503  0.2057
25613W        W42087  14.482  12.102  12.220 -0.0742  0.1757  0.1908
25614W        W42088   7.319   4.696   1.635 -0.2083  0.0214 -0.0868
25615W        W42089   5.231   9.290   3.193 -0.0923  0.1496 -0.0860
25616W        W42090  11.087   3.068   1.105 -0.1935 -0.1363  0.0899
25617W        W42091  15.689   6.830  10.570  0.0368 -0.0449 -0.2328
25618W        W42092   1.384   4.450  10.778 -0.3247  0.0828  0.2444
25619W        W42093  18.757  16.157   4.813  0.2191 -0.0272 -0.1160
25620W        W42094  11.008   3.599  11.577  0.3540  0.1505 -0.2933
25621W        W42095  15.956  17.294  11.447 -0.2102  0.2277  0.1214
25622W        W42096  13.239  16.697  14.596  0.2077 -0.0514  0.0408
25623W        W42097  18.462  15.048  14.870 -0.2380 -0.4175 -0.1039
25624W        W42098  13.958   8.138   1.493 -0.0627 -0.2598  0.0022
25625W        W42099   6.227   5.708   1.364  0.0600 -0.0431 -0.2082
25626W        W42100   2.234  18.983   0.407 -0.1066 -0.2079 -0.0040
25627W        W42101  16.009  19.102   0.004  0.2702 -0.3249  0.0525
25628W        W42102   9.123   2.760  10.521  0.1106 -0.1298 -0.0385
25629W        W42103   5.526  11.401  11.219 -0.0745 -0.1164  0.0371
25630W        W42104  15.978   0.818  10.534  0.0872  0.0183 -0.1410
25631W        W42105  13.632  16.641  12.392  0.0251 -0.2470 -0.0854
25632W        W42106  11.523   9.607  13.146  0.0986  0.1537  0.0842
25633W        W42107  13.002  13.621   4.391  0.1195 -0.0021 -0.3825
25634W        W42108   8.951  14.515  12.951  0.0838 -0.1097  0.2442
25635W        W42109  19.208   8.220   0.365  0.2334  0.0148 -0.4225
25636W        W42110  13.848   6.105   1.218 -0.2991 -0.0367  0.1107
25637W        W42111   0.619  14.254  13.747 -0.1926  0.0158  0.1708
25638W        W42112   1.344  12.933   5.167 -0.1425  0.2636 -0.1921
25639W        W42113  11.007   3.690   1.588 -0.4748 -0.2009  0.0003
25640W        W42114  15.364  13.769  12.741 -0.1569 -0.2947  0.0155
25641W        W42115   1.527  17.468  12.808 -0.1154  0.0534 -0.0799
25642W        W42116   2.761   4.121   0.918 -0.3642  0.0468 -0.0349
25643W        W42117  19.188   4.427   3.576  0.1811 -0.2806  0.2338
25644W        W42118   5.771  16.913   1.347 -0.0056 -0.0429  0.1979
25645W        W42119  17.420  14.188  13.892 -0.1199  0.1844  0.0432
25646W        W42120   6.544   5.016  10.652  0.0416 -0.3352  0.0288
25647W        W42121   1.931   7.764  13.055  0.0422 -0.3257 -0.3707
25648W        W42122  11.316  15.372   5.260 -0.0199  0.0383  0.1776
25649W        W42123   1.022  11.869  14.284  0.0877  0.0118  0.1073
25650W        W42124  10.972  18.005   2.633 -0.1083  0.0411  0.1818
25651W        W42125  12.910   3.132   3.118  0.0112  0.0207 -0.1747
25652W        W42126  14.844   4.016   3.480 -0.0595 -0.0638 -0.2097
25653W        W42127   2.630  12.453   3.802 -0.1102  0.1214  0.2566
25654W        W42128   3.981  19.086  12.503 -0.2432  0.0103  0.4211
25655W        W42129   9.006  14.843   4.803  0.1588  0.4286  0.2540
25656W        W42130   4.218  11.440   4.485  0.0224 -0.2819 -0.2171
25657W        W42131   7.827   1.680   4.232 -0.0274 -0.3270 -0.1575
25658W        W42132  13.896   8.983   4.798  0.1798 -0.0562 -0.1662
25659W        W42133   0.234  11.602   1.370 -0.0081  0.0708  0.4501
25660W        W42134  12.999  15.078  14.469 -0.6302 -0.1815 -0.0239
25661W        W42135   8.627  10.218  13.507 -0.3351  0.1613  0.1563
25662W        W42136   0.629   8.158   0.963  0.1758  0.1813 -0.1044
25663W        W42137   8.829  11.659  10.810  0.4646 -0.1288  0.2773
25664W        W42138  14.042   6.279  12.335 -0.1746 -0.0083  0.1503
25665W        W42139   5.049  18.849   5.337 -0.1234 -0.0509 -0.1183
25666W        W42140   3.239   5.622  13.273 -0.1925  0.0307  0.5329
25667W        W42141   8.628  12.776  12.109  0.1947 -0.1125 -0.0755
25668W        W42142  14.316  14.410   3.229 -0.0322  0.0158 -0.1831
25669W        W42143  17.287  18.446  10.807 -0.1647  0.0208  0.0646
25670W        W42144   4.867  12.463   3.795 -0.4866 -0.3129 -0.4815
25671W        W42145   0.066  14.635  13.505  0.0399 -0.3291  0.0161
25672W        W42146  17.686  19.349  12.722  0.0884 -0.1737  0.4206
25673W        W42147   7.616   7.597   0.184  0.0363  0.0693 -0.0047
25674W        W42148  18.157  14.746  11.179 -0.0336  0.0895  0.3327
25675W        W42149  14.861  19.095  11.995  0.1311 -0.2346  0.0918
25676W        W42150  12.324   2.790   5.152  0.2089  0.4847 -0.3870
25677W        W42151   0.411   4.939  11.755 -0.3035 -0.0186 -0.1320
25678W        W42152  14.783   7.965   4.327 -0.1360  0.0591 -0.0108
25679W        W42153  10.229   9.498  12.435 -0.0556 -0.2606 -0.1006
25680W        W42154   1.002  13.190  14.542 -0.2045  0.0342 -0.0521
25681W        W42155   7.712   9.108  12.949 -0.2250  0.1216  0.1675
25682W        W42156  12.626   3.334   3.793  0.2243 -0.1767  0.1086
25683W        W42157   7.789  14.845  14.738 -0.2176 -0.1553  0.0529
25684W        W42158  10.474   1.700  10.651  0.0878 -0.0829  0.2900
25685W        W42159   2.462  17.115  13.706  0.1631 -0.2846  0.0145
25686W        W42160   3.426   6.790   3.422 -0.3157 -0.1352 -0.0162
25687W        W42161   9.320  16.258  10.941 -0.1801  0.2853 -0.2197
25688W        W42162   2.070  17.143  12.211  0.2900  0.1021  0.0009
25689W        W42163   4.619   0.313  10.149  0.3108 -0.0551 -0.0363
25690W        W42164  16.064  11.916  10.742  0.0582  0.3236  0.0829
25691W        W42165   3.850  14.171   4.063 -0.0785 -0.2864 -0.3101
25692W        W42166   2.393  15.915  11.208 -0.0330  0.3083 -0.3652
25693W        W42167   3.834  10.901   4.642 -0.4310  0.1893 -0.0971
25694W        W42168   1.750   7.442   2.799 -0.1731 -0.0328 -0.0093
25695W        W42169   6.075  14.672   2.166  0.0413  0.0055 -0.1313
25696W        W42170  17.231   1.808   2.639  0.2049 -0.0559 -0.0004
25697W        W42171  17.456   3.230  14.649  0.0626 -0.1091 -0.0211
25698W        W42172   8.366   9.691   3.794  0.0452  0.2618  0.1028
25699W        W42173  12.655  18.235  11.407 -0.1510 -0.2966 -0.1369
25700W        W42174   3.400   2.565   2.058 -0.3569  0.0064  0.0208
25701W        W42175   6.768   8.421   1.178  0.3479 -0.3505  0.0619
25702W        W42176   2.096   5.899   2.603  0.2340 -0.1488 -0.0352
25703W        W42177  12.774   0.401  13.805  0.2433 -0.0076  0.3212
25704W        W42178   7.101  10.167   0.032 -0.2650  0.0026 -0.0967
25705W        W42179  13.703   7.607   0.119  0.2100  0.0358 -0.0840
25706W        W42180  17.638  13.634   0.031 -0.2535 -0.0605  0.0542
25707W        W42181   4.731  13.843   4.560  0.2307  0.0735  0.2854
25708W        W42182  12.384  18.806   4.426  0.1915  0.0758 -0.1746
25709W        W42183  12.674  15.736   3.855  0.3633 -0.2608 -0.2661
25710W        W42184  12.640   3.790   1.694  0.3717  0.1263  0.0285
25711W        W42185   9.636   3.212  12.694  0.1107 -0.0355 -0.2397
25712W        W42186  15.572   8.559  13.102 -0.0246  0.0154  0.2796
25713W        W42187  18.222  14.944   1.276 -0.2151 -0.0120 -0.1074
25714W        W42188  17.022   1.802   0.258 -0.0896  0.1459 -0.1162
25715W        W42189  10.210   6.064  11.039 -0.0254  0.1940 -0.1968
25716W        W42190  10.241   3.218   4.910  0.1262  0.2753 -0.4116
25717W        W42191   6.031   7.400   1.607  0.0512  0.0002 -0.0017
25718W        W42192   4.051  10.804  12.132  0.1358  0.2479  0.0621
25719W        W42193  17.025  17.505   4.201 -0.4234 -0.0644  0.1014
25720W        W42194   0.666  13.484   0.356  0.0667 -0.1158 -0.1092
25721W        W42195  16.547   8.536   2.978 -0.2667 -0.3812  0.0718
25722W        W42196  18.554  17.058   1.800 -0.3419  0.2506  0.1497
25723W        W42197   2.667   0.769  13.644 -0.1682  0.1032 -0.1437
25724W        W42198  11.641  18.632   0.952  0.2421  0.0691 -0.3159
25725W        W42199  13.852   8.076  12.724  0.1053  0.3363 -0.0120
25726W        W42200   4.970   9.998   1.484  0.0188 -0.0451 -0.0819
25727W        W42201  10.790   2.339   1.121 -0.1486 -0.0826  0.0332
25728W        W42202  18.887   7.893   4.832 -0.2947 -0.3142 -0.3395
25729W        W42203  16.970  17.085   1.332  0.0111 -0.2978 -0.0487
25730W        W42204  14.773   0.367   5.819 -0.1438 -0.1472  0.0626
25731W        W42205   6.135   1.766  13.305 -0.3832 -0.1333 -0.1339
25732W        W42206  10.179   1.623  12.226  0.1304  0.0742 -0.2281
25733W        W42207   2.782  14.600  11.920 -0.3805 -0.3110 -0.1170
25734W        W42208  12.848   5.639  13.712  0.0789  0.1068 -0.2293
25735W        W42209   1.830   2.488   3.852  0.1433 -0.1531  0.0287
25736W        W42210  18.265  17.896   3.543 -0.2856 -0.0949 -0.0075
25737W        W42211   5.223  18.337   2.106  0.0109 -0.2760 -0.0940
25738W        W42212  18.268   7.176  11.591 -0.3202 -0.1927  0.4594
25739W        W42213  10.265  14.687   0.231 -0.2135 -0.1058 -0.0360
25740W        W42214  12.316  11.812  11.313  0.0207 -0.0553  0.3598
25741W        W42215   5.638   3.940   2.456 -0.2669  0.0716 -0.0724
25742W        W42216   2.823  10.750  11.866 -0.2557 -0.0609 -0.1852
25743W        W42217   4.723   2.871   4.029  0.0390 -0.0016  0.1667
25744W        W42218  11.236  13.565  11.989 -0.1280  0.0371 -0.0978
25745W        W42219   6.844   5.900  11.073 -0.0942  0.1183  0.0225
25746W        W42220   0.538  12.765   2.172 -0.0588  0.0611 -0.0175
25747W        W42221  10.750   6.491   5.205 -0.2842  0.2839 -0.1773
25748W        W42222   3.076   9.198  11.215 -0.0720  0.2365 -0.2058
25749W        W42223  11.385   2.572   2.143 -0.1428 -0.1071 -0.0503
25750W        W42224   4.243  14.821  14.149  0.2271 -0.0746 -0.0203
25751W        W42225  10.710   8.648   1.385 -0.1909  0.0075  0.2724
25752W        W42226  18.178  16.221  10.864 -0.3427 -0.0601  0.0227
25753W        W42227   7.489  18.814  12.648  0.1075  0.1396  0.1317
25754W        W42228  14.449  15.294  13.604 -0.1567 -0.0231 -0.2332
25755W        W42229  10.115  14.003   3.995 -0.3282  0.1627 -0.1962
25756W        W42230  15.850  10.064  12.414 -0.1214 -0.1082  0.0816
25757W        W42231  16.209   6.908   0.486  0.3206 -0.1167  0.1074
25758W        W42232  11.795  11.596   0.272  0.0234  0.0379  0.4531
25759W        W42233   4.396  15.289   5.089  0.3526 -0.1874 -0.1576
25760W        W42234   3.371   8.373  11.150 -0.1382 -0.0821  0.0435
25761W        W42235   0.795   9.870  14.581 -0.0053 -0.2257  0.2389
25762W        W42236  17.144  16.902   3.451  0.1625  0.1436  0.0560
25763W        W42237   1.313   8.363   2.680  0.1473 -0.1556  0.0713
25764W        W42238  18.738   5.245  12.888 -0.1800 -0.0340 -0.2076
25765W        W42239   5.090  16.414  14.077  0.2674 -0.0265  0.1423
25766W        W42240  17.910  17.320   0.144 -0.0540 -0.1763  0.0496
25767W        W42241   8.410   3.935   9.878 -0.2203  0.1573  0.2033
25768W        W42242  10.428   5.198  11.456  0.0348 -0.0746 -0.1458
25769W        W42243   5.895  11.401  10.834  0.0181 -0.1944  0.3491
25770W        W42244  18.575   6.598   3.730 -0.0163  0.0778  0.5270
25771W        W42245  18.899  17.324  12.280  0.2489  0.1720 -0.3036
25772W        W42246  10.973  12.902  10.717 -0.0839 -0.1244  0.1143
25773W        W42247  12.901  10.029  13.314  0.0073  0.1143 -0.0875
25774W        W42248  16.737   2.393   2.211  0.0418  0.0068  0.0202
25775W        W42249   5.329   1.758   4.103 -0.1027 -0.0189  0.1366
25776W        W42250  12.476  14.455   3.031  0.2419 -0.3583  0.0796
25777W        W42251   1.427  11.218  10.190  0.0974  0.2284  0.1022
25778W        W42252   9.433   1.228  13.652  0.1139  0.0977  0.0085
25779W        W42253  18.878  12.767  13.868  0.0706 -0.3436 -0.2938
25780W        W42254   3.502   2.844   4.643 -0.1004 -0.2627  0.1329
25781W        W42255  15.557   0.619   3.185  0.1661  0.1350 -0.5795
25782W        W42256  19.227  13.525   1.113 -0.2071  0.0107  0.0743
25783W        W42257   6.621   7.753  12.268  0.1503  0.1671  0.0203
25784W        W42258   6.430  11.641   0.470 -0.0090  0.0371 -0.0653
25785W        W42259   9.685  14.878  12.614 -0.4590  0.1493  0.1641
25786W        W42260  12.808   8.541  12.973  0.2507  0.0195  0.1384
25787W        W42261   5.452   1.389   2.028 -0.0245  0.0769  0.1259
25788W        W42262   1.087  18.902   2.794  0.3043 -0.0431 -0.1362
25789W        W42263  10.893   3.163   1.592 -0.0599  0.2268  0.0906
25790W        W42264  11.465  18.425  14.790  0.4751 -0.0894 -0.1815
25791W        W42265   9.907  10.321   0.422  0.0216 -0.0708 -0.3834
25792W        W42266  17.672   3.226   3.533  0.3187  0.1497  0.1178
25793W        W42267   3.134  13.705  14.137 -0.0130  0.0338  0.1408
25794W        W42268  14.282   0.185  14.443 -0.0387 -0.0341  0.0005
25795W        W42269   5.926  11.602  14.783 -0.0663  0.1132  0.1007
25796W        W42270   3.629  15.187   3.803  0.5247  0.0569  0.1595
25797W        W42271  13.614   4.149   5.307  0.4512  0.0865  0.0088
25798W        W42272  13.391  15.916   2.130  0.0959 -0.0050 -0.4545
25799W        W42273   7.009   8.360   3.580  0.0098 -0.2941  0.0130
25800W        W42274  15.802  12.432   2.375  0.1851  0.1090  0.0143
25801W        W42275   5.401   8.798   0.685  0.3482  0.4232 -0.0363
25802W        W42276   7.716  15.556  13.642  0.0837 -0.2213  0.1593
25803W        W42277   1.552   1.461   2.025 -0.2393  0.2417  0.0281
25804W        W42278   1.882   0.524  12.052  0.1732 -0.0333  0.1290
25805W        W42279  14.490   0.471   4.207  0.4508 -0.1386  0.0197
25806W        W42280  13.933   9.517   2.174 -0.2415  0.1003 -0.0038
25807W        W42281   7.801  13.197  11.618  0.0506 -0.2401  0.1229
25808W        W42282  10.102   9.850   9.157 -0.3358 -0.2165 -0.1791
25809W        W42283  11.210  14.745  13.840 -0.1056 -0.0573 -0.0222
25810W        W42284   6.538  18.156   2.168 -0.0846  0.2422  0.0392
25811W        W42285  15.458  11.040   2.384  0.0456  0.0193 -0.1491
25812W        W42286  18.301  11.576   3.327 -0.1066  0.1916  0.1798
25813W        W42287   5.363  12.688   5.141 -0.1605  0.1975  0.0299
25814W        W42288  18.625  12.953  13.108 -0.4978 -0.1450 -0.2417
25815W        W42289   3.012   2.030   3.939 -0.3382 -0.0296 -0.3127
25816W        W42290   7.248   4.055  12.843 -0.1206  0.2647 -0.5170
25817W        W42291   7.945  17.179  11.731 -0.0173 -0.2196 -0.0700
25818W        W42292   2.784  16.916   2.608  0.1936 -0.1220  0.2559
25819W        W42293  18.851   5.974  14.517  0.2047 -0.3264  0.3529
25820W        W42294  10.779   7.896   2.257 -0.1856  0.1372 -0.2647
25821W        W42295   3.784   5.975   1.725 -0.0533  0.1739 -0.1686
25822W        W42296  11.304   2.327  13.639 -0.0941 -0.1150 -0.3051
25823W        W42297  12.969   6.549  14.402  0.1986  0.2093  0.4030
25824W        W42298   8.644   3.356  12.539 -0.1732  0.1627 -0.0432
25825W        W42299   6.861  14.957  12.955 -0.1154  0.2512  0.0362
25826W        W42300  10.357  14.919   0.852 -0.0564  0.1818 -0.0460
25827W        W42301  15.961  10.945  14.469 -0.1326  0.0672 -0.1517
25828W        W42302   9.616  19.015  13.119 -0.1310  0.0027  0.0466
25829W        W42303   1.559  14.502   5.567  0.1535  0.0632 -0.0303
25830W        W42304   7.666   8.993   2.720  0.0777  0.2276  0.1131
25831W        W42305  16.522  14.255  10.929 -0.2136 -0.2114 -0.0591
25832W        W42306  16.978   6.044   4.654 -0.0379  0.0055 -0.4293
25833W        W42307   4.435  13.733  10.271  0.0588  0.2536  0.0473
25834W        W42308   7.999  10.214  13.309 -0.1126 -0.3446  0.0106
25835W        W42309  11.342  17.037   2.781 -0.1014  0.0446 -0.2420
25836W        W42310   8.382   0.800  14.627  0.1693  0.0283  0.1215
25837W        W42311  15.051   6.074  14.766 -0.1772  0.1267  0.2460
25838W        W42312  13.922   4.991  10.007  0.1029  0.1475  0.2242
25839W        W42313  12.820  14.673   2.223 -0.0506  0.0248  0.0479
25840W        W42314  16.698   8.985   1.791 -0.2277  0.2516 -0.3173
25841W        W42315   5.744   1.077   9.837 -0.0232 -0.0068 -0.2783
25842W        W42316   4.270  17.404  14.788 -0.2913 -0.0800  0.0187
25843W        W42317   2.886   7.712  12.260 -0.1828  0.0000  0.1721
25844W        W42318  17.135   2.459   1.561  0.2849  0.1560  0.3100
25845W        W42319  18.074  19.301  11.305 -0.0886  0.1565 -0.3915
25846W        W42320  17.350  15.777   2.557 -0.0386  0.0372  0.0283
25847W        W42321   7.464   1.376   1.947 -0.2320 -0.2795 -0.1419
25848W        W42322   4.360   7.503  11.791  0.1967 -0.2491 -0.1085
25849W        W42323  16.309   7.161   4.591  0.3870  0.0940  0.2698
25850W        W42324   7.438   4.978   0.070  0.1458  0.0526 -0.1156
25851W        W42325   2.127   6.552  14.011 -0.1860  0.0406  0.0655
25852W        W42326  11.593   2.991  13.081 -0.2464  0.4789 -0.1358
25853W        W42327  16.315  16.942   5.245 -0.1969 -0.1763 -0.5494
25854W        W42328   3.987   5.804  13.385  0.0160 -0.0912 -0.0402
25855W        W42329  18.780  17.894   4.965  0.0472  0.0369  0.0544
25856W        W42330  12.473  12.956   2.467  0.0891  0.0715 -0.3100
25857W        W42331   1.792  12.530  13.068 -0.0977 -0.2836  0.0281
25858W        W42332   3.625  11.847  13.836 -0.2773  0.3368 -0.1637
25859W        W42333  17.311   8.939  11.314 -0.2074  0.1248 -0.0229
25860W        W42334   2.408  16.975   1.500 -0.2912 -0.0714 -0.0949
25861W        W42335   7.959  14.317  14.353  0.0437  0.1777 -0.1835
25862W        W42336  16.538  10.607   4.222 -0.1112  0.1994  0.1224
25863W        W42337  14.531   9.449   0.607  0.0697 -0.0641 -0.1480
25864W        W42338   2.370  13.414   4.271 -0.0678 -0.0771 -0.1415
25865W        W42339  15.312  13.297   4.439 -0.0562 -0.0054 -0.0512
25866W        W42340  16.336  19.103   5.035  0.1135 -0.2161 -0.0083
25867W        W42341   0.842   3.767   2.212 -0.2208 -0.1555 -0.2240
25868W        W42342  13.383  13.896  12.269 -0.0127  0.1310 -0.2140
25869W        W42343   0.854  15.362  12.217  0.1172 -0.1126 -0.2703
25870W        W42344   6.358  16.852   2.386  0.1399 -0.0061 -0.2139
25871W        W42345  15.738   2.863   4.428 -0.0292  0.1613 -0.0671
25872W        W42346   1.652  14.950  13.487  0.3794 -0.0747  0.1119
25873W        W42347  13.339   0.922  14.540 -0.3517 -0.1671  0.0425
25874W        W42348   1.084   0.400  11.205  0.1937  0.0412 -0.1701
25875W        W42349  13.341   7.801  10.011  0.0134  0.2288 -0.1542
25876W        W42350  17.915   7.656  12.742 -0.1596 -0.3303 -0.0863
25877W        W42351  16.921   4.540  10.300  0.2522 -0.1064  0.0889
25878W        W42352   3.289   7.357   1.881  0.0135  0.0857 -0.2225
25879W        W42353  12.033   8.111   5.347 -0.0280 -0.0397  0.2260
25880W        W42354   5.376  17.277   5.122  0.0063 -0.0100 -0.1849
25881W        W42355  14.435  14.595   0.268 -0.1151 -0.0447  0.0720
25882W        W42356  15.419   6.732  12.995 -0.0315 -0.0311  0.3559
25883W        W42357   4.610  14.321  11.650 -0.0882 -0.0620  0.0787
25884W        W42358   4.833   3.716   0.863  0.0839 -0.1943  0.1265
25885W        W42359  16.881   0.042   3.352  0.1288 -0.3365  0.0582
25886W        W42360  16.330  11.428   0.122 -0.0004  0.2700  0.1861
25887W        W42361  14.064   4.386  11.626 -0.0681 -0.1731 -0.1605
25888W        W42362   2.432  15.219   1.156 -0.0363  0.2263  0.0255
25889W        W42363   3.842   7.358   1.162 -0.0068  0.1673  0.0899
25890W        W42364   6.994  17.905   0.092  0.1543  0.2432  0.2365
25891W        W42365   0.059  17.591  13.175 -0.5826 -0.3389  0.0159
25892W        W42366  18.327  17.475   2.484 -0.4174  0.3221 -0.0799
25893W        W42367   2.959   9.714   4.527  0.3118 -0.2515 -0.0333
25894W        W42368   7.474  13.109  13.615  0.0792 -0.0509  0.0541
25895W        W42369  18.347  18.059  12.784 -0.3081 -0.1586  0.0791
25896W        W42370   0.666  17.092   1.542 -0.1241  0.1540 -0.1636
25897W        W42371  18.160  11.039   4.357 -0.3046  0.0602  0.1857
25898W        W42372  14.236   3.987  11.987  0.2465 -0.2969 -0.0353
25899W        W42373  11.464   0.478   0.608 -0.0975 -0.0215 -0.4277
25900W        W42374   1.771   8.736  11.129  0.0441 -0.2979 -0.1817
25901W        W42375   6.240  18.254   9.958 -0.1506 -0.1344  0.0220
25902W        W42376  18.598   5.884  13.196  0.1884  0.0840 -0.0116
25903W        W42377  10.342   1.572  11.749 -0.1462 -0.1647 -0.1614
25904W        W42378   1.716  12.640  13.576 -0.0077 -0.0203  0.3465
25905W        W42379  16.348   0.496   2.236  0.0988  0.3122  0.2376
25906W        W42380   9.597  12.524  11.646  0.0386 -0.0632 -0.2241
25907W        W42381  15.167  13.662   2.163  0.0598  0.1470 -0.2129
25908W        W42382  14.470   1.865  10.012  0.1162  0.0717 -0.0603
25909W        W42383  16.820   2.346   1.075 -0.0288 -0.1068 -0.2946
25910W        W42384   7.548  12.150   4.649  0.2146 -0.0012  0.0044
25911W        W42385  11.871   2.629   4.964 -0.2793  0.0565  0.0458
25912W        W42386   4.652  12.536   2.254 -0.3261  0.0690 -0.1876
25913W        W42387  15.984   3.043   1.955 -0.5447 -0.1761 -0.0852
25914W        W42388  15.102   7.959   5.728  0.0307  0.2051  0.1227
25915W        W42389   7.031  18.193   2.289 -0.0004  0.0892  0.0100
25916W        W42390  16.500  18.025   1.278  0.1182  0.3288  0.0736
25917W        W42391  13.644  16.871  11.850  0.1786  0.2125 -0.3519
25918W        W42392  11.344  18.586   3.207 -0.4386  0.1644 -0.1788
25919W        W42393  15.488   1.475   3.838  0.1707  0.3469 -0.1666
25920W        W42394  18.703   1.588   0.800 -0.4479 -0.0060 -0.1626
25921W        W42395   3.463  18.148   2.446 -0.1653 -0.0478  0.0454
25922W        W42396  14.712   3.335   5.473 -0.3071 -0.0944  0.0850
25923W        W42397   2.508   2.180   0.254  0.0745  0.4096 -0.3360
25924W        W42398  16.215  10.209   1.957  0.0169 -0.0512 -0.0726
25925W        W42399  13.080  11.188   2.852 -0.2592  0.0242 -0.0724
25926W        W42400  15.985  12.285   3.445  0.2998 -0.1372 -0.0509
25927W        W42401   2.541  15.140   4.224 -0.0039 -0.1414  0.2621
25928W        W42402  16.135   0.838  11.079  0.2436  0.0576 -0.2706
25929W        W42403  13.092  18.323   3.098  0.1926  0.0671 -0.0001
25930W        W42404  13.137  11.472  13.618  0.1107  0.0211 -0.3767
25931W        W42405  18.562   6.531  13.511 -0.0548 -0.0225  0.1315
25932W        W42406  17.942   0.198  12.360  0.1485 -0.1110  0.1898
25933W        W42407   3.879   5.880   2.239 -0.2115 -0.0720 -0.1030
25934W        W42408  19.334   0.295  14.562 -0.1630  0.3431  0.5111
25935W        W42409  17.751   3.602   0.268  0.0094 -0.1470 -0.3234
25936W        W42410   7.622   1.363   2.887  0.0213 -0.1024 -0.3332
25937W        W42411   1.593  16.957   2.670 -0.1138  0.0580  0.1861
25938W        W42412   0.903   1.276   3.734  0.2201  0.1795  0.0552
25939W        W42413   7.613  17.754  12.337  0.0170  0.0740  0.1340
25940W        W42414   0.569  18.829   3.418 -0.1117  0.1332 -0.3744
25941W        W42415  12.847  10.429  11.849 -0.3073  0.2244 -0.0077
25942W        W42416  14.682   4.956   4.612 -0.3421  0.0296  0.5898
25943W        W42417  12.646   0.186   2.510  0.2390  0.1320 -0.1496
25944W        W42418   9.108   8.033   3.530  0.3049 -0.1381 -0.0427
25945W        W42419   0.500   9.220   4.252  0.0980  0.3758 -0.3583
25946W        W42420   4.224   7.632   2.927  0.1315  0.2102 -0.0028
25947W        W42421   0.453  18.444   3.727 -0.2807 -0.2454 -0.0964
25948W        W42422  12.225   0.043   2.928 -0.1638 -0.1036 -0.0617
25949W        W42423   5.931  11.217  11.805  0.3517 -0.1016  0.3952
25950W        W42424   2.564  11.258   0.088  0.0948 -0.3257 -0.1974
25951W        W42425  13.861  14.915   4.644  0.4070 -0.1087  0.2201
25952W        W42426   2.205   2.479  14.047  0.3535 -0.0176 -0.1865
25953W        W42427   9.981   3.091   0.662 -0.0102 -0.2473 -0.0169
25954W        W42428  11.353   5.496  11.580  0.1846  0.0629 -0.3741
25955W        W42429   8.530  14.753  11.807 -0.0501  0.2923  0.1416
25956W        W42430   9.470  17.723   1.464 -0.1996 -0.1909  0.0317
25957W        W42431  11.609   7.484  10.625 -0.2199 -0.1566 -0.3683
25958W        W42432  16.041  12.202  14.308 -0.2192  0.2251  0.0974
25959W        W42433   2.361  10.029   3.399  0.0190  0.1065 -0.2136
25960W        W42434   1.229  11.150   0.494 -0.4143  0.3080  0.0547
25961W        W42435   0.624   7.112   2.099  0.0832  0.1342  0.2475
25962W        W42436   7.257  13.607   0.546  0.2553 -0.1022  0.2140
25963W        W42437  11.006  19.147   4.089  0.0078  0.1657  0.5953
25964W        W42438   6.108   8.157   1.135 -0.0358  0.0656 -0.1295
25965W        W42439   1.271  15.014   0.782  0.2152  0.1601 -0.1227
25966W        W42440   4.183  17.993  10.658 -0.1135  0.1084 -0.1855
25967W        W42441   4.860  16.916  12.380  0.1461  0.0868  0.0843
25968W        W42442  10.486   4.680   2.388 -0.0283 -0.0012 -0.0191
25969W        W42443  15.829   9.606  13.675 -0.0833  0.3142  0.0279
25970W        W42444   1.769   2.532   4.420  0.1332 -0.1565  0.2820
25971W        W42445   7.963  15.208   4.842  0.0164  0.0867  0.3615
25972W        W42446   3.083  15.097  13.919 -0.0494 -0.1262 -0.2171
25973W        W42447   9.508  15.441  10.617 -0.1480  0.0010 -0.1677
25974W        W42448   8.457   5.819  10.598 -0.0919 -0.0269 -0.1246
25975W        W42449   4.247   6.572  10.834 -0.1626 -0.2508  0.2047
25976W        W42450  18.353   6.980  14.335  0.0108  0.1010  0.0617
25977W        W42451  16.596   3.486   2.385 -0.2663  0.0368  0.0452
25978W        W42452  14.717  17.201  11.000  0.1243  0.2216  0.1377
25979W        W42453  14.050  17.117   2.030  0.0909  0.0497 -0.0540
25980W        W42454  14.799   0.369   3.777  0.2295 -0.0646  0.0423
25981W        W42455   2.290   5.081   4.043 -0.0562 -0.0285  0.2728
25982W        W42456   6.890  18.756   3.173 -0.1832  0.2258 -0.1654
25983W        W42457  15.149  17.867  12.915 -0.1926 -0.3043 -0.0708
25984W        W42458  10.381  15.894  14.466 -0.1571 -0.1220  0.0982
25985W        W42459   7.406  19.216   9.181  0.1476  0.2334 -0.0920
25986W        W42460   1.697  17.890  10.591  0.2850  0.1267 -0.2094
25987W        W42461   3.090  12.838  10.340  0.0522  0.2354 -0.1594
25988W        W42462  13.317  18.784  12.862  0.4816 -0.2134 -0.1180
25989W        W42463  13.832   2.000  13.949 -0.1562 -0.4402 -0.0184
25990W        W42464   3.611  19.057   1.579 -0.2282 -0.2111  0.0907
25991W        W42465   5.574   7.260  10.842  0.2502 -0.3293  0.1531
25992W        W42466   8.107   9.573  13.923  0.2506 -0.1861 -0.0890
25993W        W42467  14.206  19.094  12.278  0.3233 -0.1595 -0.0925
25994W        W42468   6.036   3.484  11.891  0.0224 -0.3213 -0.0764
25995W        W42469   7.042   5.248  13.401  0.2060 -0.0449 -0.1718
25996W        W42470   4.769   9.623   0.763 -0.1264 -0.1389  0.2719
25997W        W42471   8.926   4.330  13.615 -0.2263  0.3395  0.0065
25998W        W42472   2.466   2.842  13.183 -0.0647 -0.1182  0.0185
25999W        W42473   0.653   9.615   1.129  0.0972  0.2187  0.1176
26000W        W42474   6.512  12.059   0.872 -0.1431 -0.3456  0.1308
26001W        W42475  11.207  17.605   9.367 -0.1613  0.0756  0.0313
26002W        W42476   2.310   0.483   0.631  0.2235  0.2349 -0.1945
26003W        W42477   6.451   1.560  10.690  0.2633 -0.0931 -0.2276
26004W        W42478  18.922  18.807  12.328 -0.0214  0.2940 -0.3128
26005W        W42479  10.431  10.434  13.483 -0.4001  0.0293 -0.3336
26006W        W42480  12.798  11.332  10.521  0.2817 -0.0462 -0.1585
26007W        W42481   1.284  14.920   5.400 -0.0135 -0.2800  0.0306
26008W        W42482  14.552  16.829  10.637 -0.0341 -0.3051 -0.2334
26009W        W42483   3.541  14.375   5.210  0.1812 -0.0180 -0.2338
26010W        W42484  18.685   3.014   3.158 -0.2553  0.0985 -0.2472
26011W        W42485   7.884  12.255   0.593  0.1804 -0.1412  0.0727
26012W        W42486   8.908   4.040   5.066 -0.0867  0.0290 -0.2461
26013W        W42487  14.975   5.689  12.015 -0.2442 -0.1873 -0.0165
26014W        W42488   3.470  16.879  11.170  0.0058  0.1077  0.0556
26015W        W42489   7.758   4.814  11.435 -0.1561 -0.1256 -0.0085
26016W        W42490  15.888  18.725   4.224  0.0698  0.1238  0.1193
26017W        W42491   0.684  14.051   1.890  0.0139  0.0351 -0.2770
26018W        W42492   1.734  13.905  11.340  0.1579 -0.0410 -0.0864
26019W        W42493  15.878   5.898  13.143 -0.3313 -0.0133  0.0515
26020W        W42494   8.589  16.859  14.747  0.2572 -0.3352  0.0617
26021W        W42495   6.874   5.771   2.445 -0.2285  0.0714  0.2847
26022W        W42496   2.041  12.265  13.368 -0.1844 -0.2821 -0.0898
26023W        W42497  11.746  12.518  14.648  0.2101  0.1594 -0.1068
26024W        W42498   1.404  12.605   2.521  0.1028 -0.3834 -0.1763
26025W        W42499  10.612   4.163  12.198  0.0251  0.0616  0.3103
26026W        W42500   7.156  17.435  12.295  0.1474 -0.1976  0.0442
26027W        W42501  14.163   3.769   2.896  0.2291 -0.1998 -0.0386
26028W        W42502  18.728   9.661   3.671 -0.0414 -0.3460 -0.1635
26029W        W42503   3.515  11.325   0.703 -0.0855  0.0265  0.1072
26030W        W42504  12.313   4.506  13.113 -0.0900  0.1713  0.0818
26031W        W42505   7.957   9.749  13.425 -0.0549  0.1043  0.2015
26032W        W42506   8.153  18.032   0.582 -0.0255  0.0104  0.1192
26033W        W42507   5.911   2.758  10.335  0.0780 -0.1452  0.1865
26034W        W42508   4.468   0.005   2.330  0.1755 -0.2127 -0.3138
26035W        W42509   9.256   3.284   3.587 -0.0461  0.0299 -0.1680
26036W        W42510   5.655  11.289   1.436  0.2410 -0.1070  0.1987
26037W        W42511   9.292   5.500  13.760 -0.2966 -0.3184  0.1949
26038W        W42512  14.198   8.379   2.373  0.2294  0.0360 -0.1847
26039W        W42513   2.121   9.020   3.381 -0.2609 -0.0873  0.2937
26040W        W42514  15.714   9.266  12.566  0.1158 -0.0206  0.0258
26041W        W42515  18.407  17.193   2.912 -0.0966 -0.0396  0.0460
26042W        W42516   8.111   8.545  12.366  0.0127 -0.1199  0.0265
26043W        W42517   3.764  11.221   4.207 -0.0613  0.0331 -0.1877
26044W        W42518  10.450  15.053  14.694 -0.0056 -0.1513 -0.2186
26045W        W42519  17.997   4.808   5.551 -0.0031 -0.0079 -0.1971
26046W        W42520  13.230   8.971  11.554  0.1046  0.0905 -0.1625
26047W        W42521  17.341   4.323  10.434 -0.1047 -0.1214  0.0169
26048W        W42522  12.458  12.655  13.758 -0.0138 -0.0987  0.0164
26049W        W42523  16.938   5.881  14.202 -0.2369  0.1569 -0.2162
26050W        W42524   1.072  15.262   3.050  0.1542  0.0539 -0.1920
26051W        W42525   0.028   6.410  11.239 -0.0216 -0.0260  0.2099
26052W        W42526  16.298   5.943  13.479 -0.1000 -0.1038 -0.2176
26053W        W42527  11.841  10.006  12.116  0.1406 -0.3188  0.1027
26054W        W42528  11.422  16.936  11.227  0.2804 -0.1218  0.1019
26055W        W42529  16.448   2.048   0.875  0.0415 -0.2266 -0.0034
26056W        W42530   4.819  12.569   5.142  0.0615 -0.1973  0.0979
26057W        W42531   7.192   9.738  14.213 -0.0005  0.0161 -0.0693
26058W        W42532   4.436  13.620  13.979 -0.1107 -0.1485 -0.0462
26059W        W42533   4.312   9.993  12.573  0.2152  0.0736  0.1346
26060W        W42534   4.107   3.049   4.037  0.0180  0.1049  0.1513
26061W        W42535  10.990  10.582  14.826 -0.1818  0.0048 -0.4052
26062W        W42536   9.428   9.854  14.641 -0.0176  0.1060 -0.2235
26063W        W42537  14.904   8.183   2.595  0.1042 -0.1106  0.1453
26064W        W42538  17.930  18.063   1.377  0.2101  0.2139 -0.1315
26065W        W42539   6.147   6.212  11.061 -0.2075 -0.0745 -0.0443
26066W        W42540  10.400   8.940  10.092  0.1387  0.1978 -0.2326
26067W        W42541   2.529  18.477   2.313  0.1176 -0.0225 -0.3315
26068W        W42542  14.062   8.886   3.581 -0.2026  0.0819  0.0156
26069W        W42543  14.542  17.082  11.970  0.0989  0.0672 -0.1627
26070W        W42544   3.227  10.467  12.588 -0.1585  0.2595  0.1078
26071W        W42545   5.632  19.048  11.034 -0.0572 -0.1106  0.0488
26072W        W42546   6.312  16.222  12.252 -0.3538  0.2832 -0.0955
26073W        W42547   2.338   6.696   5.075 -0.2577 -0.0204 -0.0135
26074W        W42548  17.965   7.392   1.658 -0.0295  0.1162  0.0329
26075W        W42549   8.372   2.932   2.716  0.0352 -0.0428 -0.0565
26076W        W42550   7.335  18.412  14.610 -0.1302  0.3329 -0.3593
26077W        W42551   1.431  13.299   4.841  0.2040 -0.0389 -0.3491
26078W        W42552   6.433  13.847   4.984  0.2285 -0.0311 -0.0547
26079W        W42553  10.244  15.266  12.802 -0.0029 -0.0626 -0.1345
26080W        W42554  11.739   0.788  14.640 -0.1205 -0.1214  0.0420
26081W        W42555   8.447   2.431  14.781  0.0704 -0.0062  0.2367
26082W        W42556  18.596   6.473  13.015  0.0228 -0.0844 -0.0988
26083W        W42557   9.895  17.573   5.079  0.1177  0.0761  0.0144
26084W        W42558  17.763   9.368  13.276 -0.3156  0.0515  0.0520
26085W        W42559  14.602  11.303  11.005 -0.1382 -0.0237 -0.0804
26086W        W42560  11.160   1.465   1.314  0.1984  0.2958  0.1010
26087W        W42561  18.791   4.672   3.189  0.0914 -0.0273  0.0466
26088W        W42562  16.936   3.542  14.121 -0.0120 -0.0588 -0.0758
26089W        W42563  13.669   9.402  13.167  0.1738  0.5253  0.0542
26090W        W42564   3.834  10.030   1.254 -0.0446  0.3082  0.1987
26091W        W42565   4.635  16.125   4.517  0.1478  0.1310  0.0829
26092W        W42566  15.140   1.535   4.276  0.0436  0.0011 -0.0145
26093W        W42567   0.947   7.101   0.561  0.2827  0.1963 -0.1168
26094W        W42568   4.978  14.657   3.209  0.1718  0.0216 -0.0121
26095W        W42569  19.367  14.570   3.884  0.0852  0.0092  0.2116
26096W        W42570  17.880  17.966   4.426 -0.1948 -0.1145  0.3144
26097W        W42571  13.587   1.843  14.535  0.2370 -0.2290  0.3729
26098W        W42572   1.187  10.816   0.916  0.2835  0.0076 -0.2052
26099W        W42573  13.459   4.303   0.861 -0.0583  0.0253 -0.0732
26100W        W42574  16.592  19.199   3.651 -0.3218  0.0824  0.2442
26101W        W42575  10.890   5.056  13.573 -0.0370  0.0102 -0.1590
26102W        W42576  17.360   8.950   3.150  0.1585 -0.0812  0.1532
26103W        W42577   7.919   8.834   3.226  0.0394 -0.0030 -0.1614
26104W        W42578   4.071  18.488   3.654  0.1290  0.0101  0.1211
26105W        W42579   2.641  11.967   3.600  0.0458 -0.3255  0.1316
26106W        W42580  18.094  15.280  14.156 -0.1857  0.0734  0.0917
26107W        W42581  19.264  12.038   4.799  0.0240  0.0077  0.1316
26108W        W42582   2.388   9.453  12.461  0.4476 -0.1019  0.0235
26109W        W42583  10.745   9.500   3.972  0.0143 -0.1159  0.0210
26110W        W42584   6.355  17.545  13.479  0.3644 -0.1829  0.2257
26111W        W42585  14.621   6.507  13.369 -0.1508 -0.1839 -0.2273
26112W        W42586  10.304  13.192  12.331 -0.1135 -0.0406  0.1849
26113W        W42587   1.699   1.197  14.438  0.0674 -0.0198  0.0346
26114W        W42588  11.391   5.172   1.043 -0.1782  0.4005 -0.1191
26115W        W42589  14.524  13.134  12.742  0.1168  0.1995  0.3427
26116W        W42590   6.058  17.524   1.924 -0.2676  0.5058 -0.0773
26117W        W42591  12.915   1.149   3.967  0.1138 -0.0940 -0.0068
26118W        W42592  16.176  13.066   2.780  0.1479  0.1553 -0.1058
26119W        W42593  11.970   8.541   1.715  0.1889 -0.1335 -0.1607
26120W        W42594   7.612   2.651   1.250  0.0766 -0.0361 -0.2014
26121W        W42595  12.109  12.138   2.722 -0.1250 -0.1460 -0.0175
26122W        W42596  15.298   0.283   2.941  0.0561  0.2102  0.0915
26123W        W42597   4.132  14.093  14.002  0.1949  0.1029 -0.1783
26124W        W42598   8.790  12.072  11.758 -0.1341 -0.0633 -0.1471
26125W        W42599  11.056  13.851  13.450  0.1178  0.0016 -0.1134
26126W        W42600   8.979  13.652   4.529 -0.0644  0.0806 -0.1767
26127W        W42601  13.538  14.896  10.941 -0.1624  0.0340  0.1351
26128W        W42602  13.567  18.451  13.765 -0.3111 -0.2068 -0.1172
26129W        W42603  18.681  11.838  14.446  0.0109 -0.0305 -0.1800
26130W        W42604   7.233   5.911  14.712  0.0108  0.0924  0.0255
26131W        W42605   4.868  17.576  13.985 -0.1731 -0.2302  0.2582
26132W        W42606  13.480  11.903   3.458 -0.1231 -0.3962 -0.0058
26133W        W42607  14.049  16.325   2.772 -0.0685 -0.1205 -0.2258
26134W        W42608  18.440   3.644   1.856 -0.1220 -0.1991  0.1877
26135W        W42609   1.305   5.425  13.568 -0.1568  0.0410  0.0252
26136W        W42610   4.757   7.246   4.776  0.1295 -0.0384  0.2012
26137W        W42611  12.961  17.993   4.614  0.1621 -0.0068 -0.1495
26138W        W42612  14.891  12.904  11.876 -0.0891  0.1251  0.2236
26139W        W42613  15.823  10.309  12.875  0.1478 -0.1421 -0.0517
26140W        W42614  13.388  19.334   5.695 -0.1193 -0.3093 -0.1092
26141W        W42615  10.537  12.632   4.218  0.0013 -0.0969  0.6357
26142W        W42616   0.773  17.705  11.366  0.0815  0.0810  0.1927
26143W        W42617   4.297   4.150   1.954 -0.1470  0.2233 -0.0964
26144W        W42618  10.175   0.237   9.644 -0.1178  0.2750 -0.2081
26145W        W42619   3.611   5.086   2.155  0.0901 -0.0951 -0.2947
26146W        W42620   4.744   9.864  11.586  0.1421  0.2519  0.0543
26147W        W42621   8.942  11.586   2.362 -0.4090  0.0658 -0.0741
26148W        W42622   7.245   6.967   1.595  0.1630 -0.1233  0.0694
26149W        W42623  13.924   0.670  13.881 -0.0924 -0.0147  0.1208
26150W        W42624  13.579  15.247  13.968 -0.4832  0.3204  0.2617
26151W        W42625   8.745   5.881  14.821 -0.0506 -0.1045  0.3210
26152W        W42626  12.392   9.382   0.872 -0.0414  0.1576 -0.1289
26153W        W42627  14.432   4.197   2.747 -0.0150  0.0176  0.1587
26154W        W42628  14.516   9.219  13.509  0.0227  0.0470  0.7639
26155W        W42629   8.864  16.967   3.498 -0.2343  0.1478  0.0912
26156W        W42630  11.238  18.513  13.817  0.2481  0.0221 -0.0071
26157W        W42631  14.322   8.961   2.133  0.4520  0.0599 -0.1031
26158W        W42632  17.859   5.105  13.127 -0.0662  0.1806 -0.3566
26159W        W42633  13.787   7.972   2.819 -0.0840  0.2277 -0.1179
26160W        W42634   3.033  18.424   2.303 -0.0489 -0.3027  0.1455
26161W        W42635  12.409   7.013   1.143  0.0606  0.1838  0.3244
26162W        W42636  17.562  18.371  12.158 -0.1654 -0.0530 -0.1411
26163W        W42637  18.748  13.821   1.123 -0.0793  0.4613 -0.2333
26164W        W42638   2.912   8.387  10.930  0.0662 -0.0130 -0.0829
26165W        W42639  13.208   9.289  11.932  0.3018  0.0786  0.0236
26166W        W42640   6.812   5.162   1.774  0.1051  0.0802  0.1073
26167W        W42641   2.318  10.014   0.007 -0.0610 -0.1568  0.2044
26168W        W42642  15.622   5.675  12.707 -0.1463 -0.0006 -0.0646
26169W        W42643   5.162   7.393  13.227 -0.0566  0.0647 -0.0501
26170W        W42644  10.371   4.931  14.452  0.0456 -0.1379 -0.1364
26171W        W42645   2.738  12.484   2.770 -0.0854 -0.3631 -0.3099
26172W        W42646   3.987  14.430   4.466 -0.0385 -0.1074  0.1604
26173W        W42647  16.434  14.136   2.807  0.0537  0.0827  0.0798
26174W        W42648  11.407   8.859   1.745 -0.2214 -0.1312  0.0853
26175W        W42649   1.071  11.433   1.716 -0.1734 -0.2648  0.2693
26176W        W42650   3.147  15.410  12.982 -0.0917  0.1765  0.0401
26177W        W42651  17.834  13.828   1.243 -0.1863 -0.0762 -0.0450
26178W        W42652  11.276   3.419  14.619  0.0978 -0.1653 -0.0496
26179W        W42653   9.720   1.315   2.297  0.0545 -0.1026 -0.0282
26180W        W42654  19.182  16.385  11.836 -0.2073 -0.3778  0.3629
26181W        W42655  11.456   9.567   3.551  0.5570 -0.0047  0.0055
26182W        W42656  15.016  18.385  12.902  0.0858 -0.0805 -0.4217
26183W        W42657   0.105   1.594  13.648  0.0843  0.1518 -0.0122
26184W        W42658  15.068   5.657   0.281  0.1431 -0.1761  0.0041
26185W        W42659   3.498  10.850  13.326  0.0487  0.2352  0.2861
26186W        W42660  14.423   5.897   1.931 -0.0229  0.0908  0.1384
26187W        W42661   1.383   6.328   4.749  0.0426 -0.0238  0.1563
26188W        W42662   3.784  13.576   2.645  0.3200  0.1055  0.1254
26189W        W42663   0.865   9.731  13.562  0.4135 -0.1486 -0.0289
26190W        W42664   8.744  14.446   2.251 -0.1681  0.0266 -0.0377
26191W        W42665  14.053   6.369  14.700  0.0966 -0.0543 -0.1113
26192W        W42666  14.009  13.423  13.677 -0.1880  0.2229  0.0905
26193W        W42667  12.028  10.810   1.381  0.2302 -0.1403  0.1334
26194W        W42668  17.247   9.974   1.762 -0.1663 -0.0509  0.0530
26195W        W42669  11.299  16.207   2.515  0.0218 -0.0366 -0.0073
26196W        W42670   5.726   0.275  13.670  0.2127  0.4584  0.2232
26197W        W42671   5.335  17.982  11.098  0.1108 -0.0506 -0.2512
26198W        W42672  14.560  14.345  13.383 -0.0064 -0.0532 -0.1299
26199W        W42673  10.022  11.707  11.337 -0.2044 -0.2539  0.0334
26200W        W42674  12.749  14.073   4.543  0.3048  0.0296  0.1396
26201W        W42675   2.662   2.205  14.254 -0.2319  0.2259 -0.2279
26202W        W42676   2.779  15.120   3.804 -0.0351  0.0314  0.2725
26203W        W42677  16.922   7.420  10.536 -0.0465 -0.3049 -0.0881
26204W        W42678   9.987  12.324   3.164 -0.3263 -0.1576 -0.2114
26205W        W42679   1.635   4.862  11.575 -0.1660  0.0167  0.0244
26206W        W42680  15.780  17.463  14.761 -0.0009 -0.0508  0.0847
26207W        W42681   5.670  14.993   1.504  0.0109  0.0034  0.1676
26208W        W42682  13.077   3.979  10.707 -0.1438  0.0180 -0.1354
26209W        W42683  17.886   8.522  13.797  0.1913  0.0879  0.0576
26210W        W42684  18.069   5.385  10.535 -0.0450  0.1604  0.0095
26211W        W42685  18.391   7.143   2.693  0.1281 -0.2569 -0.0710
26212W        W42686   9.882   9.640  14.633 -0.0364  0.0020  0.2024
26213W        W42687   6.808   1.389  11.704  0.0547  0.0252 -0.0478
26214W        W42688  16.929   0.117   1.109  0.0522  0.0072  0.0988
26215W        W42689  10.562   8.799   2.348  0.3191 -0.1322  0.2555
26216W        W42690  17.568  11.216  13.708 -0.0382  0.1818 -0.1416
26217W        W42691   3.554  16.136  12.609 -0.2912 -0.1401  0.2130
26218W        W42692   4.294   0.323   1.967  0.2486  0.0689 -0.1330
26219W        W42693   8.789  10.440   3.746  0.1796  0.0339 -0.1292
26220W        W42694  17.635  12.779   5.266  0.1081 -0.0965  0.0190
26221W        W42695  14.470  10.440  13.165  0.3915 -0.0114 -0.1532
26222W        W42696   9.436   8.819  10.383  0.0789  0.1574 -0.0262
26223W        W42697  12.827   5.336   0.879  0.0952  0.0066  0.1230
26224W        W42698  12.909  14.126   3.104  0.2130 -0.0394  0.1634
26225W        W42699  11.194   1.486   4.285 -0.1092 -0.0613  0.0882
26226W        W42700   3.171   0.694   3.743  0.0031 -0.0133 -0.0213
26227W        W42701  12.787   8.930   1.743  0.2650 -0.2864  0.2781
26228W        W42702   2.872   5.159   3.226  0.2318 -0.1141  0.0333
26229W        W42703   4.339  12.826  14.630 -0.2768 -0.0104 -0.2557
26230W        W42704  16.460  12.146  14.531 -0.1560 -0.1534  0.0423
26231W        W42705   6.014   9.934  10.599 -0.2778 -0.4108 -0.0097
26232W        W42706  11.479  17.570   0.860 -0.1121  0.0694  0.0595
26233W        W42707  16.791  14.173   4.448  0.0107 -0.0299  0.1216
26234W        W42708  16.102   7.294  13.872 -0.0979 -0.4038 -0.4123
26235W        W42709   1.554   1.982  10.428  0.4497 -0.1154 -0.0054
26236W        W42710   4.963  16.215  12.227  0.1258 -0.1685 -0.1259
26237W        W42711  15.769   3.656   0.798  0.1482  0.3794 -0.0158
26238W        W42712   6.973   7.961   1.379 -0.0467 -0.1598 -0.1626
26239W        W42713  11.016  17.167  14.590 -0.0112 -0.2215 -0.0335
26240W        W42714  11.069  11.935   1.237  0.1872 -0.1593  0.0900
26241W        W42715  19.104   1.057   3.960 -0.0844  0.4125  0.1502
26242W        W42716  12.546   8.321   4.373 -0.0800  0.1313 -0.0474
26243W        W42717   5.586  16.435  13.829 -0.1733  0.2653  0.0475
26244W        W42718   5.793   4.516   0.382  0.2142 -0.2437  0.2412
26245W        W42719   1.283  12.491   1.014  0.3806  0.2892  0.0526
26246W        W42720   3.426   5.301  14.511  0.2576 -0.5361 -0.2236
26247W        W42721   2.163   0.238   0.234 -0.1858  0.0592 -0.2362
26248W        W42722  17.180  12.844   1.522 -0.1882  0.2494  0.1434
26249W        W42723   1.993  12.218   5.476 -0.1361 -0.0237 -0.1279
26250W        W42724  17.483  15.792  10.787 -0.1297 -0.0497 -0.3703
26251W        W42725  10.579   0.195   0.251 -0.2241 -0.0283  0.1777
26252W        W42726   1.213   7.471   3.560 -0.2466 -0.1555 -0.1107
26253W        W42727  14.744   6.922   2.858  0.0800  0.2415 -0.5236
26254W        W42728  17.522   7.306  12.722 -0.0708 -0.1529  0.2593
26255W        W42729  13.423   3.775   1.568  0.0461  0.1436  0.1733
26256W        W42730  13.847  15.827  10.522 -0.0406 -0.1188 -0.1530
26257W        W42731  18.673  16.396  10.995 -0.0390  0.2770  0.1834
26258W        W42732   1.626   6.754   4.385  0.0232 -0.1407  0.0606
26259W        W42733   4.016  15.485  12.946  0.1269  0.3225  0.0497
26260W        W42734  12.374   2.762   1.172 -0.3030  0.1117 -0.3303
26261W        W42735  17.637   9.460   0.174  0.0903  0.1566 -0.0220
26262W        W42736  12.643   5.820  12.994 -0.2512 -0.0035 -0.0558
26263W        W42737   1.163  11.965  13.785  0.1621 -0.1103 -0.0924
26264W        W42738   9.382   6.513  10.458 -0.3455 -0.0902  0.1250
26265W        W42739  11.528  12.845   1.247  0.1564  0.0278  0.2012
26266W        W42740   2.881  17.844  12.647  0.1899 -0.1824  0.1139
26267W        W42741   6.934   7.633  14.331  0.0123  0.0815  0.2008
26268W        W42742  18.306  16.144   2.831 -0.1341  0.0481 -0.1684
26269W        W42743  12.771   6.897  11.327  0.0603  0.2720  0.3212
26270W        W42744   7.232  18.080   2.948 -0.2306 -0.0094 -0.4437
26271W        W42745  15.225  17.643   0.659 -0.2607  0.4157 -0.1015
26272W        W42746  17.759   3.982   2.603 -0.1141  0.1255  0.0362
26273W        W42747  10.415  12.581   3.298  0.3457 -0.0986 -0.1806
26274W        W42748  16.371   1.234  10.826  0.3174  0.0972  0.3548
26275W        W42749  17.005   7.940  12.673 -0.0134  0.3760  0.1170
26276W        W42750   3.936   8.542   2.795  0.2236 -0.0598  0.1710
26277W        W42751   4.195  13.521  12.204 -0.1398 -0.0752  0.2480
26278W        W42752   2.085  17.610  12.434  0.0498  0.0611  0.1234
26279W        W42753   2.818  10.862   3.715 -0.0834 -0.3028  0.2782
26280W        W42754   2.279  16.139  10.747  0.1538 -0.0789  0.1075
26281W        W42755   6.861  18.857  12.963  0.2012  0.2894 -0.2495
26282W        W42756   3.557   8.420   0.699  0.0866  0.2513 -0.1938
26283W        W42757  12.305   8.909   1.088 -0.2160  0.4066  0.1470
26284W        W42758   0.088  16.748   1.614  0.2427  0.0242  0.1634
26285W        W42759   3.096  15.200   4.207 -0.0566 -0.1141  0.2213
26286W        W42760  11.753  12.405   2.924 -0.2471 -0.2294 -0.2520
26287W        W42761  15.073  16.976  14.855  0.1952 -0.0247 -0.2325
26288W        W42762   5.618   2.375  14.717 -0.2684 -0.1866  0.2384
26289W        W42763  10.068  13.118   1.818 -0.1069 -0.3196 -0.0311
26290W        W42764  11.064   0.103  14.122  0.2855  0.2002  0.1237
26291W        W42765  12.425   0.248   1.583 -0.0138 -0.0396  0.2216
26292W        W42766   7.984  14.493   9.644 -0.2596  0.0503  0.1426
26293W        W42767   3.090  14.829   1.756 -0.0416  0.1544 -0.2725
26294W        W42768   1.194   4.581  11.243 -0.5017  0.0497 -0.2229
26295W        W42769   6.304   1.981  10.874  0.1345  0.2448 -0.0434
26296W        W42770   4.690   9.411  10.499  0.1006  0.1895 -0.2165
26297W        W42771   5.568  18.195   0.513 -0.1832 -0.2637 -0.3665
26298W        W42772   2.762   1.319   4.527 -0.0424  0.0862 -0.3005
26299W        W42773   0.719   8.522   1.848 -0.2667  0.3478 -0.0119
26300W        W42774  11.467   6.192  14.050 -0.0475 -0.0399 -0.0118
26301W        W42775   3.789   6.590   0.716  0.0338 -0.2546  0.2673
26302W        W42776   9.771   9.786   0.275 -0.0673 -0.1398  0.2958
26303W        W42777  18.545   9.407   4.111 -0.1140  0.0625 -0.1559
26304W        W42778  17.954   7.621  10.874 -0.0126  0.1776 -0.0691
26305W        W42779   0.294   4.838  10.751  0.0314 -0.2124 -0.3614
26306W        W42780   8.260  10.890  14.221 -0.1050  0.1470  0.1080
26307W        W42781  18.679  10.605   2.126 -0.0229  0.3914  0.0574
26308W        W42782  18.720   8.677   0.836 -0.0646  0.0391  0.0942
26309W        W42783  14.759   3.956   0.666  0.2598 -0.0437  0.0895
26310W        W42784   8.147  19.157   1.452  0.0943 -0.1249  0.3330
26311W        W42785  14.842  15.198   5.764 -0.0585 -0.1643  0.0258
26312W        W42786  12.918  18.285  13.018 -0.1318 -0.2268  0.4143
26313W        W42787  10.890  16.873  11.356 -0.1215  0.5009 -0.0791
26314W        W42788   8.283  15.114   0.073 -0.0940 -0.1307 -0.0892
26315W        W42789  17.800   5.532   1.092 -0.1226  0.0013  0.2828
26316W        W42790   8.312  15.625   1.742  0.2866 -0.0179  0.3111
26317W        W42791   8.952   0.121  11.171  0.2319 -0.1062 -0.0864
26318W        W42792   8.500  17.001   4.412  0.2948  0.0826 -0.0020
26319W        W42793  17.931  12.459  14.810 -0.0445  0.1489 -0.0942
26320W        W42794   4.316   9.770   4.165 -0.2123 -0.0367  0.0309
26321W        W42795  13.563  12.124  12.881  0.1041  0.0633 -0.2629
26322W        W42796   7.739  11.935  10.701 -0.1676 -0.1250 -0.1017
26323W        W42797  14.654   0.091   4.770 -0.0829 -0.2115  0.0012
26324W        W42798   3.878  19.257   4.039  0.1309  0.1531  0.1312
26325W        W42799  13.279   7.354  14.826 -0.1524 -0.0272 -0.2521
26326W        W42800   1.828   4.055   3.290  0.1118  0.0096 -0.0362
26327W        W42801  18.774  18.360   0.049 -0.3143 -0.3909  0.4063
26328W        W42802   1.913   0.058  11.129  0.0954  0.0315 -0.0364
26329W        W42803  16.455  10.803  14.322 -0.0258  0.1522 -0.0416
26330W        W42804   9.341   5.047  11.649  0.3093 -0.2127 -0.2947
26331W        W42805   7.471   5.201  12.350  0.0966 -0.0575 -0.0211
26332W        W42806  13.799   1.854   0.750 -0.3294  0.2148  0.4039
26333W        W42807  12.058   3.367   4.476  0.0937 -0.1900 -0.0963
26334W        W42808  16.535   7.510   4.984  0.1710 -0.1713  0.0709
26335W        W42809  18.370  13.748  12.634 -0.0789  0.0209 -0.0316
26336W        W42810   8.674   5.934   1.749  0.1133 -0.2516  0.3405
26337W        W42811   3.395  11.406  12.541  0.0218 -0.0286  0.1103
26338W        W42812  16.501   8.187  13.980 -0.0343 -0.0606  0.2910
26339W        W42813   7.784  13.895   2.830 -0.0333  0.3724  0.0950
26340W        W42814  17.176   1.327   5.107 -0.2472 -0.0716  0.0467
26341W        W42815  15.335   8.585  11.933  0.1826 -0.0742 -0.0328
26342W        W42816  16.265   2.897  11.220 -0.0286 -0.0322  0.0394
26343W        W42817  13.517   5.521   4.202 -0.1960 -0.2982 -0.3398
26344W        W42818   0.455   6.700  11.583 -0.1702  0.0437 -0.1219
26345W        W42819  16.965   9.933   4.748 -0.1955  0.1971  0.1762
26346W        W42820   9.724   0.328  14.814  0.0330  0.0367  0.0955
26347W        W42821   9.633  14.608   5.178  0.0707 -0.1405 -0.0631
26348W        W42822   8.958   9.758  13.283  0.0377  0.1122 -0.0114
26349W        W42823   6.683   1.054   1.312 -0.3254  0.2661  0.0852
26350W        W42824   1.941   7.947  14.544 -0.2347 -0.0167  0.0510
26351W        W42825   7.207  16.151   0.652  0.3315 -0.0418 -0.1941
26352W        W42826   1.664   0.282   4.548 -0.0483 -0.0663  0.1856
26353W        W42827  18.894  14.016   4.699 -0.1497  0.0424  0.2648
26354W        W42828  12.307  14.602  12.678  0.1444 -0.0363 -0.2346
26355W        W42829  16.675  13.771  12.881 -0.1562  0.2541  0.1545
26356W        W42830   8.860  19.307   8.858  0.1281  0.2857 -0.2086
26357W        W42831  12.410   4.332  11.356 -0.0627 -0.1082 -0.2384
26358W        W42832  19.318   0.961   2.425 -0.1736 -0.0772  0.1527
26359W        W42833   4.200  19.132  11.737  0.2435  0.1219  0.2692
26360W        W42834  16.979   2.240  11.007  0.0027 -0.0569  0.1442
26361W        W42835  10.907  16.471   2.201 -0.1233 -0.0496  0.3978
26362W        W42836   9.774  14.748   1.507 -0.0140  0.0302  0.0748
26363W        W42837  12.885   8.024   0.862 -0.0692 -0.0881 -0.0503
26364W        W42838  10.245  11.459   9.161 -0.0923 -0.1323 -0.1573
26365W        W42839  11.104   6.379   0.044  0.2767 -0.2793 -0.1080
26366W        W42840  12.082   2.096  14.058  0.1076  0.0436 -0.0800
26367W        W42841   3.054  13.882   2.589 -0.1288  0.1579  0.1700
26368W        W42842   9.325  11.877  13.698  0.2823  0.1518 -0.0163
26369W        W42843   1.121  15.294  10.577 -0.0931  0.0169  0.1738
26370W        W42844   9.043   0.496  12.571 -0.2221  0.0949 -0.0195
26371W        W42845  10.764  15.202  13.686 -0.0083  0.2559 -0.0801
26372W        W42846  13.270  18.252  12.664  0.1099  0.1033 -0.1028
26373W        W42847   7.908   5.338   3.336 -0.1020  0.0807  0.2057
26374W        W42848  14.289  14.978   0.580  0.0356  0.0038 -0.2187
26375W        W42849   9.637  14.282  14.139 -0.1732 -0.2640  0.0875
26376W        W42850   6.116  12.460  12.191  0.3030  0.2590 -0.1483
26377W        W42851   9.680   3.123  14.498  0.0521  0.1263 -0.1671
26378W        W42852   6.003  14.735   5.289 -0.0000 -0.1377  0.2114
26379W        W42853   9.244  17.790  12.702 -0.0647  0.0877  0.1029
26380W        W42854  17.892   7.121  13.673  0.0997 -0.1019  0.1127
26381W        W42855   4.983  14.668   4.257 -0.1418 -0.1699  0.1894
26382W        W42856  10.378  15.800  12.873 -0.0418 -0.1453  0.2241
26383W        W42857  17.241   2.243   2.110  0.1457  0.1262 -0.2082
26384W        W42858   2.235   0.156   2.608  0.0897  0.0675  0.2771
26385W        W42859  16.884   1.380   4.257 -0.0800  0.0928  0.2297
26386W        W42860  16.519  14.775  13.880  0.0143  0.0429 -0.1115
26387W        W42861  15.027   6.037   3.378 -0.0651 -0.6615 -0.2858
26388W        W42862   9.836   2.757  10.124 -0.2242 -0.1375 -0.0284
26389W        W42863  16.594  14.873  11.436  0.3012  0.3371 -0.4948
26390W        W42864  17.970   9.903   5.792  0.0524 -0.0700 -0.2813
26391W        W42865  12.274  14.409   0.754  0.0889  0.2567  0.1023
26392W        W42866   6.336   9.815   0.918 -0.0223 -0.0309 -0.0021
26393W        W42867  13.841  18.779   2.929 -0.0515  0.2603  0.1401
26394W        W42868   3.022  18.861  13.538  0.1359  0.0250 -0.1697
26395W        W42869  19.279   2.553  11.103 -0.0158 -0.1524  0.0938
26396W        W42870   3.919  15.810   2.517  0.0672  0.2345  0.0293
26397W        W42871   9.381  15.973  13.842 -0.2366  0.0666 -0.0524
26398W        W42872   4.815  14.163   3.253 -0.0852  0.0620  0.0591
26399W        W42873   0.953   0.785   3.526  0.2548  0.0435 -0.2256
26400W        W42874   2.661  18.734  13.139  0.2027  0.2458 -0.4025
26401W        W42875   8.272  11.293   3.150  0.0425  0.1490 -0.3397
26402W        W42876   9.253  13.576   2.662 -0.0538  0.0570  0.1109
26403W        W42877   1.103  13.307   5.429  0.2982  0.0108  0.0603
26404W        W42878   7.508  18.100  13.434  0.0690 -0.0029 -0.0602
26405W        W42879  11.259   1.827   1.657  0.1806 -0.0598 -0.0392
26406W        W42880  13.217  10.203  10.656  0.1392  0.1990  0.0675
26407W        W42881  18.400  12.674  11.782 -0.1011  0.1626  0.1720
26408W        W42882   5.489  16.092  14.281 -0.1873 -0.0006 -0.4226
26409W        W42883   0.549   3.735   1.811 -0.2613  0.0602  0.2066
26410W        W42884   9.145   5.171   4.062  0.0031  0.1258 -0.0863
26411W        W42885  18.873  12.648  11.887 -0.3186 -0.0792  0.1849
26412W        W42886  12.036  13.631  14.409  0.1987  0.2600 -0.0798
26413W        W42887   4.474   1.574  11.086  0.1966 -0.0762  0.0067
26414W        W42888  17.885  17.527   2.294  0.1608 -0.0059 -0.1666
26415W        W42889  15.155   3.654  12.157 -0.0963 -0.1486  0.1106
26416W        W42890   6.913   3.371  10.426  0.0038 -0.0770 -0.2223
26417W        W42891  17.629   8.577  14.302  0.0491  0.0594  0.2341
26418W        W42892   1.601   4.150   4.061  0.1127  0.0358  0.0365
26419W        W42893  17.123   5.709   3.353 -0.3110 -0.0126  0.0904
26420W        W42894  11.850   1.392   4.658  0.2318 -0.2707  0.0478
26421W        W42895   7.858   8.103  11.317 -0.3044  0.1189 -0.0293
26422W        W42896  18.341  16.142   0.702  0.4860  0.0760 -0.2705
26423W        W42897   5.163   1.596   3.486 -0.1371 -0.1324  0.0640
26424W        W42898   5.711   2.901  10.954 -0.0150  0.0400  0.1402
26425W        W42899   7.872   7.282  12.968  0.1248 -0.1465  0.3121
26426W        W42900   5.937  17.088   3.428 -0.3295 -0.0520 -0.4133
26427W        W42901   4.387   8.700  11.107 -0.1200  0.1378  0.1524
26428W        W42902  18.628  14.459  13.881 -0.2284  0.1841 -0.1072
26429W        W42903   2.595  13.313   1.399  0.1365  0.0470 -0.0012
26430W        W42904   2.017  17.044   2.319  0.2393  0.3241 -0.0020
26431W        W42905  13.319  10.148  14.829 -0.0551  0.0761  0.1596
26432W        W42906   8.185  18.241   4.113 -0.4357 -0.0987  0.0964
26433W        W42907   1.091  17.784  13.858  0.1009 -0.1817  0.3089
26434W        W42908   4.654  16.952  13.262 -0.0516  0.3710 -0.2256
26435W        W42909  16.864   5.253   1.358  0.1706 -0.0276  0.1493
26436W        W42910   0.733  18.058  12.968 -0.2714 -0.3599  0.0920
26437W        W42911   7.606   0.091  14.582  0.1812  0.0826 -0.1185
26438W        W42912  10.758  13.811   3.816 -0.0977 -0.0343  0.2540
26439W        W42913   9.573   9.343  12.915  0.1157 -0.1937 -0.2181
26440W        W42914   5.708   7.119  10.376  0.0728 -0.2354  0.1729
26441W        W42915   7.748  16.832   2.395 -0.1134 -0.2498  0.0193
26442W        W42916  13.725   0.933   0.062  0.0631  0.0314  0.1388
26443W        W42917   4.769  11.123   3.924 -0.0034  0.1656  0.3701
26444W        W42918  14.906   6.535  10.190 -0.2914  0.1839  0.1196
26445W        W42919   8.063  16.443   2.553 -0.2328  0.2785 -0.2693
26446W        W42920   7.891   6.922   2.723  0.1666 -0.4767 -0.1953
26447W        W42921  11.477   4.116   3.006 -0.3434  0.0086 -0.2171
26448W        W42922   5.111  11.353   5.115  0.1554  0.1114 -0.0912
26449W        W42923  18.346   4.040  14.048  0.2457 -0.0242 -0.2179
26450W        W42924   2.888  16.044   2.907  0.1403 -0.2300  0.3125
26451W        W42925   6.421   6.843   4.501 -0.0535 -0.2976  0.3146
26452W        W42926  13.197   6.050  12.212  0.2595  0.4423 -0.2231
26453W        W42927   5.239  12.375   2.449  0.0351 -0.2626 -0.2138
26454W        W42928   2.434  17.357   2.372 -0.0817  0.0984  0.2958
26455W        W42929  16.239   7.506  14.377 -0.1253  0.3027  0.0298
26456W        W42930   3.154  11.874   2.147 -0.2063  0.1200 -0.0835
26457W        W42931  18.715  14.644   4.024  0.1606 -0.1134  0.1522
26458W        W42932   7.428   3.351   9.691  0.2097  0.2390 -0.0306
26459W        W42933   3.603  17.686   1.876 -0.0028  0.1447 -0.0596
26460W        W42934   9.473   0.166  12.584  0.4698  0.4595 -0.2091
26461W        W42935   6.490  18.890  13.303 -0.1409 -0.3500 -0.0957
26462W        W42936  19.229   5.379   1.884  0.3136 -0.1100  0.0720
26463W        W42937   8.391   2.816  14.483  0.0359  0.2567  0.0546
26464W        W42938   0.070   9.704   0.178 -0.1372  0.3272  0.1953
26465W        W42939  11.536  15.540   3.320 -0.1993  0.0437  0.0461
26466W        W42940  18.343   6.925  13.801  0.0031  0.0816 -0.0597
26467W        W42941  12.048  18.395  13.129  0.2519 -0.1556  0.0262
26468W        W42942   9.255   4.380  14.143 -0.1465  0.0831 -0.2376
26469W        W42943   2.961  16.580  11.964 -0.2155  0.2120 -0.2759
26470W        W42944   7.203   8.824   3.708  0.1572 -0.1739  0.0901
26471W        W42945   3.908   1.447   4.574 -0.2636  0.2800 -0.0304
26472W        W42946  13.522   6.034   3.541  0.0305 -0.1526 -0.3200
26473W        W42947  14.746   5.512  14.750 -0.2293 -0.1202  0.0821
26474W        W42948   3.855  15.222  12.529  0.1321  0.1613 -0.4493
26475W        W42949   3.180   8.499   1.569  0.2597 -0.3671  0.0630
26476W        W42950  14.132   3.577   4.899  0.0519 -0.0847 -0.0035
26477W        W42951  10.459  18.233  13.836 -0.0369  0.0968  0.2223
26478W        W42952  12.909   2.194   2.542 -0.3233  0.1912  0.0305
26479W        W42953  19.203   8.400  13.528  0.2004  0.1920 -0.2311
26480W        W42954  10.128  19.382  14.879  0.1863 -0.3758 -0.0556
26481W        W42955   6.643  16.967   4.553 -0.4382  0.2656 -0.1321
26482W        W42956   5.257  11.863   2.528 -0.0476  0.0451  0.0797
26483W        W42957   1.870   3.135   1.531  0.2722  0.2402 -0.0586
26484W        W42958   1.583  16.929   4.279 -0.0269 -0.3682  0.0236
26485W        W42959   2.725   0.979   0.314  0.1167  0.0231 -0.0725
26486W        W42960  15.551  13.098   2.659 -0.1941 -0.1915 -0.0092
26487W        W42961  12.875   6.116  12.603 -0.0038 -0.3840 -0.1944
26488W        W42962  11.644  17.416  13.981  0.2748  0.2202  0.1836
26489W        W42963  13.070   9.739   0.170  0.2699 -0.0449  0.2513
26490W        W42964  13.726  15.266   2.938  0.0990 -0.2100  0.2579
26491W        W42965  18.560  13.334   5.224 -0.2850 -0.1064  0.3481
26492W        W42966   9.860  13.492   2.031  0.0558  0.0589  0.2551
26493W        W42967  15.515  11.343  13.875 -0.1111 -0.1596 -0.1016
26494W        W42968   1.660   9.001  12.006 -0.1145 -0.1589  0.0335
26495W        W42969  14.111  15.443  10.847 -0.1262 -0.0943  0.0025
26496W        W42970   7.040  16.856  10.836 -0.2138  0.0903  0.0913
26497W        W42971   4.919  14.988   2.668  0.2524  0.0410  0.4134
26498W        W42972   1.497  16.036   3.644  0.0776  0.3021 -0.0769
26499W        W42973   7.952  16.179  13.555 -0.2283  0.0662 -0.0455
26500W        W42974  10.994  18.439  14.752 -0.0708  0.0019  0.0015
26501W        W42975   8.258   0.561  12.452  0.0151 -0.3981 -0.2611
26502W        W42976  15.567  10.727   4.849 -0.2163  0.2465  0.0338
26503W        W42977  14.941   5.647  13.804 -0.1720 -0.1842 -0.0202
26504W        W42978  11.209   8.085   2.011  0.0830  0.2475  0.0160
26505W        W42979   1.950   0.027  12.077 -0.3152  0.2781  0.0733
26506W        W42980   8.866   1.213   3.196  0.1486  0.0885  0.1444
26507W        W42981  14.197   6.546   3.695  0.4306  0.0494 -0.1082
26508W        W42982   8.393   3.716  14.811 -0.2037  0.0847  0.0948
26509W        W42983   0.961  10.017   3.563  0.0552 -0.1417  0.2328
26510W        W42984  16.260   5.310   1.172 -0.0774  0.0755 -0.0074
26511W        W42985   5.376  15.160  13.712 -0.3731 -0.1023  0.2697
26512W        W42986  11.738  12.239   2.401 -0.0334  0.2485 -0.1276
26513W        W42987  15.084  16.756  10.711  0.3596 -0.0278  0.0819
26514W        W42988   2.396  10.703   0.856  0.6375 -0.1171  0.2359
26515W        W42989  13.998  12.798  11.968  0.0966  0.0664 -0.1561
26516W        W42990   1.717   0.998  12.068  0.0164  0.2935 -0.0888
26517W        W42991   9.451  18.973   1.449 -0.1417 -0.3083 -0.4469
26518W        W42992  14.759   7.625   1.407  0.2042  0.0166 -0.0606
26519W        W42993   4.383  13.565  13.011 -0.1318 -0.2465  0.0311
26520W        W42994  11.388   7.398  12.899 -0.0908  0.1126  0.2271
26521W        W42995   3.381   8.486  13.986  0.2666 -0.2232 -0.1949
26522W        W42996   0.948   3.623   3.125  0.1374 -0.0596 -0.0023
26523W        W42997  16.298   8.158   3.781  0.2974 -0.1198  0.0916
26524W        W42998  16.299  12.101  13.804  0.0109  0.2597  0.1525
26525W        W42999   1.096   6.085  14.416  0.1823 -0.1517  0.3668
26526W        W43000   4.419   3.837   1.576  0.0554  0.0235  0.1409
26527W        W43001  14.692  18.004  11.510  0.0596 -0.0762  0.2386
26528W        W43002  19.023  13.589   3.040  0.1672 -0.1857  0.1972
26529W        W43003   6.420   6.760  12.494  0.1691 -0.3150 -0.1100
26530W        W43004   0.322   2.826   3.080 -0.0489  0.1158 -0.1725
26531W        W43005  17.757  13.056   4.521  0.2687  0.0180  0.2275
26532W        W43006   7.629  19.355  12.641 -0.2880  0.2918 -0.0194
26533W        W43007   1.750   2.377   4.912  0.2717  0.2318  0.1895
26534W        W43008   8.590  11.338   4.809 -0.2405  0.0917  0.1488
26535W        W43009  15.409   7.104   4.155  0.1906  0.3663  0.3408
26536W        W43010  11.934   4.378   3.094 -0.2504  0.1273 -0.0970
26537W        W43011   4.748   1.032   9.509  0.1183 -0.0251 -0.0717
26538W        W43012  10.436  18.061  13.004  0.0431 -0.2113  0.1491
26539W        W43013  16.547  19.339   4.520  0.0195 -0.3097 -0.0629
26540W        W43014   6.810  12.363   3.565 -0.0882 -0.0502 -0.0030
26541W        W43015   6.978  16.161  11.598 -0.1130  0.1777 -0.2159
26542W        W43016   4.489   3.944   3.522 -0.0471 -0.0429  0.0195
26543W        W43017  15.207  19.151   0.252 -0.0392  0.1270 -0.0359
26544W        W43018  16.555  10.199   3.842  0.0208 -0.1748  0.1623
26545W        W43019  10.538  14.204  11.859  0.0416 -0.0807  0.1938
26546W        W43020  17.751  13.370   2.437 -0.0039 -0.0247 -0.1441
26547W        W43021   1.499  10.187   3.203 -0.1464 -0.3656  0.2650
26548W        W43022   8.835   7.925  10.215  0.2213 -0.3645 -0.3315
26549W        W43023   4.255   6.771   1.742  0.2378  0.0035 -0.2102
26550W        W43024   9.657  13.381  12.259  0.1693 -0.1371 -0.1608
26551W        W43025  16.301  13.888   0.441 -0.0363 -0.0481 -0.2902
26552W        W43026   9.328   7.434  11.182 -0.0791  0.1126  0.1843
26553W        W43027   5.469   1.554  13.110 -0.0590  0.0516 -0.2543
26554W        W43028  12.902   8.319   3.974 -0.1447  0.0533 -0.0594
26555W        W43029  16.941  18.506   0.680 -0.4025 -0.1285 -0.0677
26556W        W43030  17.768   5.236   3.631  0.0039 -0.0123  0.2796
26557W        W43031  19.379   2.237   1.359  0.0942  0.1350 -0.0395
26558W        W43032   9.091  11.093   0.638 -0.2213 -0.3513  0.1968
26559W        W43033  18.529   0.658   9.530  0.3493 -0.2005 -0.3364
26560W        W43034  14.135   2.621   5.012  0.2507 -0.3874 -0.1991
26561W        W43035  12.016   9.334  10.308 -0.3262  0.0223  0.2216
26562W        W43036  10.356   4.715  11.401 -0.0695 -0.3434  0.0642
26563W        W43037   2.055  12.338  14.691 -0.0476  0.0455  0.1490
26564W        W43038  19.107   2.520   3.356 -0.1453 -0.0423  0.1764
26565W        W43039   6.471   3.923   0.501 -0.2792  0.3111  0.1002
26566W        W43040   7.802  18.140  13.906  0.0477 -0.1152 -0.2732
26567W        W43041  18.312   6.231   1.922 -0.1399  0.0533  0.0183
26568W        W43042  18.508   0.532   2.165 -0.0195  0.0491  0.0854
26569W        W43043   0.959   4.616   1.907 -0.0209  0.4390 -0.0219
26570W        W43044   2.784  14.984   2.846 -0.0089  0.1300  0.3721
26571W        W43045   5.261  11.033  11.078  0.0998 -0.4422  0.1712
26572W        W43046   6.230  17.566   3.345 -0.3162  0.2804 -0.0345
26573W        W43047   9.588   4.810   0.732  0.1185 -0.0815  0.2254
26574W        W43048  14.018  13.669  14.150  0.0263 -0.0450  0.1552
26575W        W43049   4.919   8.475   3.717  0.1402 -0.2301 -0.0515
26576W        W43050  19.195   5.658  14.398  0.0688 -0.0167 -0.0878
26577W        W43051   1.984  13.170   9.866  0.2373  0.2308 -0.0996
26578W        W43052   3.851   8.617   4.378  0.1390 -0.2476  0.2571
26579W        W43053   3.741   5.500   1.411  0.0998  0.1748 -0.1071
26580W        W43054  16.503   0.703  11.375 -0.0511 -0.1821 -0.0600
26581W        W43055  12.187  11.538  13.836  0.0917  0.0107 -0.1701
26582W        W43056   2.229  17.357  10.839 -0.3617  0.1193 -0.0042
26583W        W43057  11.768  19.362   5.286 -0.4148 -0.0181 -0.3151
26584W        W43058   3.364   4.621   2.917  0.0559 -0.0015  0.0191
26585W        W43059   1.431   1.040   0.440  0.1964  0.0910  0.4446
26586W        W43060   8.712   3.753   3.057  0.1313 -0.0035 -0.1678
26587W        W43061   3.407  16.588  14.594  0.0031 -0.2801 -0.0089
26588W        W43062   6.056  10.070  11.120 -0.1663  0.1180 -0.1500
26589W        W43063   9.869  12.411   1.594  0.0887 -0.1341  0.0677
26590W        W43064   3.472  13.969   9.760 -0.1639  0.0540 -0.0267
26591W        W43065   6.659   0.769   4.505 -0.0133  0.0854  0.1811
26592W        W43066   1.383  13.008  14.837  0.0164  0.0540 -0.0204
26593W        W43067   9.451   9.071   0.256  0.1197 -0.1748  0.1287
26594W        W43068  13.865   5.600   3.523  0.0593  0.1043  0.2077
26595W        W43069   4.657   5.148   1.922  0.1701  0.1455 -0.1257
26596W        W43070  18.162  11.592   2.501  0.0264  0.2089  0.1178
26597W        W43071  11.732   1.704  14.249 -0.0817  0.2093 -0.2149
26598W        W43072  10.198  11.976   0.991  0.0123  0.0576  0.0331
26599W        W43073  18.357  17.576  10.443 -0.0099  0.3986  0.0819
26600W        W43074   1.304  16.823  11.074  0.0203 -0.1409 -0.1602
26601W        W43075   0.989   2.126   4.041 -0.0440 -0.2149 -0.0356
26602W        W43076  18.496  14.647  11.543  0.0994 -0.2290 -0.2581
26603W        W43077   6.991  16.461   4.405 -0.1063  0.0350  0.0278
26604W        W43078   4.377  11.876   5.654 -0.0700  0.1395 -0.0950
26605W        W43079  11.954  11.289   1.548  0.0730  0.1807 -0.0739
26606W        W43080  13.752   6.739  12.145 -0.0751 -0.0519  0.0865
26607W        W43081  15.771  10.633  10.013 -0.5491 -0.2312  0.1434
26608W        W43082  10.768   2.174  12.897  0.0125  0.2452  0.0295
26609W        W43083  12.449   2.454   5.536  0.2551  0.0454  0.0963
26610W        W43084  11.867  10.493  12.004  0.2869 -0.2056  0.1703
26611W        W43085  18.278  18.981  11.656  0.2170 -0.1865 -0.1959
26612W        W43086  18.475  14.612   0.510  0.1303  0.1429 -0.1833
26613W        W43087  14.430   0.227  10.577  0.2576 -0.0886 -0.2131
26614W        W43088  19.194   6.377   1.837 -0.1062  0.1993 -0.1427
26615W        W43089  10.850  15.744  10.592  0.1184  0.0084  0.2758
26616W        W43090  16.125   7.116  10.701  0.0717  0.0887 -0.1475
26617W        W43091  19.183  10.802  11.628 -0.1579 -0.2984 -0.0536
26618W        W43092  16.888   6.529   4.525 -0.4963 -0.0210 -0.1444
26619W        W43093   2.507   6.896   2.339  0.1941  0.1796 -0.1373
26620W        W43094   2.277   9.931   3.863 -0.3216  0.2078 -0.3211
26621W        W43095  19.194   2.290  14.298  0.3486  0.1138  0.1726
26622W        W43096  14.404  15.325  14.543  0.0424  0.1325  0.1505
26623W        W43097   0.572  11.381  10.714  0.0126 -0.1872  0.2914
26624W        W43098  14.735  14.954  14.778 -0.0353  0.0800  0.2231
26625W        W43099   5.991   6.818   2.400 -0.2176  0.1258 -0.0437
26626W        W43100   6.588  16.490   0.471  0.1004  0.1105  0.4108
26627W        W43101  14.115  15.316  13.125  0.0287  0.0045  0.1951
26628W        W43102   0.903   7.404   1.752  0.1784 -0.0309  0.1412
26629W        W43103   1.798  12.479   4.511  0.1473  0.3944 -0.0438
26630W        W43104  16.694   3.416  14.717 -0.1653 -0.0603  0.2838
26631W        W43105  14.560  19.202   2.941  0.0456  0.1964 -0.1113
26632W        W43106   8.694  11.173  14.149  0.2392 -0.0352 -0.2720
26633W        W43107   9.092  12.026  10.119 -0.1813 -0.3160  0.0440
26634W        W43108  10.788  12.259   5.004  0.0471  0.0347  0.0571
26635W        W43109   9.671  14.663   2.817 -0.3647  0.2659 -0.2947
26636W        W43110  11.797   9.411  14.491 -0.1346 -0.2896  0.1321
26637W        W43111   6.568   4.675  12.419 -0.0426 -0.0264  0.1177
26638W        W43112   7.672   6.528   1.226 -0.1231  0.0915 -0.1907
26639W        W43113  15.309  12.584  12.351 -0.1646 -0.1804 -0.0769
26640W        W43114   9.575   1.038  12.200  0.0739  0.1298  0.1023
26641W        W43115  15.810  10.943  12.227 -0.1867  0.0555  0.0087
26642W        W43116  16.758  19.245   2.878 -0.0177 -0.2303  0.1150
26643W        W43117  12.458   3.382  14.042 -0.1613 -0.1147 -0.0865
26644W        W43118  10.385  12.469  11.291  0.0012 -0.1274  0.0978
26645W        W43119  13.219   3.897   3.582 -0.4930  0.1238 -0.0996
26646W        W43120   2.960  12.464  13.637 -0.1274  0.0625 -0.0916
26647W        W43121  16.146  14.640   0.907  0.1792 -0.1612 -0.2364
26648W        W43122   9.145   4.388   9.724 -0.0522 -0.2135  0.1370
26649W        W43123  16.860  15.247  11.391  0.0515 -0.0420  0.1356
26650W        W43124  17.407   6.134   2.605  0.0151 -0.0308 -0.1125
26651W        W43125   4.656   4.126  10.845  0.2936  0.2942  0.2920
26652W        W43126  12.748  18.953  10.358 -0.0756 -0.0818 -0.2356
26653W        W43127  12.977  13.711  11.152 -0.2310 -0.4285  0.0195
26654W        W43128  11.756   2.748   1.807  0.1273 -0.2679  0.0552
26655W        W43129  14.876   3.378   4.452 -0.2037 -0.3703 -0.1019
26656W        W43130   4.952  12.319  11.458  0.1688 -0.1332  0.2778
26657W        W43131   2.746  10.285  11.592 -0.1114 -0.1346  0.1771
26658W        W43132   8.945  10.046   0.391  0.2135  0.0416 -0.3414
26659W        W43133  11.881  10.366  14.374 -0.0916 -0.2987  0.2068
26660W        W43134   5.448  10.845   2.680 -0.1571  0.0028  0.0752
26661W        W43135  14.385   8.300  12.947  0.0563 -0.1098  0.1006
26662W        W43136   7.981  18.761   1.743 -0.0460  0.0935  0.1547
26663W        W43137  14.594   0.692   3.449  0.1078  0.0964  0.1156
26664W        W43138  15.797   1.041   0.670 -0.2556 -0.1284  0.1163
26665W        W43139   3.712   5.432   4.375  0.0822 -0.1700  0.0668
26666W        W43140  19.127  12.051   0.022 -0.0559 -0.0600 -0.0132
26667W        W43141   1.260   2.394  12.878  0.3418  0.0681  0.1042
26668W        W43142   0.316  14.784  13.056 -0.0504 -0.0710  0.2840
26669W        W43143  18.732  12.338   3.886  0.1587  0.0245 -0.1395
26670W        W43144  12.183  16.410   1.495 -0.0398  0.1885 -0.0780
26671W        W43145   6.284   7.490  12.573 -0.0291  0.1791 -0.0768
26672W        W43146   2.642  14.814   1.516 -0.2180  0.2349  0.0518
26673W        W43147   3.033   2.971  11.509  0.4786  0.3298  0.3102
26674W        W43148  14.372  15.201   1.130  0.4486 -0.0597 -0.2206
26675W        W43149   7.612   7.051   1.209 -0.0835 -0.0700  0.0244
26676W        W43150  17.246  13.673   3.253  0.2083  0.1341  0.1243
26677W        W43151  14.139  16.111   1.098  0.2273 -0.3946  0.0508
26678W        W43152   9.424  11.721   1.191 -0.0420 -0.3606  0.3779
26679W        W43153  10.214  18.039   0.782  0.1187  0.0158 -0.1244
26680W        W43154  15.535   1.898   1.160  0.2398  0.0201  0.2503
26681W        W43155  18.540   8.511   3.104 -0.2730 -0.1387  0.0544
26682W        W43156  19.139   9.546   2.969 -0.2171 -0.0167  0.1690
26683W        W43157  14.895  12.277  13.490 -0.1463 -0.1918  0.3972
26684W        W43158   8.397   3.946  13.843  0.0003 -0.1437 -0.2060
26685W        W43159  13.414   1.180   1.450  0.0561 -0.2222  0.1803
26686W        W43160   4.192   6.654   9.241 -0.0256 -0.1186 -0.3322
26687W        W43161  12.010  14.765  12.268  0.2469  0.0658 -0.2376
26688W        W43162   6.688   2.545   1.620 -0.0489 -0.6149 -0.1029
26689W        W43163  11.967  17.662   0.723  0.1076  0.0794 -0.0307
26690W        W43164  17.303  12.308   4.124  0.0443  0.0118  0.0670
26691W        W43165   3.172   7.523   0.062  0.1174 -0.1573  0.0530
26692W        W43166  12.991  18.745  13.290  0.2817  0.3235 -0.1849
26693W        W43167   1.111   7.847   0.181 -0.1038  0.1205 -0.1504
26694W        W43168  15.629   0.811  14.680  0.0502  0.1355  0.4463
26695W        W43169  17.139  11.596  14.166  0.0652 -0.2424  0.0936
26696W        W43170   5.903  14.790  11.312  0.0583 -0.1106  0.1455
26697W        W43171  17.934  19.316   0.889  0.1364  0.0548  0.0905
26698W        W43172   7.789   1.069   9.393  0.3874 -0.1267 -0.2150
26699W        W43173   8.711  11.209  13.588  0.2908  0.4166 -0.1827
26700W        W43174   5.139   5.204   2.104  0.3521  0.1551 -0.0689
26701W        W43175  18.789  13.690  14.403 -0.5749  0.1803  0.1882
26702W        W43176   6.315  16.082   0.320 -0.2900  0.2179 -0.1739
26703W        W43177   8.828   6.363  11.901  0.3859  0.2508 -0.1962
26704W        W43178  14.383   0.681   5.498 -0.1170 -0.0667  0.0041
26705W        W43179   1.378   0.482   5.157 -0.1771 -0.3085  0.1079
26706W        W43180   9.061   6.186  11.427 -0.1426 -0.2203  0.3426
26707W        W43181  13.584  15.116  13.408  0.4982  0.4295 -0.1009
26708W        W43182   1.736   1.479   0.286  0.2434 -0.0563  0.0107
26709W        W43183  11.686   3.217  14.203 -0.1467 -0.0743 -0.0169
26710W        W43184   0.972   3.012  13.655  0.3440  0.0214 -0.0402
26711W        W43185   9.972  11.531   1.059  0.3938 -0.0846  0.2788
26712W        W43186  12.231  16.796   4.879 -0.1944  0.0848 -0.0601
26713W        W43187   7.091   1.994   2.998 -0.1715 -0.3463 -0.0431
26714W        W43188  12.150  18.359   0.984  0.1283  0.0335 -0.1336
26715W        W43189   8.758  16.067  11.788 -0.1635  0.1112  0.1161
26716W        W43190   3.371  11.979   5.096 -0.0989  0.0449 -0.1913
26717W        W43191  12.629  18.685   1.155  0.2421 -0.2854  0.0552
26718W        W43192  14.580  19.220  11.566 -0.2671 -0.3457 -0.0292
26719W        W43193  14.469   0.776  10.749 -0.1347  0.2620  0.1380
26720W        W43194  12.470   6.122   1.603  0.1998  0.2770  0.1533
26721W        W43195   8.965  12.578  12.627 -0.2924 -0.2476 -0.0426
26722W        W43196   8.618   1.730   1.228  0.2703 -0.0005 -0.1273
26723W        W43197   1.497   2.443   0.292 -0.0671  0.0090 -0.0957
26724W        W43198   9.604   6.474   0.749  0.1138  0.1963  0.0042
26725W        W43199   9.654   6.103  11.020  0.3278  0.1704  0.1527
26726W        W43200  16.226   5.433   3.755 -0.4757 -0.6618 -0.1596
26727W        W43201   7.069   5.798   4.042 -0.1463  0.1388 -0.0809
26728W        W43202  17.585   2.613   5.081  0.1395 -0.2661  0.0059
26729W        W43203   6.589  14.708  13.290 -0.1763  0.1512 -0.0950
26730W        W43204  11.004  10.032   2.233 -0.0476  0.0249  0.1167
26731W        W43205   7.503  14.046   3.370 -0.2357  0.1007  0.0423
26732W        W43206   1.150   6.236   1.831 -0.0023  0.2039 -0.3199
26733W        W43207   6.045  13.299  13.258 -0.2440 -0.0464  0.2135
26734W        W43208  13.158   9.919  10.223  0.1052  0.2944 -0.0560
26735W        W43209  12.291  14.343   4.133  0.1859 -0.1332  0.1589
26736W        W43210   6.537  11.310   3.878 -0.1013  0.1710 -0.1189
26737W        W43211   9.302  13.918   1.473 -0.3036  0.0495 -0.1558
26738W        W43212   8.722   7.845   2.729  0.0091 -0.2054  0.1216
26739W        W43213  18.508   3.428   3.467  0.4270  0.1911 -0.0950
26740W        W43214   8.651  14.631  14.036  0.0589  0.3860 -0.2866
26741W        W43215   7.058  17.338   3.487  0.1546  0.1194  0.0749
26742W        W43216  15.768   6.184  10.765 -0.0696  0.0236 -0.1158
26743W        W43217  19.118   9.359  11.199 -0.0223 -0.3067 -0.3270
26744W        W43218  16.511   1.916  10.880  0.2038 -0.2456 -0.0335
26745W        W43219   8.245  11.417  12.143 -0.2112 -0.3495  0.3694
26746W        W43220  18.801  17.003  14.093 -0.0983  0.2696 -0.2550
26747W        W43221  16.280  15.581  14.653  0.1150 -0.1004 -0.2766
26748W        W43222  19.184  18.300  12.403 -0.1010 -0.2300  0.1848
26749W        W43223   9.189  12.156   0.997  0.1663 -0.0603  0.0561
26750W        W43224  12.139  16.056   2.976  0.0888  0.0848  0.2454
26751W        W43225   5.689   3.368   2.607  0.0742 -0.0804 -0.2291
26752W        W43226   0.515  11.738   1.714  0.3238 -0.1529  0.0280
26753W        W43227   8.125  13.403   3.323 -0.3666 -0.0708  0.3766
26754W        W43228  15.649  13.532   4.090 -0.1129 -0.0846 -0.2466
26755W        W43229   5.365  18.047   3.354 -0.1031 -0.1465  0.0538
26756W        W43230  11.696  13.978  10.111 -0.1585 -0.1279 -0.0322
26757W        W43231  16.193  18.048   0.508  0.1559  0.1331  0.2556
26758W        W43232  14.293  10.700   2.767  0.3030 -0.5923  0.1349
26759W        W43233  12.366   1.560   0.061 -0.2478 -0.1442 -0.1785
26760W        W43234  15.674  11.507   1.350  0.2512 -0.1718  0.0030
26761W        W43235   4.346   5.475   2.042 -0.1494 -0.2301 -0.1411
26762W        W43236   6.083   3.421   1.771  0.0340 -0.1252 -0.1522
26763W        W43237   7.193  12.158   1.374  0.2800  0.0736 -0.1976
26764W        W43238   7.649  17.216  13.463 -0.2860 -0.1576  0.1320
26765W        W43239   8.449  11.496   0.070  0.0308  0.0766  0.1238
26766W        W43240   5.213  19.181   2.662 -0.0778 -0.1193 -0.0960
26767W        W43241   3.149   7.260  12.082  0.2512 -0.0215 -0.1955
26768W        W43242  12.007   5.058   4.484 -0.0227  0.1727  0.0343
26769W        W43243   0.366  17.136  11.023 -0.1694  0.0638  0.1874
26770W        W43244   0.606  15.408   4.652  0.0309 -0.1105 -0.0571
26771W        W43245   5.411  15.315   5.907 -0.1057 -0.0170 -0.1781
26772W        W43246  15.163   9.051   1.759 -0.0851  0.3584  0.1327
26773W        W43247  10.955  11.580  12.074 -0.3839  0.1333  0.1431
26774W        W43248   0.772  12.470   4.842  0.0652 -0.1287 -0.5097
26775W        W43249   8.950   6.771  12.117  0.2753  0.0322 -0.1149
26776W        W43250  16.331  12.411   9.469  0.0047 -0.0199 -0.1816
26777W        W43251  18.479  15.920   2.420 -0.0012  0.1143  0.1817
26778W        W43252  18.381   2.680  11.989  0.0008 -0.0542 -0.2037
26779W        W43253   1.332   3.303   2.182 -0.2494 -0.0409  0.2148
26780W        W43254  14.145  19.148   0.794 -0.0691  0.1972 -0.0519
26781W        W43255   9.719   0.795   0.117  0.0365  0.1517  0.3353
26782W        W43256   5.270  14.149   2.445 -0.1215  0.0333 -0.1840
26783W        W43257  16.287   3.558   0.629  0.2469  0.0077  0.1150
26784W        W43258  14.830  14.389   2.066 -0.0924  0.3903  0.0980
26785W        W43259  12.655  11.514  13.633  0.0918  0.3058  0.1966
26786W        W43260  14.537  10.128  10.666 -0.1959 -0.0787  0.0895
26787W        W43261  15.871   1.461   2.390  0.0044  0.1008 -0.0384
26788W        W43262   7.671   3.452   2.379  0.0590  0.0998  0.1294
26789W        W43263   1.574  16.388  11.926 -0.3703 -0.1595  0.0325
26790W        W43264   4.134  17.476  13.796 -0.0222 -0.3034 -0.0392
26791W        W43265   2.752   0.182   1.528  0.1124 -0.1670 -0.0009
26792W        W43266   5.653  18.429   3.664 -0.3820 -0.1450 -0.0672
26793W        W43267   4.113   9.640  13.974 -0.0586  0.1076  0.1483
26794W        W43268   6.969   0.517   2.885  0.0059 -0.1403  0.0311
26795W        W43269   5.112  11.557  12.023  0.3829 -0.1845  0.3727
26796W        W43270  18.266  14.085   0.310  0.3167  0.0937  0.0042
26797W        W43271   6.663  19.113   9.919  0.0029 -0.0175 -0.1360
26798W        W43272  11.365   1.134   2.314 -0.1703  0.1087  0.1518
26799W        W43273   4.341   4.716  14.515  0.3375 -0.0006  0.3445
26800W        W43274  12.037  14.438  10.761 -0.3688 -0.2268 -0.4105
26801W        W43275  10.062  15.611  13.211  0.3779  0.1802  0.0488
26802W        W43276   8.845   7.637  12.866 -0.0113 -0.0551  0.0935
26803W        W43277   2.198   5.151   4.759 -0.3313 -0.0608 -0.1188
26804W        W43278   8.397  17.509   4.379 -0.2606 -0.0535  0.0916
26805W        W43279  15.526   2.467   0.026  0.0979 -0.0930  0.0127
26806W        W43280   1.899   9.762  14.028  0.6262  0.1431 -0.0660
26807W        W43281   5.358   1.764   9.183 -0.1160  0.4073  0.2375
26808W        W43282  15.406   4.559  11.139  0.5369  0.0563 -0.0391
26809W        W43283  15.619  15.289   4.591 -0.2934 -0.2242 -0.2994
26810W        W43284   1.104  17.770   0.915  0.0575 -0.3183 -0.0351
26811W        W43285  10.700  11.962  10.392 -0.0343 -0.1498  0.1866
26812W        W43286   2.770  15.200  13.187  0.1150 -0.0835 -0.2531
26813W        W43287   0.376  15.763   2.800  0.0730  0.1307 -0.5440
26814W        W43288   7.712   9.889  13.001 -0.3544 -0.1137 -0.2131
26815W        W43289  10.613   2.107  10.198  0.2056  0.3235 -0.4195
26816W        W43290   8.502  10.209  12.988 -0.0243 -0.2445  0.0977
26817W        W43291  14.385   2.099   1.349 -0.0650 -0.3641 -0.5084
26818W        W43292  12.916   9.295  14.760 -0.0512 -0.2641 -0.0512
26819W        W43293   8.481   6.925   1.595  0.3941  0.1838  0.1043
26820W        W43294   2.073   7.261   4.597  0.2686  0.0910 -0.0251
26821W        W43295   1.504   5.799  10.987 -0.2962 -0.1685  0.3292
26822W        W43296   8.508   1.703  14.469  0.1935  0.0622  0.0664
26823W        W43297  17.921  11.953  13.888  0.1646 -0.2412 -0.1550
26824W        W43298   1.143  11.210  14.744 -0.1119 -0.0372  0.1562
26825W        W43299  14.768   3.995  11.298  0.0279 -0.0246 -0.3519
26826W        W43300   6.389   1.072  11.917 -0.3282 -0.0353 -0.1320
26827W        W43301  12.149  15.107   0.104 -0.0676  0.2204 -0.1063
26828W        W43302  16.500   5.921   0.673 -0.0646  0.0186  0.0286
26829W        W43303   3.452   2.614  10.225 -0.1602  0.0590 -0.1390
26830W        W43304   0.746  11.739   0.173 -0.0663  0.1299  0.1466
26831W        W43305  18.366  13.002  11.375 -0.2250 -0.0229 -0.0141
26832W        W43306   4.891  16.492  10.915 -0.0857  0.0287  0.0923
26833W        W43307  13.339  18.868  11.774 -0.2575  0.0495  0.3142
26834W        W43308   3.730   5.845  10.842 -0.0430  0.2142 -0.0712
26835W        W43309  15.662  14.275   1.136  0.0906 -0.0049 -0.2755
26836W        W43310   1.564   0.410  14.076 -0.3444  0.3031  0.1250
26837W        W43311  12.494  18.465   0.639  0.0652 -0.2819  0.2814
26838W        W43312   6.446   3.785  11.963 -0.0287 -0.1177  0.3339
26839W        W43313   1.247  10.111   4.981  0.2226 -0.1195  0.0077
26840W        W43314   6.941  14.606  13.669  0.1258 -0.1704 -0.1391
26841W        W43315  12.279  16.152   1.999  0.0247  0.1221  0.0622
26842W        W43316  13.989   7.313   3.618  0.4732 -0.3716  0.2539
26843W        W43317   6.458  18.757  11.351  0.3681  0.0136  0.1417
26844W        W43318   8.841   4.666  10.693 -0.2312  0.1604 -0.1862
26845W        W43319   9.403  12.814  13.347  0.1224  0.2178  0.2408
26846W        W43320  11.868   2.799  11.410 -0.0995 -0.1551 -0.0498
26847W        W43321   6.155   4.340  13.571  0.0788 -0.3533 -0.2353
26848W        W43322  16.987   8.197   2.870 -0.1649  0.2478  0.1467
26849W        W43323   4.572  16.369  11.563 -0.2141 -0.3842  0.0051
26850W        W43324   8.805   5.153  13.540 -0.0559 -0.1354  0.0864
26851W        W43325   8.417   0.956  11.055 -0.1306 -0.1287 -0.1429
26852W        W43326  11.190   9.703  12.373 -0.0355 -0.2694  0.1854
26853W        W43327  14.598  11.343   3.938  0.0343  0.0468  0.1026
26854W        W43328   6.557   3.779   0.945 -0.0287 -0.0710  0.1223
26855W        W43329  15.116   8.342   4.336 -0.1136  0.0555  0.0332
26856W        W43330  17.455  13.818   3.725 -0.1566 -0.2822 -0.3508
26857W        W43331  15.327   7.002  14.712  0.0240  0.1433  0.3699
26858W        W43332  14.338   2.149   0.765  0.1734 -0.0950  0.1909
26859W        W43333  13.903  12.096   2.515  0.0136 -0.0461  0.2426
26860W        W43334   8.225  10.085   8.897  0.3445  0.3369  0.0798
26861W        W43335   0.593   2.900   1.471  0.0814  0.0648  0.4248
26862W        W43336   9.363   9.472   4.223  0.0360 -0.1145 -0.2026
26863W        W43337  14.994   2.643  10.426  0.1071 -0.2957 -0.0377
26864W        W43338  12.606  17.021   0.824 -0.2719 -0.0211 -0.1179
26865W        W43339   3.300   6.216  13.708 -0.4001 -0.5433 -0.2145
26866W        W43340   9.187  14.167  12.036 -0.3484 -0.4434 -0.2623
26867W        W43341  12.044  19.108   1.679 -0.0360 -0.1720 -0.1420
26868W        W43342   3.480  14.454  11.458  0.1695  0.0651 -0.0158
26869W        W43343   5.875   5.433  12.809  0.0338  0.2094  0.1551
26870W        W43344   5.386   9.403   1.216 -0.1957 -0.1216  0.2412
26871W        W43345   1.702  10.027   5.637 -0.1304  0.0071 -0.1576
26872W        W43346   1.789  15.925  14.063 -0.1966  0.0232 -0.2712
26873W        W43347  19.234   3.473  13.012 -0.2017 -0.2273 -0.1061
26874W        W43348  11.453   4.127   3.896  0.1270 -0.3653  0.0092
26875W        W43349   9.559   7.359   2.272 -0.0828  0.1986 -0.4028
26876W        W43350  15.349  11.640  14.294  0.3312  0.0314  0.2490
26877W        W43351   1.184   8.412  14.239 -0.0552  0.4541 -0.1141
26878W        W43352  15.040   1.702   4.792  0.0220  0.0701  0.1544
26879W        W43353  12.888  17.356   5.215  0.1932 -0.0439 -0.1221
26880W        W43354   0.777   6.661   0.194  0.1381  0.0921 -0.2161
26881W        W43355  14.179  18.000  10.288 -0.0674 -0.0799  0.1914
26882W        W43356   4.474  12.230   2.663 -0.4062 -0.0308  0.2101
26883W        W43357  17.653   8.166   3.243  0.0603  0.0649  0.0414
26884W        W43358   0.612   5.898   4.122 -0.3155 -0.3732 -0.0531
26885W        W43359  12.294   8.095   1.855  0.1898  0.0092  0.3334
26886W        W43360   6.730   2.698   4.051  0.0251 -0.2087  0.1284
26887W        W43361   8.877   8.340   3.850  0.0510 -0.2891 -0.2617
26888W        W43362   1.533  13.231  11.983 -0.0527 -0.1155  0.2292
26889W        W43363   6.696   5.428  10.921 -0.1267 -0.0180 -0.0226
26890W        W43364  17.706  13.488   0.538 -0.2485  0.1863  0.3688
26891W        W43365   7.960   5.144   4.284 -0.3487  0.1046  0.0615
26892W        W43366  11.965   5.594  14.048  0.3328 -0.0736  0.1054
26893W        W43367   3.517  13.233   0.611  0.1024 -0.3892 -0.2457
26894W        W43368   1.655   6.493  10.441 -0.1248 -0.0989 -0.1293
26895W        W43369  10.173  17.316   2.316 -0.0578  0.1843 -0.2152
26896W        W43370  14.381   1.313  11.179 -0.0660  0.1135  0.1052
26897W        W43371   4.848   7.580  11.946  0.1871 -0.0374 -0.1074
26898W        W43372  16.268  12.749  12.478 -0.1278  0.3502 -0.0465
26899W        W43373  13.142  19.230   2.612 -0.0337 -0.1756  0.1055
26900W        W43374  18.556  11.159  11.634 -0.2495  0.2726  0.0031
26901W        W43375  16.022   2.855  10.224 -0.2105 -0.1277 -0.5203
26902W        W43376   2.062   2.441  10.429  0.1828  0.3710  0.1755
26903W        W43377   1.883  11.647   2.309 -0.1127 -0.1213 -0.1610
26904W        W43378   4.960   0.560   9.882  0.0567 -0.1648  0.1971
26905W        W43379   6.087  15.569  10.912 -0.2322 -0.1147 -0.1493
26906W        W43380  16.761  10.891   0.900  0.1015  0.1813  0.0487
26907W        W43381  16.867   3.043   0.151  0.0923 -0.1256  0.0223
26908W        W43382  15.327   1.901  14.832 -0.0325 -0.0404 -0.1864
26909W        W43383  11.571   8.139  10.259 -0.4574 -0.2243  0.5145
26910W        W43384  18.260  16.705   1.323  0.0811 -0.0255 -0.0238
26911W        W43385  17.568  15.701  14.192 -0.1806 -0.0293 -0.3533
26912W        W43386  13.680   8.293  10.984 -0.0251 -0.0774 -0.2972
26913W        W43387  17.652   1.990  12.926 -0.0652 -0.1009  0.0454
26914W        W43388  15.924   3.060   3.061 -0.0535  0.3361 -0.2590
26915W        W43389   3.168  13.818   2.082  0.1216  0.0648 -0.1122
26916W        W43390  18.555   2.828  12.614 -0.0685  0.1654  0.3313
26917W        W43391  18.462   0.654  13.498  0.0600 -0.2207 -0.0453
26918W        W43392  18.558  13.102   0.367 -0.2434 -0.2514 -0.0448
26919W        W43393  14.591  13.036   2.885  0.0922  0.3729 -0.0680
26920W        W43394  17.581   4.361  12.244  0.2164  0.0318  0.0604
26921W        W43395   4.032   6.102  11.194  0.0860  0.1298 -0.2025
26922W        W43396   8.264   9.439   0.487  0.0729  0.2334 -0.0750
26923W        W43397  14.123   8.665  12.711 -0.1472 -0.0573  0.1157
26924W        W43398  18.067  12.040   1.874  0.2163  0.1760 -0.3930
26925W        W43399   8.297   0.569  10.704 -0.0020 -0.1416  0.0527
26926W        W43400  18.487   2.972   4.421 -0.0672 -0.1054 -0.2915
26927W        W43401   5.779   6.533   2.026 -0.5477 -0.1437 -0.0531
26928W        W43402   3.295  14.675  11.919  0.3102  0.3044  0.1855
26929W        W43403  13.899   3.010  14.036  0.1860 -0.3151  0.2053
26930W        W43404  12.840  10.077   1.654 -0.1300 -0.0058  0.1620
26931W        W43405  17.330   8.260  11.130 -0.2104 -0.0204 -0.2686
26932W        W43406  19.162   0.679  11.773 -0.0624 -0.0777 -0.0375
26933W        W43407   6.844   9.748  13.029 -0.1087  0.0328 -0.1494
26934W        W43408  16.900  18.839  14.586 -0.3547 -0.0418  0.0430
26935W        W43409   9.896  16.287  12.174 -0.0049  0.0892  0.0615
26936W        W43410  11.546  15.320  10.736  0.1527  0.1771  0.2710
26937W        W43411  18.796   7.207   1.736 -0.1431 -0.1640 -0.1578
26938W        W43412   4.592  12.968  14.193 -0.0699  0.3714  0.1218
26939W        W43413   2.088  11.941  11.406  0.2215  0.0439  0.1249
26940W        W43414   3.556  11.761   1.770 -0.0503  0.1024 -0.1062
26941W        W43415   8.852   2.499   0.304  0.1067  0.2040 -0.1052
26942W        W43416   2.669   4.783  12.426 -0.1817 -0.2440 -0.1043
26943W        W43417  13.240   6.097  14.361 -0.2162  0.1114 -0.1957
26944W        W43418  12.472   1.331  11.998 -0.1633 -0.1484 -0.0543
26945W        W43419   0.251   8.830  13.378  0.0196 -0.1192 -0.3224
26946W        W43420   9.663  17.631  11.172  0.0619 -0.0876 -0.1371
26947W        W43421  15.296  15.328   0.016  0.1690 -0.3198 -0.0574
26948W        W43422  18.651   4.554   2.177  0.0656  0.1980 -0.1387
26949W        W43423   6.165  15.919   3.929 -0.0560  0.3643  0.2142
26950W        W43424   0.939  14.042   3.489 -0.1536 -0.0647  0.3188
26951W        W43425   9.228   9.188  11.607 -0.1094 -0.0604 -0.1964
26952W        W43426   0.582   0.726  12.155  0.2760  0.0493 -0.0842
26953W        W43427  15.327  16.991  12.581 -0.2688  0.0006  0.1883
26954W        W43428   2.912   1.054   4.175  0.0830 -0.1699  0.0407
26955W        W43429  14.236   8.619   0.630 -0.0415  0.0393 -0.1149
26956W        W43430   6.133   1.470  14.829 -0.3418  0.0653  0.2892
26957W        W43431  15.317  14.068   2.925  0.0061 -0.1927 -0.4887
26958W        W43432  15.184  15.629   3.791  0.1880  0.2762 -0.1511
26959W        W43433   2.586   3.142  11.750  0.0217  0.2857  0.2310
26960W        W43434   8.089  13.223   2.273 -0.3309 -0.0924 -0.2775
26961W        W43435  16.207  14.352   2.337  0.1787 -0.1358  0.0186
26962W        W43436   9.556   4.556   3.985  0.1102  0.2613  0.0632
26963W        W43437  13.697  17.715   3.968 -0.2650 -0.1333  0.1050
26964W        W43438   8.810   3.757  14.510 -0.3869 -0.1153 -0.0008
26965W        W43439  15.426  18.558  11.628  0.3217  0.1522  0.1731
26966W        W43440  17.470  14.148  13.368 -0.1076 -0.1618 -0.1361
26967W        W43441  13.131  19.048   4.804  0.0565  0.0284  0.0689
26968W        W43442   3.695  17.164  10.256  0.7152 -0.0098 -0.0935
26969W        W43443   2.163   7.158   2.563 -0.2173 -0.2600 -0.0511
26970W        W43444  17.623   3.479   4.452 -0.0232 -0.1154 -0.2344
26971W        W43445  16.193  18.942   2.649 -0.0381  0.0464 -0.2317
26972W        W43446  18.558  12.066  13.491 -0.0228  0.2323 -0.1572
26973W        W43447   8.572  15.707  11.490  0.1179 -0.0027  0.2158
26974W        W43448   0.118  14.839   5.366 -0.0603  0.0844 -0.2121
26975W        W43449  18.935  13.923  10.733  0.1447  0.1160  0.0684
26976W        W43450   6.231  12.273  13.373  0.0751 -0.1461 -0.2262
26977W        W43451   8.616  14.942   5.864  0.3849  0.1689  0.0373
26978W        W43452   3.973  10.185  13.177  0.3732 -0.5433 -0.2348
26979W        W43453  13.029  14.387  12.209 -0.1952 -0.0011  0.0468
26980W        W43454   5.655  14.353   5.132  0.0481  0.4199 -0.2147
26981W        W43455   7.955  16.762  13.441 -0.3893  0.0444  0.0167
26982W        W43456  11.144   6.685   1.029 -0.1505  0.0118  0.1130
26983W        W43457   2.049  11.772  13.280  0.0861 -0.0050 -0.1534
26984W        W43458  12.679   3.861  13.183  0.1036  0.2246  0.0087
26985W        W43459   3.284  11.496  14.697 -0.0528  0.0270  0.0618
26986W        W43460  13.635  17.743  14.539  0.1394 -0.0500 -0.0124
26987W        W43461   9.366  14.994  13.817  0.0131 -0.0202 -0.3161
26988W        W43462   4.196   3.428   0.002 -0.0812  0.3844  0.3376
26989W        W43463  12.566   2.659   3.388  0.1275  0.0553  0.0167
26990W        W43464  16.713  17.792   3.029  0.3860 -0.0406 -0.0292
26991W        W43465  12.096   0.762  13.333 -0.3883  0.1589  0.0841
26992W        W43466   3.671  14.891   5.380 -0.4407  0.2010  0.1156
26993W        W43467  16.185  12.137  13.005  0.1848  0.2926  0.1457
26994W        W43468  10.533   1.277  14.372 -0.3063  0.1898  0.1035
26995W        W43469  12.969   2.179   4.740  0.1433  0.2473  0.0317
26996W        W43470   6.411  13.670  13.055  0.0199  0.1311  0.3296
26997W        W43471   3.158  12.708  11.870  0.2257  0.2032 -0.1812
26998W        W43472  17.184   9.972   5.204 -0.0645  0.3132  0.1168
26999W        W43473  10.911   7.071   2.861 -0.2934 -0.2276  0.1398
27000W        W43474   1.039  15.416   1.721  0.0148 -0.1643 -0.0406
27001W        W43475   3.251  12.046  13.597  0.3319  0.2278  0.0404
27002W        W43476  18.836   2.272   2.064 -0.2369 -0.2868  0.1330
27003W        W43477  13.822  13.758   2.862 -0.0822  0.1364 -0.0483
27004W        W43478  14.022  12.290  12.165 -0.0194 -0.1583 -0.1263
27005W        W43479   7.945  17.336   9.970 -0.1778 -0.0599 -0.1093
27006W        W43480  13.791   7.200  12.290 -0.0171 -0.0410  0.0728
27007W        W43481  18.302  16.394  11.324  0.4355 -0.0522 -0.1460
27008W        W43482  18.029  19.294   1.733 -0.0056 -0.0016 -0.1542
27009W        W43483   5.750   3.073   4.093  0.3004 -0.0223 -0.1994
27010W        W43484  19.117  13.375  10.766 -0.0865  0.0623  0.1454
27011W        W43485  10.542  14.685  11.891 -0.0168 -0.0399 -0.1687
27012W        W43486  17.266   6.034  13.123 -0.0146 -0.0079 -0.0673
27013W        W43487  11.238  16.553  12.156  0.3488 -0.0279 -0.0895
27014W        W43488   8.112   8.030   4.229 -0.0848  0.2127  0.0128
27015W        W43489  11.067   5.974  12.025 -0.0070  0.5130  0.2018
27016W        W43490  14.736   7.514  11.283 -0.2099  0.0948  0.0382
27017W        W43491  12.549  15.004   0.509  0.0766  0.0472  0.1171
27018W        W43492  18.200  10.370   5.538  0.1221  0.2384  0.2388
27019W        W43493  18.889  18.779   4.591  0.0076  0.1348  0.0800
27020W        W43494  10.306   2.491  10.164  0.1983 -0.0642 -0.2861
27021W        W43495  15.360  13.826  10.884  0.1074  0.3115 -0.1202
27022W        W43496  13.716  18.001  12.784  0.0050 -0.1674 -0.3577
27023W        W43497   8.696  15.110   5.372  0.0872  0.2388  0.1368
27024W        W43498   6.644  13.932  14.656 -0.1614  0.3315  0.0698
27025W        W43499   4.166  12.282  12.461  0.2936  0.0898  0.2607
27026W        W43500  14.099  14.487   4.894  0.0712  0.0223 -0.1470
27027W        W43501  13.604   0.908   4.659  0.0908  0.0083 -0.0103
27028W        W43502  14.992   9.435   0.374  0.0526  0.2515 -0.3115
27029W        W43503  11.064  13.948  11.749  0.0526 -0.0925 -0.3012
27030W        W43504   1.131  10.583  13.471 -0.1966 -0.0604  0.2010
27031W        W43505   8.241   1.474  12.138  0.0924  0.2270 -0.0444
27032W        W43506   3.603   3.782   4.396 -0.0793  0.1164 -0.2681
27033W        W43507   1.908  15.567   2.852  0.1079  0.3413 -0.0600
27034W        W43508   5.557  13.381  13.567  0.2073 -0.0670  0.2740
27035W        W43509   3.610   1.586   4.184 -0.1928  0.1544 -0.1811
27036W        W43510  18.374  13.314   4.688 -0.1482 -0.0633  0.0265
27037W        W43511   3.914   4.905  12.270 -0.0209 -0.2315 -0.0523
27038W        W43512  13.065  19.166  10.026 -0.1465 -0.4848 -0.0790
27039W        W43513   6.158   6.732   0.871  0.0565 -0.0282  0.0721
27040W        W43514  13.495   9.321  12.325  0.3577  0.0390 -0.1807
27041W        W43515   0.393  15.600   3.746  0.0255 -0.0913 -0.1614
27042W        W43516   9.555  15.395   1.234 -0.2288 -0.2418  0.1845
27043W        W43517  14.517  13.230  10.837 -0.0231  0.3868 -0.0933
27044W        W43518   4.723  18.625   0.426 -0.2713  0.2966  0.4110
27045W        W43519  15.065   0.099  10.738 -0.0947 -0.0391 -0.1069
27046W        W43520  10.566   5.703  12.271 -0.1762 -0.1042 -0.0791
27047W        W43521  13.663   4.557   0.060 -0.0659 -0.3031  0.0319
27048W        W43522   3.190  12.682   3.998  0.0482 -0.3647  0.0650
27049W        W43523   9.287   0.644   4.250  0.3133  0.1846 -0.2549
27050W        W43524  12.933  16.317   5.281  0.1390 -0.1510 -0.2837
27051W        W43525   3.222  15.708  12.281  0.2047  0.2000 -0.3749
27052W        W43526   9.227   3.318  12.233 -0.0314 -0.3189  0.0653
27053W        W43527  14.675   5.872  11.144  0.3175  0.1433 -0.2297
27054W        W43528   8.842   6.741   4.098  0.1347  0.2066  0.2776
27055W        W43529   3.498   5.831   3.471 -0.1518  0.2647  0.2205
27056W        W43530  14.697  13.230  13.555  0.2999  0.1082 -0.0796
27057W        W43531   3.867  12.342   3.897  0.1596  0.1944 -0.3661
27058W        W43532   0.276   6.616   0.366 -0.0732  0.1188 -0.0713
27059W        W43533   5.553   6.835   1.578 -0.4730  0.2759  0.0902
27060W        W43534   0.231   0.286   2.022  0.1874 -0.0575  0.0116
27061W        W43535  14.622   8.760  13.109 -0.0115 -0.2347  0.1755
27062W        W43536   7.589   9.732  10.511  0.0117  0.0926 -0.2054
27063W        W43537  10.494   1.686   5.261 -0.4259 -0.0087 -0.2472
27064W        W43538  12.754  14.704   1.701  0.1290 -0.1308  0.0173
27065W        W43539  16.152  11.656   4.085  0.2368 -0.0586  0.3628
27066W        W43540  18.390   1.128  13.424 -0.2211  0.1149 -0.4634
27067W        W43541   0.415   7.455  14.629 -0.1783 -0.0092  0.1180
27068W        W43542  13.252  17.399   3.275  0.0909  0.4049  0.3431
27069W        W43543  14.845  11.645  14.200  0.2454  0.1706  0.2377
27070W        W43544  11.896  11.167  14.101 -0.0226 -0.2398  0.2764
27071W        W43545  14.119   3.303  13.536  0.0122  0.0659 -0.1444
27072W        W43546  10.393  16.617   1.209  0.3573 -0.1803  0.2987
27073W        W43547  18.759  12.573   4.481 -0.2603  0.1442 -0.1849
27074W        W43548  14.709   1.302  12.646 -0.0665  0.2160  0.1237
27075W        W43549  12.075  12.792  14.823  0.0426 -0.1655 -0.1096
27076W        W43550   0.056   4.897  10.343 -0.0400  0.2747 -0.0809
27077W        W43551   8.582   7.648   8.778  0.1759  0.1379  0.2210
27078W        W43552  12.989   2.224  14.762  0.1501 -0.2686  0.0552
27079W        W43553   1.506   9.370  12.299  0.0658  0.2419 -0.1792
27080W        W43554   3.230   0.083   3.726  0.1432 -0.0022 -0.2353
27081W        W43555   7.283  10.957  11.277  0.3319 -0.0837  0.1707
27082W        W43556   9.376   3.291   1.525  0.1613  0.0387  0.0397
27083W        W43557  11.618   2.141   2.995 -0.0029  0.1227  0.0053
27084W        W43558   2.095   3.022  10.247 -0.0600  0.0709 -0.0668
27085W        W43559   3.045   6.369  10.030  0.0994  0.2413 -0.2478
27086W        W43560   5.237   6.671   3.880 -0.0097  0.3520  0.0475
27087W        W43561  11.944   0.566  14.205  0.0970  0.0588 -0.1670
27088W        W43562  15.171   5.360   1.192 -0.1063 -0.0270 -0.1309
27089W        W43563   1.055  18.674   5.238 -0.2871 -0.2252  0.1864
27090W        W43564  14.915  14.953   3.523  0.0507 -0.1455 -0.0392
27091W        W43565  15.793   3.957   3.440 -0.1193  0.0681 -0.0054
27092W        W43566   2.360   9.055  11.835  0.2012 -0.0016 -0.0761
27093W        W43567  15.762   4.838   5.419  0.2004 -0.1901 -0.1047
27094W        W43568   2.541  14.979  12.078 -0.0223 -0.1840 -0.1788
27095W        W43569   8.120   6.802  11.626 -0.4552 -0.1375  0.1887
27096W        W43570   2.640  16.240  12.823  0.2154 -0.1887 -0.0015
27097W        W43571  19.365  15.001  11.459  0.1826  0.2080  0.2625
27098W        W43572   1.966  13.730   4.155 -0.1905 -0.1964  0.0554
27099W        W43573  15.287   3.928   4.315  0.2958  0.1127 -0.1399
27100W        W43574  11.890  14.050  14.089 -0.0246 -0.2501  0.2265
27101W        W43575  15.608   6.037   0.839  0.3247 -0.0199  0.2454
27102W        W43576   5.594  12.692  14.578 -0.2424 -0.0557 -0.1438
27103W        W43577  10.002   9.051  11.640 -0.0687  0.1668  0.1069
27104W        W43578  15.815  13.438   4.550 -0.0802 -0.2209 -0.0768
27105W        W43579  14.898  13.778   0.363 -0.4417 -0.0635 -0.1918
27106W        W43580  15.937   1.583  12.289  0.0589 -0.0377  0.1116
27107W        W43581   9.043   2.285  14.781  0.0127 -0.0371  0.0469
27108W        W43582  17.707  15.912  10.380 -0.4860 -0.1333 -0.1277
27109W        W43583   9.960   3.298  10.310 -0.1101  0.2178 -0.5175
27110W        W43584   3.263   5.798  11.232 -0.0408  0.2885  0.0973
27111W        W43585  10.459  13.508   4.222 -0.2524  0.2589 -0.0886
27112W        W43586   5.006   0.437  10.845 -0.1039  0.1779 -0.1364
27113W        W43587  10.637   2.692   3.643  0.3556 -0.0931 -0.0621
27114W        W43588  12.646   3.888  12.653  0.0874 -0.0677 -0.3288
27115W        W43589  13.888  18.491   4.562  0.3498 -0.2299  0.1805
27116W        W43590   9.197  16.780   4.658  0.0484 -0.1408  0.3435
27117W        W43591   0.853   7.832   5.212 -0.1744 -0.2246  0.2157
27118W        W43592  17.267   1.815  14.624 -0.0992 -0.4368  0.0525
27119W        W43593   1.946   8.310  12.812  0.0804 -0.2743 -0.2234
27120W        W43594   8.095  11.638   2.369 -0.1597  0.0326 -0.2947
27121W        W43595   5.945  18.440   5.119 -0.0484  0.4704 -0.1215
27122W        W43596   6.132   7.838   2.436 -0.3753 -0.0613 -0.0704
27123W        W43597   4.718  18.039   3.525 -0.2743 -0.2480 -0.0397
27124W        W43598  13.485  12.999   2.779 -0.1440  0.0612 -0.1988
27125W        W43599  17.049  14.839   1.861 -0.2124 -0.0091 -0.1607
27126W        W43600   6.286   9.517   3.185 -0.0160  0.2723  0.2701
27127W        W43601  12.920  18.158  12.266  0.0701  0.2932 -0.2451
27128W        W43602  11.193  17.980   1.808 -0.1760 -0.2539  0.2873
27129W        W43603   2.008   2.566   9.538 -0.1890  0.2518 -0.0939
27130W        W43604  16.382   4.063  14.819  0.1000 -0.1178  0.0489
27131W        W43605   3.450   3.024   0.181  0.0269 -0.2759 -0.3818
27132W        W43606   8.937   6.738   3.560  0.2401  0.0827  0.0150
27133W        W43607  12.380  16.841  10.117  0.2415  0.1092  0.1658
27134W        W43608   3.947   4.094   0.541  0.1433  0.0312 -0.1061
27135W        W43609   6.191  10.721   2.538 -0.1912 -0.0628 -0.1197
27136W        W43610   1.163   2.455  14.000  0.2271 -0.0729  0.2649
27137W        W43611   4.091  18.656   5.277  0.0855 -0.0988 -0.0688
27138W        W43612  12.084   2.003  10.859 -0.2375 -0.0510 -0.1820
27139W        W43613   8.335  18.554  13.566 -0.0228 -0.4464  0.0059
27140W        W43614   5.809  17.270   4.042  0.3154 -0.1838  0.1862
27141W        W43615   5.193   3.423   2.553 -0.0264  0.1890  0.1004
27142W        W43616  18.219  14.470   4.740  0.3350  0.2134 -0.2582
27143W        W43617  17.123   3.027  14.259 -0.1200  0.1660  0.0399
27144W        W43618  16.175   9.882   4.031 -0.0844  0.0268  0.0713
27145W        W43619   5.137  12.142   3.446  0.4674  0.0108  0.5088
27146W        W43620   5.015  12.808  13.994  0.1112 -0.1091 -0.2278
27147W        W43621   6.986  13.155  13.596  0.1027 -0.2093 -0.1115
27148W        W43622  16.816  18.581   3.767 -0.2259  0.0767  0.2373
27149W        W43623   5.445   5.139  12.882 -0.0864  0.1040  0.1353
27150W        W43624   0.184  18.078  11.174 -0.0070  0.1455  0.1035
27151W        W43625  10.342  10.308  14.438  0.0778 -0.2909  0.1748
27152W        W43626   8.530  11.882   1.254  0.0770 -0.0981  0.0747
27153W        W43627  17.237  13.424   1.485 -0.1551 -0.1315  0.0607
27154W        W43628  11.547   0.616   1.093 -0.2966  0.0476  0.1789
27155W        W43629  13.709  15.856  14.420 -0.0602 -0.3283  0.2047
27156W        W43630  10.711  17.917   3.691 -0.1665 -0.0186  0.0104
27157W        W43631   1.040  16.401  14.528 -0.0135 -0.0536 -0.0961
27158W        W43632  10.108  17.161   4.758  0.2208 -0.1994 -0.1731
27159W        W43633  15.333   9.019   0.486 -0.1412  0.1786 -0.0000
27160W        W43634   0.218   8.292   2.551  0.2472  0.1610 -0.0457
27161W        W43635  19.070   5.863  13.198 -0.0174 -0.4224 -0.1074
27162W        W43636   5.942   4.717  11.282  0.1468  0.0351 -0.2483
27163W        W43637   0.147  11.626   4.761 -0.2358  0.1612 -0.4614
27164W        W43638  17.713   7.119   0.697  0.3416 -0.0660  0.0831
27165W        W43639   1.245  16.493   1.347 -0.1346 -0.2368  0.2435
27166W        W43640   3.278   8.113   0.373  0.0853 -0.2706 -0.0636
27167W        W43641  13.549  14.655   2.921  0.0637 -0.1620  0.0768
27168W        W43642   1.774   4.419   4.469 -0.0127  0.0015 -0.0219
27169W        W43643  19.272  17.576   2.447  0.3943 -0.1517 -0.1776
27170W        W43644  14.597  12.023   1.243 -0.4799  0.1598 -0.1015
27171W        W43645  13.023   6.930  10.775  0.3487 -0.1704  0.0687
27172W        W43646  16.435  16.804   1.084 -0.1129  0.3354 -0.2359
27173W        W43647   2.878  13.138  11.846 -0.0383 -0.0077  0.2634
27174W        W43648   4.186  17.017   3.860 -0.3012 -0.2275  0.0340
27175W        W43649   7.526   5.993   3.974  0.5602  0.0426 -0.2338
27176W        W43650  17.614   4.079  14.464 -0.0122  0.3480  0.1711
27177W        W43651  15.998  13.913   2.519  0.0093  0.2699  0.1118
27178W        W43652   8.561  10.207   0.737 -0.2389 -0.1512 -0.0079
27179W        W43653  15.352  10.134   1.881 -0.0737 -0.1052  0.1776
27180W        W43654  17.171  19.269  14.661  0.0267 -0.0588  0.5703
27181W        W43655   5.881  16.403  10.939 -0.2407  0.0051  0.1120
27182W        W43656   3.535  17.117  14.427 -0.3011  0.1686  0.1975
27183W        W43657   9.945  14.007  14.466 -0.1901  0.3626 -0.0227
27184W        W43658   1.536   6.176  14.649  0.1711 -0.1580 -0.0047
27185W        W43659  10.400  16.001  13.951  0.0248 -0.0676 -0.2526
27186W        W43660  13.262  12.127   3.848 -0.1299  0.0029 -0.2410
27187W        W43661   3.309   1.404   1.869 -0.2230 -0.2869  0.1306
27188W        W43662   8.869  13.201   2.721 -0.2058  0.1033 -0.0391
27189W        W43663   1.192   0.745   4.664 -0.0945  0.2168 -0.2612
27190W        W43664   3.594  15.634   4.770 -0.1798 -0.0366 -0.1390
27191W        W43665  16.378  10.674   2.143  0.2634  0.1512  0.0534
27192W        W43666   3.642  10.479  13.613  0.1798 -0.0795 -0.0095
27193W        W43667  10.567  15.728   5.090 -0.5840 -0.1605 -0.2272
27194W        W43668  12.937  10.255  14.084 -0.5025 -0.0259  0.1068
27195W        W43669   4.782  18.032   1.780 -0.2082  0.1049  0.0879
27196W        W43670   1.379  15.187   1.199 -0.1200 -0.3302  0.1617
27197W        W43671  11.740  10.800  13.355  0.0089 -0.2046  0.0890
27198W        W43672   5.888   3.716  12.310  0.0553  0.2254  0.1285
27199W        W43673  17.474  15.751  13.326  0.2668 -0.1837 -0.3318
27200W        W43674   2.531   9.884  13.386  0.0672  0.1366 -0.1065
27201W        W43675   3.523   3.743   3.638  0.0389  0.5902 -0.0557
27202W        W43676   5.594   4.664   4.680  0.1502 -0.2113 -0.2498
27203W        W43677   8.588   7.815   4.324 -0.0391 -0.0686 -0.0723
27204W        W43678   3.179   0.544   0.849 -0.3014 -0.0145  0.1260
27205W        W43679   0.090   0.633   3.652 -0.0886  0.0420  0.1223
27206W        W43680   4.469   5.929  13.403 -0.0982  0.0965  0.1675
27207W        W43681   5.304   7.367   2.306 -0.0628  0.1420 -0.3398
27208W        W43682  14.479   4.908   0.683 -0.4597 -0.1470  0.1658
27209W        W43683   5.013   4.654   4.539 -0.2299 -0.2046  0.1498
27210W        W43684   2.367  13.596   5.834 -0.0127 -0.3994 -0.1371
27211W        W43685   3.675   4.037   9.960 -0.0482  0.0813  0.1432
27212W        W43686   2.961   9.001   0.872  0.1945  0.0594 -0.0300
27213W        W43687   3.438   6.847   2.075  0.3203  0.3115 -0.1291
27214W        W43688  18.522  16.855  11.002 -0.1636 -0.1886  0.0982
27215W        W43689   6.612  12.859   1.314 -0.2802 -0.0828  0.1520
27216W        W43690  14.199   6.583   1.174 -0.0200 -0.2770 -0.0762
27217W        W43691  12.847  16.316  14.700  0.1080  0.1162  0.1088
27218W        W43692  17.479  13.237   5.361 -0.1839 -0.1417 -0.0237
27219W        W43693  13.455  13.227   2.175  0.1633 -0.0784  0.1951
27220W        W43694  13.344   5.473   2.722 -0.2031 -0.2921  0.0443
27221W        W43695   8.492   2.403   1.966  0.2051 -0.0073  0.2777
27222W        W43696  11.805  10.355  10.302 -0.3000 -0.0796 -0.0859
27223W        W43697   5.941   1.193  14.470  0.2379  0.3574  0.0677
27224W        W43698  11.002   8.116   3.574  0.1898  0.0511 -0.2803
27225W        W43699   4.666  11.391  14.080 -0.1612  0.0213 -0.1948
27226W        W43700  13.942  10.850   1.700 -0.1230 -0.0633 -0.3155
27227W        W43701   7.362  10.191  14.027 -0.0538 -0.0379 -0.0919
27228W        W43702   2.188   5.862   3.581 -0.2645  0.0493 -0.0394
27229W        W43703   4.483   8.896  14.541  0.1727 -0.1606 -0.2877
27230W        W43704   4.267   3.782  10.804  0.3456 -0.1908  0.1330
27231W        W43705  15.753  11.410  14.334  0.2212  0.1677 -0.1933
27232W        W43706  10.396   0.482   1.654 -0.3360  0.1323 -0.0095
27233W        W43707   2.387   0.205  11.358  0.1340 -0.0482 -0.0549
27234W        W43708  16.167   3.931   1.312  0.0397  0.2641 -0.1875
27235W        W43709   5.244   3.779   2.089 -0.2333 -0.5009 -0.1914
27236W        W43710   3.936  12.531  14.624  0.0267 -0.1261 -0.2548
27237W        W43711   0.339  10.211  12.858 -0.0636  0.0828 -0.1903
27238W        W43712   4.924  13.155   2.982 -0.0137 -0.1406  0.0246
27239W        W43713   1.444   4.260   9.169  0.1511 -0.1769 -0.2140
27240W        W43714   6.046  15.103   0.019 -0.2068  0.1724  0.2074
27241W        W43715   6.920   1.671  11.072 -0.0584  0.1970  0.0552
27242W        W43716   6.012   4.284   4.382  0.1998  0.1692 -0.1382
27243W        W43717   3.985   0.508   2.478  0.1860  0.0172  0.1233
27244W        W43718  13.104  17.949  10.360  0.0110 -0.0095  0.0220
27245W        W43719   7.918   7.292  14.322  0.1534 -0.0188 -0.1422
27246W        W43720  14.520  17.337   4.084  0.1019 -0.1589 -0.2072
27247W        W43721  18.736  15.636   0.807 -0.0503  0.0478 -0.0855
27248W        W43722   8.128   2.631  10.725  0.0253 -0.0412  0.0510
27249W        W43723   4.923   3.030  11.345 -0.2291 -0.0670 -0.0811
27250W        W43724  12.201  16.309  14.099 -0.1618 -0.1640 -0.1598
27251W        W43725   9.735  16.688  11.233  0.4970 -0.0789  0.3497
27252W        W43726  12.214   8.601  14.516 -0.1476  0.2073 -0.1838
27253W        W43727  12.870   4.950  14.038 -0.4698  0.2657 -0.3003
27254W        W43728  18.325   9.842  11.771 -0.0153 -0.3019 -0.2337
27255W        W43729   7.092  12.547  13.183 -0.0188  0.1207 -0.1035
27256W        W43730   5.014   8.072   1.495  0.2639  0.1370  0.2881
27257W        W43731   5.917   7.597   2.836 -0.2660  0.1453  0.0987
27258W        W43732   6.253  11.934   5.054  0.1131 -0.0053 -0.1107
27259W        W43733  19.283   8.051  12.480 -0.0259 -0.1789 -0.1837
27260W        W43734  19.284  11.816   3.371 -0.2320  0.0969 -0.2667
27261W        W43735  16.113  12.606  12.953 -0.0896 -0.5054 -0.0842
27262W        W43736  15.437   2.611   3.632 -0.0355 -0.1007  0.2968
27263W        W43737   9.166  10.788   0.231 -0.3884  0.1157 -0.2303
27264W        W43738   3.890   3.882  11.171 -0.1447 -0.2509  0.0618
27265W        W43739  12.629  13.359   1.853  0.1015  0.1950  0.1521
27266W        W43740  12.272  18.489   2.693 -0.1979  0.3669  0.0389
27267W        W43741   3.582   2.391   4.465  0.1018 -0.0100 -0.0763
27268W        W43742  10.702   7.553  11.759 -0.0826  0.3637 -0.1176
27269W        W43743   1.234   3.377  14.710 -0.2878 -0.0054 -0.1873
27270W        W43744  14.582   8.471   4.388 -0.0466  0.0680  0.4055
27271W        W43745   9.933  11.022  12.045  0.0560 -0.0159  0.2936
27272W        W43746   6.603   8.800   3.883  0.1128  0.1066  0.1374
27273W        W43747   5.896  11.157   2.597 -0.0966 -0.2359 -0.0865
27274W        W43748  18.711   9.419  14.676 -0.2693  0.1715 -0.1098
27275W        W43749  16.800  15.894  13.389  0.1322  0.0201  0.0402
27276W        W43750   9.683  10.855   1.976 -0.0487 -0.0198  0.1726
27277W        W43751  15.317  16.134  12.593  0.1372 -0.3180  0.0265
27278W        W43752   8.558  10.206   0.175  0.0003 -0.0563  0.2608
27279W        W43753   9.936   7.653   0.014  0.0052 -0.0523 -0.1012
27280W        W43754   1.270   9.455   3.761 -0.0520  0.3765 -0.4285
27281W        W43755   1.517  19.351  13.724 -0.0758  0.1059 -0.0000
27282W        W43756   5.766  17.449  12.334  0.1869 -0.1429 -0.2372
27283W        W43757   1.260  13.581  11.724 -0.3346 -0.3710  0.2440
27284W        W43758  17.328   1.536  12.919 -0.0573  0.1534  0.2998
27285W        W43759  18.179  16.133  10.358  0.0505 -0.0656 -0.0996
27286W        W43760  19.377  10.097   3.366 -0.1197  0.1843 -0.1258
27287W        W43761   9.943  11.326  13.694  0.0250 -0.1428  0.5156
27288W        W43762  11.010  14.081   9.367  0.0233 -0.0199  0.1148
27289W        W43763  10.495  12.227   1.916  0.1234 -0.0659  0.1024
27290W        W43764  10.804   6.228   3.453  0.0972  0.0700  0.3800
27291W        W43765  10.776   6.258   1.575  0.0011 -0.0091 -0.2144
27292W        W43766   5.992   1.769  12.295 -0.3226 -0.0854 -0.2467
27293W        W43767  17.401  14.429  11.030  0.3026  0.3623  0.4503
27294W        W43768   0.611  15.979  10.403  0.0444 -0.3657  0.0089
27295W        W43769   1.306  16.481   2.266  0.1328 -0.0994  0.0574
27296W        W43770  11.337   7.396   2.996  0.2653 -0.1926 -0.0096
27297W        W43771  12.566   0.275  11.100 -0.1132 -0.4109 -0.0716
27298W        W43772   0.302  18.488   1.390  0.0311  0.1840 -0.1675
27299W        W43773   1.824  14.594  14.369  0.1605 -0.0702  0.1084
27300W        W43774   0.902   9.280   1.518  0.0109 -0.0996 -0.2243
27301W        W43775   7.964  14.149  13.068 -0.1261  0.0336  0.1561
27302W        W43776  13.435   5.339   0.030 -0.2138  0.2574 -0.1113
27303W        W43777  17.430   5.873  12.189  0.1451  0.3436 -0.1329
27304W        W43778   2.415   0.050  10.868  0.1432 -0.1038 -0.0340
27305W        W43779  10.489  11.927   4.580 -0.2816 -0.1232  0.3317
27306W        W43780   2.303  16.446   3.831  0.0822 -0.3069 -0.2097
27307W        W43781   7.044   0.223   0.832  0.2212 -0.1541  0.4287
27308W        W43782  15.236   0.355   5.494  0.3379  0.2604 -0.2500
27309W        W43783  12.087  15.421   1.771  0.1481  0.0450  0.0988
27310W        W43784  11.617   8.143  12.310  0.2638  0.3417 -0.1388
27311W        W43785  12.014  12.601   3.817  0.1506 -0.0365  0.1203
27312W        W43786   6.851  12.947  11.309 -0.1955  0.0443  0.0052
27313W        W43787   7.136   9.791   0.845  0.1835  0.1700  0.4170
27314W        W43788  14.102   5.588   2.363  0.1186  0.1720  0.0388
27315W        W43789  11.896  14.598   4.277 -0.1939 -0.2077 -0.3784
27316W        W43790  14.217  11.585   1.814  0.0771 -0.0948 -0.3733
27317W        W43791   8.606  18.779   9.770 -0.0505 -0.0666 -0.2209
27318W        W43792   0.445  18.822  12.743 -0.0347  0.0394  0.1581
27319W        W43793   8.749   7.653   3.259 -0.2776  0.0459  0.0149
27320W        W43794   5.905   6.652  10.354  0.2121  0.1883  0.0492
27321W        W43795   6.423   4.407  11.847 -0.1785 -0.2161 -0.0178
27322W        W43796   0.642   2.733  10.163 -0.1536  0.2602 -0.1819
27323W        W43797  17.623  11.780  12.478  0.0383  0.0283  0.2032
27324W        W43798   6.766  13.222   3.951 -0.4155  0.1154  0.0963
27325W        W43799   7.539   3.591   4.844  0.0347  0.0471 -0.0885
27326W        W43800   7.797   4.118   1.782 -0.2988 -0.1451 -0.0209
27327W        W43801  18.548  14.068   3.320 -0.2378  0.3945 -0.2296
27328W        W43802   6.117  17.370  13.844  0.0651 -0.0288  0.2732
27329W        W43803  14.112  10.335   0.961 -0.0289  0.0161  0.2864
27330W        W43804  10.128   4.528  14.627 -0.0240 -0.1544  0.1883
27331W        W43805  13.726   9.936   2.423 -0.0791  0.0089 -0.5683
27332W        W43806  10.170   1.114  12.162  0.1677  0.3313  0.1733
27333W        W43807   4.192   6.133   3.794  0.0219  0.1253 -0.1756
27334W        W43808   4.295   5.274   1.177  0.3656 -0.1506 -0.0624
27335W        W43809   9.786   2.872  13.541  0.0714 -0.1980 -0.1093
27336W        W43810  10.871  15.540  12.136 -0.1149  0.0715 -0.2465
27337W        W43811   8.357   0.970   4.393  0.1330 -0.1323  0.1155
27338W        W43812   5.745  19.148   2.606 -0.0763 -0.0607  0.1232
27339W        W43813  11.610   3.660   0.296  0.0928  0.0652  0.4300
27340W        W43814   3.793   9.294   4.319 -0.1891 -0.0678 -0.0003
27341W        W43815  11.124   8.036  11.504 -0.1008 -0.0660 -0.0135
27342W        W43816   7.953  13.817  13.625  0.1373  0.0149  0.0038
27343W        W43817   0.233   3.523   0.554  0.2139 -0.1485  0.1650
27344W        W43818  13.648  15.737  12.364 -0.0555  0.0591 -0.0333
27345W        W43819  15.656  19.188  13.917  0.0001  0.3029 -0.3555
27346W        W43820   7.915  15.673   3.231 -0.0559  0.1898  0.0976
27347W        W43821   2.176   4.223   0.578  0.0981  0.1565  0.2316
27348W        W43822  11.759  10.641   0.167 -0.0046 -0.0638 -0.0124
27349W        W43823  11.501  12.326   1.317 -0.1994  0.1305 -0.0893
27350W        W43824   9.694   1.462   4.923  0.1214  0.1764  0.3522
27351W        W43825   9.306  11.993   3.368  0.1391 -0.0965 -0.0326
27352W        W43826   3.994   1.801   3.976  0.0882 -0.1858  0.1127
27353W        W43827   4.655   4.289   3.187 -0.2748 -0.2104  0.0915
27354W        W43828   3.883   7.866   4.207  0.0065  0.1135  0.0902
27355W        W43829   4.907   7.863   4.397 -0.2538 -0.0498  0.2199
27356W        W43830  14.876  11.054   4.142 -0.3067 -0.0715  0.0864
27357W        W43831  13.013  19.106   1.274  0.0056 -0.0701  0.0091
27358W        W43832  16.381   5.174  11.787  0.1403 -0.4917 -0.1318
27359W        W43833  18.511  15.492   2.053 -0.1238 -0.0192 -0.1835
27360W        W43834  16.572   0.173  13.891  0.1420  0.0220  0.0657
27361W        W43835   6.456   3.488   4.185  0.1307 -0.0005 -0.0094
27362W        W43836   5.243  10.029  14.523 -0.2349  0.0988 -0.3183
27363W        W43837   1.218   6.893   4.872 -0.0417  0.2668 -0.0735
27364W        W43838   1.051  10.811  12.148  0.0396  0.1385  0.2094
27365W        W43839  18.785  16.257   2.534  0.3812  0.2106 -0.0420
27366W        W43840   8.166   8.127  13.834 -0.0974 -0.0708  0.2621
27367W        W43841  13.965  15.445  14.258 -0.0112 -0.2962 -0.3163
27368W        W43842   3.093   3.998   1.520 -0.1143  0.1318  0.1830
27369W        W43843   4.602  18.325  12.151  0.0221  0.1057  0.0554
27370W        W43844   4.513  18.165   0.379 -0.0765 -0.1037 -0.0985
27371W        W43845   9.190  14.069   2.496  0.0553 -0.0983 -0.1526
27372W        W43846   7.541  17.673  13.712  0.2147 -0.0988  0.1839
27373W        W43847  11.064  16.908   2.035 -0.0859 -0.1156 -0.1854
27374W        W43848   0.760   3.088  12.659 -0.0555  0.0627 -0.0219
27375W        W43849  13.935   2.781   3.531  0.1447 -0.1091 -0.2437
27376W        W43850   8.139  16.828  10.806  0.1249 -0.0188  0.0186
27377W        W43851  17.109   5.682  14.655  0.1779 -0.0253  0.0190
27378W        W43852  18.231  18.412   0.138 -0.1366 -0.1708  0.2180
27379W        W43853   3.763   3.467  12.499 -0.2945 -0.0998 -0.1963
27380W        W43854  11.439   3.437  10.405 -0.2515  0.0293 -0.0102
27381W        W43855  16.941  11.645  13.247 -0.1336  0.4167 -0.2540
27382W        W43856   9.960   9.629  10.732 -0.3207  0.0394  0.0004
27383W        W43857  12.530  14.095   2.320 -0.2499  0.0740  0.0453
27384W        W43858   7.655  14.788  12.497  0.1274  0.3664 -0.3190
27385W        W43859  18.395   7.747  11.676  0.1146 -0.0046  0.3043
27386W        W43860  11.352  16.305  10.612 -0.2255  0.0033  0.1288
27387W        W43861   6.835  18.670  11.694 -0.2836 -0.3700  0.0038
27388W        W43862  18.051  13.151   0.580  0.0445  0.0850  0.2044
27389W        W43863  11.604  12.110  13.794  0.1453 -0.0071  0.2469
27390W        W43864   4.278   8.239  10.214  0.0330  0.2757  0.0527
27391W        W43865   2.357   8.803   1.789 -0.0135 -0.2374  0.0289
27392W        W43866  11.781   0.609  10.949 -0.3369 -0.1114 -0.0907
27393W        W43867   3.733   1.721   2.915 -0.3924  0.1770  0.2800
27394W        W43868  11.865  19.059  14.304 -0.1337  0.0055 -0.2135
27395W        W43869   6.175  10.201   3.504  0.2394 -0.0302 -0.0727
27396W        W43870  11.621  17.551  13.059  0.3867  0.0996  0.3950
27397W        W43871  11.479  12.685  10.633  0.1477  0.2737  0.0350
27398W        W43872   8.787  17.896  12.661 -0.0354  0.0969 -0.1812
27399W        W43873  10.656   0.014  11.611  0.2960  0.1072  0.2766
27400W        W43874  13.405  14.981   4.366  0.1093  0.0954  0.1407
27401W        W43875   0.022   7.183  13.714  0.0654 -0.1869  0.1445
27402W        W43876   8.603   1.346  14.854 -0.1810 -0.1443 -0.1548
27403W        W43877  11.549  18.778  11.318  0.3590  0.0767 -0.0040
27404W        W43878  18.144   2.435   1.214  0.0752  0.2622 -0.2319
27405W        W43879   8.919   6.540  10.592  0.1468  0.0660 -0.0838
27406W        W43880  10.646   8.017  11.614  0.0339  0.1067  0.2782
27407W        W43881  14.676  13.546  11.511  0.2188 -0.0161  0.0629
27408W        W43882  15.025  16.644   3.387  0.1158  0.0112 -0.5588
27409W        W43883   7.490   6.212  11.581  0.1820 -0.0249  0.0228
27410W        W43884   0.737   3.562  14.820  0.0337  0.2780  0.0126
27411W        W43885   7.449  11.113   1.910 -0.2378 -0.0971 -0.2649
27412W        W43886  15.926  14.182   3.867 -0.1309  0.0474  0.0139
27413W        W43887   6.279  10.596   5.597  0.0553  0.0121 -0.2782
27414W        W43888   0.527  10.749   4.798  0.2242 -0.3356 -0.1283
27415W        W43889   1.895   5.879  14.840  0.5244  0.1145  0.0334
27416W        W43890   0.157   4.499  13.843  0.3146 -0.0082 -0.1162
27417W        W43891   7.595   5.493   4.198  0.1936  0.4933 -0.0962
27418W        W43892  15.302  11.772  13.723  0.1813  0.3300 -0.5605
27419W        W43893  13.029   0.655  10.054  0.1623 -0.0689  0.2469
27420W        W43894   9.412  16.328   3.689  0.2066  0.1051 -0.3140
27421W        W43895  11.956  15.618   0.981  0.3404 -0.0414  0.1260
27422W        W43896  14.770   3.166  14.319  0.1889  0.3578 -0.3632
27423W        W43897   3.371   1.083   2.432  0.2928  0.1918  0.2981
27424W        W43898   5.856   1.388   4.097  0.3143  0.0257  0.3686
27425W        W43899   9.580  16.138  12.607  0.0720  0.3711 -0.2349
27426W        W43900  17.399  19.318   0.900  0.1217 -0.4332  0.1373
27427W        W43901   4.780   6.333  12.251 -0.1211  0.4175  0.1595
27428W        W43902   5.602  14.292  10.574  0.0330 -0.2582  0.1400
27429W        W43903   8.008   7.832  10.812 -0.1212  0.2599 -0.2170
27430W        W43904  14.556   7.138  11.655  0.2500  0.0879  0.0043
27431W        W43905   3.551  17.083   4.555 -0.1672 -0.4240 -0.0418
27432W        W43906   9.353  15.636   9.998  0.1190  0.0459 -0.2236
27433W        W43907   2.328   3.964  13.285  0.0184 -0.1730  0.0313
27434W        W43908   8.837  14.253   3.282 -0.0369 -0.0363  0.3423
27435W        W43909  18.942  15.922  11.143 -0.2113 -0.1045 -0.0218
27436W        W43910  11.195   0.615  13.467  0.0519  0.1209  0.1335
27437W        W43911   3.829  18.307  10.425 -0.0157  0.3027 -0.0910
27438W        W43912  14.588  10.106   0.940  0.0754  0.1734 -0.3224
27439W        W43913  11.186   9.259  10.741 -0.2830  0.0495 -0.2078
27440W        W43914   8.908  10.605  10.762 -0.4914  0.1768 -0.1074
27441W        W43915   2.293  15.475  12.862 -0.1196  0.6269 -0.0897
27442W        W43916   3.363   7.745  13.146 -0.3143 -0.1470 -0.4005
27443W        W43917   2.155   7.118  14.164  0.0544  0.1092 -0.1649
27444W        W43918   9.135   6.950  14.068  0.3751  0.1640  0.1619
27445W        W43919   9.364   8.408   3.332  0.1951  0.1922  0.0377
27446W        W43920  18.538   7.301  13.502  0.0701  0.0460  0.4895
27447W        W43921   0.631  18.481  13.161 -0.0784  0.1914  0.1381
27448W        W43922   4.293  17.023  12.780 -0.0146  0.1237  0.0807
27449W        W43923  14.696  18.575  13.797  0.1436  0.2577 -0.1836
27450W        W43924   3.467  12.372   3.613 -0.0321 -0.1313  0.1194
27451W        W43925   7.877   6.511  10.739  0.1164 -0.3514  0.2866
27452W        W43926  13.501  15.200   1.087 -0.1911  0.2709 -0.3865
27453W        W43927  17.511   9.357  12.121 -0.1092 -0.0458  0.2594
27454W        W43928  11.037  13.547  11.407 -0.1813 -0.0504 -0.1609
27455W        W43929  14.227   8.535  14.237  0.0661  0.2312  0.3412
27456W        W43930   2.271  11.311   1.412 -0.0172 -0.0599 -0.0643
27457W        W43931   5.735   4.324   1.575 -0.0664 -0.0522 -0.1266
27458W        W43932  17.896   9.476  11.800  0.0088 -0.2095  0.3564
27459W        W43933   5.325  17.780  14.108 -0.0758 -0.0220  0.0326
27460W        W43934   5.962   9.561   1.249  0.2373 -0.0987 -0.1244
27461W        W43935   8.478   9.112  13.379  0.4410  0.1575 -0.1865
27462W        W43936  10.455  16.977   3.427  0.0805  0.3251 -0.3902
27463W        W43937  11.722  17.714  10.704  0.2230  0.2129  0.0413
27464W        W43938  15.651   9.231   7.403 -0.0862 -0.3516  0.0263
27465W        W43939  10.165   6.740  13.044 -0.1151 -0.1219 -0.3419
27466W        W43940  13.594  10.917   2.070  0.3347 -0.0634 -0.4443
27467W        W43941   0.216  15.783  11.437  0.2875  0.1409  0.0168
27468W        W43942   8.946   4.271   8.271 -0.0591 -0.3110  0.2380
27469W        W43943   0.145  15.815   2.096 -0.0836 -0.1922  0.0200
27470W        W43944   2.664  11.596   2.222 -0.1094  0.0078  0.3214
27471W        W43945   5.498   0.251   2.663  0.2186  0.2068  0.2390
27472W        W43946   3.161  12.862   2.750  0.0624 -0.2159 -0.2533
27473W        W43947  13.449  15.341  14.486 -0.0520  0.1068 -0.3500
27474W        W43948  17.581   8.536  14.762  0.1764 -0.0936  0.2221
27475W        W43949   2.987  18.400  13.328 -0.0535 -0.1212 -0.2235
27476W        W43950   3.063  17.924   2.325  0.2671  0.1722  0.0513
27477W        W43951   7.496   8.015   2.783 -0.2957 -0.1877 -0.2033
27478W        W43952   4.552   8.186   1.542  0.0846  0.0870  0.2260
27479W        W43953   5.031   7.567   0.623  0.1831 -0.1017 -0.0167
27480W        W43954   8.201   4.282  12.940 -0.0222 -0.1492 -0.2066
27481W        W43955  16.416   4.469  13.842  0.0113  0.3651 -0.0443
27482W        W43956   6.151  13.136   1.194  0.0516 -0.2056 -0.1660
27483W        W43957   4.211  18.773   3.241  0.4270 -0.0477  0.0813
27484W        W43958   4.194  16.077  13.779  0.1335 -0.1388 -0.1431
27485W        W43959   4.517   1.417  12.356  0.1041  0.2535  0.3226
27486W        W43960  16.424  17.321   4.563 -0.1760 -0.0893  0.3243
27487W        W43961  16.248  18.384   4.452 -0.0589  0.1751 -0.5528
27488W        W43962   8.055   7.490  12.556  0.0572 -0.5334  0.1308
27489W        W43963  15.520  12.630   0.354 -0.2295 -0.0520 -0.1975
27490W        W43964  10.988   9.505  13.234  0.1427  0.2352  0.2230
27491W        W43965   1.272  16.320   1.797 -0.0684  0.1243 -0.5071
27492W        W43966   4.989   1.530  14.621 -0.1547  0.0869  0.2615
27493W        W43967   1.675   8.339   3.825  0.1626 -0.0348 -0.1941
27494W        W43968  18.227   6.528   1.516  0.1434  0.1125 -0.0203
27495W        W43969  16.531   2.009  14.173  0.1425  0.2430  0.2539
27496W        W43970   7.584   7.817   3.338 -0.0929  0.0607 -0.0206
27497W        W43971  11.267  10.260   3.180 -0.0862 -0.1696  0.0721
27498W        W43972   3.307  14.773   0.267  0.0513  0.0388 -0.0877
27499W        W43973   7.284   2.121  12.185 -0.0455  0.3212  0.0261
27500W        W43974  17.446   6.865  11.209  0.1406 -0.1005 -0.4776
27501W        W43975   3.154  17.812  13.105 -0.0821  0.1001  0.3442
27502W        W43976  15.012   1.936  13.251 -0.1185 -0.1726  0.2942
27503W        W43977   6.926   6.226  10.641 -0.1830  0.1761  0.2196
27504W        W43978   3.624   7.413   4.216 -0.1976  0.1730  0.0237
27505W        W43979   3.221  16.241   4.302 -0.0804 -0.2551 -0.1097
27506W        W43980   2.672  12.760  12.033  0.1694 -0.0557  0.1678
27507W        W43981  17.276   1.222   1.894  0.1521  0.0972  0.1223
27508W        W43982  17.030  17.943   3.355 -0.1805 -0.1537 -0.0112
27509W        W43983  19.003   7.396   0.148  0.1412 -0.0373 -0.1223
27510W        W43984   3.255  18.727  12.932  0.0503 -0.2381  0.1256
27511W        W43985   1.791  10.948   2.939  0.0237 -0.3061  0.1008
27512W        W43986  13.678   3.972   4.761  0.2976  0.2986 -0.1613
27513W        W43987  13.793  10.219   4.022  0.0568 -0.0447  0.0221
27514W        W43988   1.077   9.699   0.490 -0.0838 -0.3509  0.1522
27515W        W43989   8.758   6.672  13.129  0.2807 -0.3920  0.0421
27516W        W43990   9.002   7.122  12.760 -0.1118  0.0519  0.0356
27517W        W43991   1.567   6.931   3.908  0.1965  0.1711  0.2123
27518W        W43992  18.607   9.081   2.438  0.0471 -0.0785  0.2381
27519W        W43993  15.870   4.518  12.960 -0.1322  0.0937 -0.0142
27520W        W43994   9.036   7.471  12.320  0.1209  0.1181  0.3277
27521W        W43995   7.300  12.742   0.021 -0.0000  0.1247 -0.1458
27522W        W43996  17.558   2.859  12.613 -0.0804 -0.0928  0.4708
27523W        W43997   0.811  10.085   2.681  0.2516  0.0326  0.1586
27524W        W43998   0.935   0.420  12.135  0.1371  0.3486 -0.0418
27525W        W43999  10.834  13.817  10.598  0.0335 -0.2736 -0.2820
27526W        W44000   0.503   3.998  11.712  0.0595 -0.1335  0.1735
27527W        W44001   7.591   8.258  12.135  0.1576 -0.0836 -0.1645
27528W        W44002  17.824   5.121   0.713 -0.1189  0.1500 -0.0011
27529W        W44003  14.588   2.737  12.890  0.1144  0.2577  0.1155
27530W        W44004  18.291  12.048  14.712  0.0976  0.1764 -0.2281
27531W        W44005   4.327   1.012  12.145 -0.2647 -0.0878 -0.0104
27532W        W44006  17.477   3.494  14.069 -0.4398 -0.1241  0.0935
27533W        W44007  11.696   8.643   2.593 -0.0050 -0.0184  0.1697
27534W        W44008   4.701  15.051  12.106  0.2066  0.1084 -0.2433
27535W        W44009   1.039   6.199   0.537 -0.4913  0.3017 -0.2281
27536W        W44010  13.134   2.139  12.210  0.2872 -0.1100 -0.3013
27537W        W44011   8.328   5.449  10.994 -0.0801 -0.0246  0.0892
27538W        W44012   3.985   0.162   0.813 -0.1943  0.2370  0.2603
27539W        W44013   9.926   2.196  12.527 -0.3219 -0.0604 -0.2036
27540W        W44014  15.245   7.140   9.721  0.0752  0.1604  0.1932
27541W        W44015   5.559   1.879  12.711 -0.0793  0.0828  0.1241
27542W        W44016   5.859  16.071   3.535 -0.1973  0.0960 -0.3572
27543W        W44017   1.388   7.055  11.463  0.0057  0.1156  0.0478
27544W        W44018   8.748   2.364  13.167  0.2607  0.1119  0.0133
27545W        W44019   1.628   9.883   0.923 -0.2454  0.0120 -0.2792
27546W        W44020  12.846   7.984   4.866  0.1448  0.1128 -0.1085
27547W        W44021  16.724  19.008  11.448  0.1040  0.2433 -0.1793
27548W        W44022   0.766   7.419  13.619  0.3313 -0.2237  0.2036
27549W        W44023  16.234   2.079   2.994 -0.0736 -0.0466 -0.3132
27550W        W44024   0.335  14.712   1.967 -0.0438 -0.0026 -0.0697
27551W        W44025  16.851  13.334   4.179 -0.1219  0.1139  0.1043
27552W        W44026  15.453   6.038   1.820 -0.1079  0.1382 -0.1603
27553W        W44027   6.999   7.382  12.681  0.2214 -0.2514  0.1652
27554W        W44028   8.968   4.117  10.576 -0.0836  0.0052 -0.2472
27555W        W44029  10.473  12.014   1.380  0.0757  0.1606 -0.1323
27556W        W44030  15.250  17.437  10.276 -0.2240 -0.3118  0.0329
27557W        W44031   6.040  13.437   3.122  0.4679  0.1070 -0.1486
27558W        W44032  11.569   4.344  10.163  0.3218  0.0614  0.4328
27559W        W44033   8.215   0.001   2.732  0.1273  0.0281 -0.0171
27560W        W44034  16.109  18.672   0.318 -0.1057  0.0712  0.0472
27561W        W44035   2.048   7.782   0.458 -0.2205  0.0190  0.2547
27562W        W44036   0.045  11.797  14.115  0.3030 -0.0761 -0.0839
27563W        W44037  18.236   1.223  11.980  0.2284  0.1846  0.3315
27564W        W44038  19.213   6.212   3.133 -0.0078 -0.2632 -0.1510
27565W        W44039  17.283   5.660   9.482 -0.1146  0.1485 -0.0694
27566W        W44040  11.109   2.313   3.071 -0.1611  0.1207 -0.2510
27567W        W44041   5.058   2.737  13.266 -0.1765 -0.0474 -0.0991
27568W        W44042  15.628  16.386   4.193 -0.2337 -0.2475 -0.3875
27569W        W44043   3.326  17.441   1.338  0.3936 -0.0298 -0.0332
27570W        W44044   6.815   3.064  12.488  0.2398  0.0160 -0.0214
27571W        W44045   4.887   9.286   2.119 -0.0455  0.1209 -0.2279
27572W        W44046  18.092  18.380   4.256  0.2521 -0.0447 -0.1144
27573W        W44047  11.997   9.154   2.395 -0.0588  0.1681 -0.0746
27574W        W44048   5.163  12.620   3.267 -0.3677  0.0734  0.0116
27575W        W44049  15.580   0.016   5.431  0.3072  0.1103 -0.2019
27576W        W44050   7.067  13.575  13.321 -0.0545  0.0221  0.0972
27577W        W44051   8.730   6.514   4.571  0.1373  0.0651 -0.2113
27578W        W44052  12.610  18.829  13.656 -0.2723  0.3321  0.2702
27579W        W44053   2.533   8.942   4.098 -0.0085 -0.0141  0.2610
27580W        W44054  12.723   1.412  13.207  0.1492 -0.0254 -0.0563
27581W        W44055  11.177  15.530  13.026 -0.0826 -0.1554  0.1442
27582W        W44056  15.903   0.518   4.658  0.0853 -0.2758  0.0635
27583W        W44057   3.612  19.083   2.670  0.5645  0.0282  0.0701
27584W        W44058   2.708  14.419   0.694 -0.0157  0.0806 -0.3013
27585W        W44059   6.419   6.743   3.052 -0.1746 -0.2935 -0.2052
27586W        W44060   9.114  12.687   2.280  0.0569  0.0175  0.1305
27587W        W44061   4.607   7.114   1.623 -0.3213  0.2190 -0.1515
27588W        W44062  13.630  15.980   2.630 -0.0098  0.3394 -0.1064
27589W        W44063  11.569   9.719   3.140  0.1319  0.4093  0.1415
27590W        W44064   0.375  11.108  13.277 -0.1865 -0.1563  0.1753
27591W        W44065   4.150   7.410  12.201  0.3297  0.4484 -0.0297
27592W        W44066  15.328  17.431   4.788  0.0768  0.1207  0.1204
27593W        W44067  15.808   2.500  12.489 -0.1508 -0.3749  0.0371
27594W        W44068  19.162  13.030   1.057  0.1155  0.1358 -0.1083
27595W        W44069  13.261   9.724   0.938  0.1146 -0.2103  0.1254
27596W        W44070  12.237  15.652  14.823 -0.1123  0.2323  0.0353
27597W        W44071  17.541   7.829  10.995  0.2904  0.3032  0.1511
27598W        W44072   7.159  14.541  13.162  0.0430 -0.1584  0.1099
27599W        W44073  14.268   6.718  11.328 -0.0781 -0.1393 -0.1234
27600W        W44074   7.849   4.540   0.886  0.1726 -0.0993  0.1992
27601W        W44075  13.792  17.501   4.386  0.0711  0.1840 -0.0850
27602W        W44076  12.324   2.316  10.507 -0.0066  0.2945 -0.2473
27603W        W44077   9.704  17.150  12.242 -0.1970  0.0530 -0.1357
27604W        W44078   8.648   2.507   9.947 -0.1215  0.1726  0.1858
27605W        W44079   9.298   1.586   2.324  0.0615 -0.1596 -0.0630
27606W        W44080   7.059  14.403   2.456  0.1971 -0.0620  0.3388
27607W        W44081  12.156  13.797   2.525  0.2764  0.2424 -0.0313
27608W        W44082  11.969  12.711   5.386  0.1391  0.1284  0.2697
27609W        W44083  15.470  19.082  14.664 -0.2093  0.0321 -0.4517
27610W        W44084  18.913   8.795   2.195 -0.1037 -0.0137 -0.0240
27611W        W44085   3.607  12.458  13.569 -0.1854  0.3176 -0.1322
27612W        W44086   8.883   5.469  14.476 -0.0406 -0.1872  0.0058
27613W        W44087   9.574  16.214  14.462 -0.2484 -0.4641  0.0767
27614W        W44088   8.636   8.217  12.824  0.2511 -0.1143 -0.3363
27615W        W44089  15.970   0.837   3.418  0.2243 -0.1647  0.3385
27616W        W44090  14.306  15.942   0.574 -0.6006  0.2475  0.1010
27617W        W44091   6.607   5.446   2.695  0.3070 -0.1756 -0.4969
27618W        W44092  18.706   9.817   4.635 -0.0626  0.1587  0.0766
27619W        W44093  17.934   5.996   0.813  0.0223 -0.1681  0.1722
27620W        W44094   9.434  10.867   2.412  0.2359 -0.0691  0.1043
27621W        W44095  15.643   0.095   0.149  0.0518  0.0911 -0.3365
27622W        W44096  14.701  14.043  14.691  0.2632 -0.0539 -0.0694
27623W        W44097   4.972   3.567  11.296  0.1276  0.2796  0.1618
27624W        W44098   9.686  18.040  12.519 -0.0011 -0.0279  0.0272
27625W        W44099   3.671  12.630   2.381 -0.1123 -0.0161  0.0757
27626W        W44100   5.964   0.706   3.174  0.0342  0.0372  0.2256
27627W        W44101   8.259  15.840   4.212  0.0192 -0.3077 -0.2353
27628W        W44102  11.258  10.510   2.766 -0.2090  0.2405 -0.0424
27629W        W44103  16.915   0.924  12.978 -0.4025  0.1744  0.0364
27630W        W44104   6.589  16.628   4.049  0.0123  0.1539 -0.2127
27631W        W44105   3.538   7.760   1.771 -0.0779 -0.1013 -0.1820
27632W        W44106  17.853  18.418   0.497 -0.2093  0.0292 -0.0216
27633W        W44107  17.600  16.104  13.699  0.2499 -0.2877  0.2062
27634W        W44108  11.529  18.966   2.938  0.0453 -0.1866 -0.2606
27635W        W44109   4.042  17.440   2.891 -0.1828 -0.1428 -0.0514
27636W        W44110  18.641   9.065   1.931 -0.3263  0.1327  0.0569
27637W        W44111   9.682  17.479  10.676 -0.0847 -0.0954  0.1324
27638W        W44112   9.251  17.333  12.312  0.1964 -0.1825  0.1561
27639W        W44113   1.268   0.105  14.881  0.0900  0.0377  0.2566
27640W        W44114   1.423  17.633  10.157 -0.2034  0.1885 -0.2709
27641W        W44115  13.682   6.544   3.652 -0.0913  0.2198  0.1233
27642W        W44116   6.985  15.737  12.671 -0.1292 -0.4564  0.0763
27643W        W44117  15.532  17.450  12.520 -0.0224  0.0182 -0.1565
27644W        W44118   6.911  12.587  10.414 -0.0202 -0.2025  0.2263
27645W        W44119  10.524   2.200   3.186 -0.1223 -0.0529 -0.0544
27646W        W44120   3.159  17.866   2.844  0.3228  0.0281  0.2049
27647W        W44121  17.251   2.806   4.319  0.3468 -0.0834  0.2734
27648W        W44122  18.518  13.021  12.148  0.0050  0.3584  0.0247
27649W        W44123  15.073   6.988  11.003 -0.1702  0.0310  0.0731
27650W        W44124   0.746  14.862  10.669  0.0183 -0.0729  0.4307
27651W        W44125   5.264  11.853   4.893 -0.1647 -0.1663 -0.2417
27652W        W44126  17.056  13.848  14.302  0.0748  0.2647 -0.3229
27653W        W44127  19.243  17.124   3.219  0.0356  0.0526 -0.2680
27654W        W44128   4.031  14.836   9.754  0.0809 -0.3332 -0.1030
27655W        W44129  13.003  13.996   2.433 -0.2609  0.0468 -0.1008
27656W        W44130   4.144  18.859   4.309  0.2191 -0.0135 -0.0253
27657W        W44131  13.527   2.648  12.405  0.2222  0.1936 -0.2324
27658W        W44132  11.799  14.923  13.667  0.0094 -0.2179 -0.0001
27659W        W44133  14.900  15.069  12.175 -0.0712 -0.0322  0.1152
27660W        W44134   0.685  15.799   1.283 -0.0365  0.0382  0.0322
27661W        W44135  12.355  18.869  11.824  0.1655 -0.3504 -0.2500
27662W        W44136   4.539   9.337   4.074  0.1720  0.1103  0.0970
27663W        W44137   7.951   6.689  12.099 -0.0398 -0.0394  0.1210
27664W        W44138   8.483   3.826   2.222  0.0889  0.0219 -0.0437
27665W        W44139   3.965   7.055  10.925  0.0196 -0.0353 -0.0434
27666W        W44140  14.671   4.655   1.919  0.3700 -0.1047  0.1991
27667W        W44141   5.189  10.369   2.220  0.1803  0.2948  0.2724
27668W        W44142  15.263  14.168   0.366 -0.3095  0.0464  0.6756
27669W        W44143   3.783   0.866  11.490 -0.1319 -0.3130 -0.3194
27670W        W44144   0.708  18.245   0.397 -0.1424  0.3456 -0.1648
27671W        W44145   0.928   8.534   4.700 -0.0290  0.2070 -0.2111
27672W        W44146  10.475   5.015   4.068  0.1514 -0.0944 -0.3333
27673W        W44147   7.685  18.695  12.188  0.0823  0.3400  0.3307
27674W        W44148  16.287   0.216  13.451  0.0103 -0.4528  0.1665
27675W        W44149   2.743  16.908  13.350  0.2165  0.0422  0.0798
27676W        W44150  15.214   1.586   0.836  0.0640 -0.3897 -0.1591
27677W        W44151   0.808   1.021  12.496  0.1721 -0.1062 -0.3922
27678W        W44152   5.587  19.250  11.593 -0.0420 -0.0386  0.3395
27679W        W44153   8.970   9.729  10.981 -0.0968  0.0995 -0.0836
27680W        W44154  13.026  12.538   3.583  0.1012  0.1351 -0.0317
27681W        W44155   7.211   0.904   9.369 -0.4386  0.1857 -0.0615
27682W        W44156   9.266   4.222   1.911 -0.1303  0.2125 -0.0509
27683W        W44157  10.872  12.339   4.453  0.0778 -0.0614 -0.0277
27684W        W44158   9.473   5.895   2.223  0.4404 -0.0852  0.2495
27685W        W44159   0.357   1.192  13.677 -0.0517  0.2286  0.1026
27686W        W44160   6.844  16.801   2.041  0.1494 -0.0945  0.0113
27687W        W44161   8.612  15.612   5.363 -0.1083 -0.0067 -0.0335
27688W        W44162  14.637  12.474   1.947 -0.0601  0.1001  0.1112
27689W        W44163   4.991  17.637   3.201 -0.1037 -0.0701  0.2725
27690W        W44164   6.251   6.135   9.086  0.0851 -0.0395  0.1015
27691W        W44165   8.171  10.677   2.041 -0.1446  0.0560 -0.0666
27692W        W44166   5.808  14.260  12.361 -0.0480  0.1307 -0.2580
27693W        W44167  14.234  16.142   4.113  0.1728 -0.1071 -0.0075
27694W        W44168   5.372  10.360  14.197 -0.2913 -0.0453 -0.0085
27695W        W44169  15.207   4.133  12.341  0.1151  0.2207  0.0810
27696W        W44170  14.250  18.511  14.737  0.2004  0.0170 -0.2395
27697W        W44171  15.485   7.544   2.798  0.0049 -0.1765 -0.0796
27698W        W44172   6.443   8.975   2.159  0.0614 -0.2859  0.2168
27699W        W44173  14.356   3.288   4.579  0.0628  0.0622 -0.2436
27700W        W44174   2.663  10.967   4.154  0.2028  0.1820 -0.2639
27701W        W44175   9.016   2.641   0.778  0.1286 -0.2758 -0.1489
27702W        W44176   6.407   8.478   0.801 -0.2906 -0.0388  0.1993
27703W        W44177  12.238   6.948  13.892 -0.3678 -0.2505 -0.0659
27704W        W44178   9.116  10.129  12.572 -0.2621  0.1477  0.0600
27705W        W44179  16.765  11.322  11.536  0.2365  0.1586 -0.2223
27706W        W44180   3.553  10.884  11.289  0.1675  0.1598 -0.0210
27707W        W44181  10.646   6.727   9.814 -0.1493 -0.2064  0.0408
27708W        W44182  17.650  18.503  12.950  0.0704 -0.1548 -0.4497
27709W        W44183   2.316  18.083   4.651  0.0138 -0.0790 -0.2040
27710W        W44184   6.391   5.159  12.449 -0.0403 -0.0412  0.2042
27711W        W44185   8.924   5.933   0.988 -0.1649 -0.0560  0.2278
27712W        W44186   4.132  18.076  11.933  0.0014 -0.0977  0.1117
27713W        W44187  15.609   4.916  11.985  0.0917  0.0036 -0.1475
27714W        W44188  11.089  17.793   3.425  0.0595  0.1596  0.2219
27715W        W44189   1.728   4.256   1.461  0.2755  0.0177 -0.2060
27716W        W44190   0.156  18.614   2.174  0.1597  0.2907 -0.1717
27717W        W44191  15.826   2.260   3.252  0.3329  0.0419 -0.2832
27718W        W44192  15.228   3.683  11.672  0.1767  0.3129  0.2217
27719W        W44193   9.115  16.184   2.368  0.1361 -0.3592  0.3585
27720W        W44194  14.300   2.338   9.872 -0.2293  0.0765 -0.0360
27721W        W44195  15.601   0.824   2.127 -0.2330  0.0114  0.0868
27722W        W44196  19.345   8.257   1.891  0.4484  0.1390 -0.0075
27723W        W44197  10.838   0.697  12.899 -0.5197  0.2668 -0.0279
27724W        W44198  13.825   9.679   3.309  0.0881 -0.1707  0.1126
27725W        W44199   2.362   3.048  13.717  0.0074  0.2456  0.1502
27726W        W44200  10.751  12.278   2.938  0.2052  0.1086  0.1883
27727W        W44201  15.966   9.503  11.170  0.1944 -0.0549  0.2672
27728W        W44202  13.284  18.094  14.658 -0.0065  0.1565 -0.1736
27729W        W44203   4.230   2.436   2.682  0.0380 -0.0756 -0.0103
27730W        W44204   4.285  10.810   0.391  0.0983  0.3104 -0.0146
27731W        W44205  14.065   8.546   4.553  0.0154  0.0336 -0.0147
27732W        W44206   5.416   0.102  13.996  0.0384  0.2369  0.3548
27733W        W44207  17.847  14.939  13.876 -0.1865 -0.0954 -0.1050
27734W        W44208   3.036   6.190   0.578  0.0932  0.0949 -0.1243
27735W        W44209   5.731   6.974   0.604 -0.2118 -0.2557  0.1837
27736W        W44210  13.275   7.606  11.637  0.0936 -0.0867 -0.2246
27737W        W44211   8.816  11.463   1.445 -0.2852 -0.1942 -0.3065
27738W        W44212   3.465  12.676   0.427  0.0739  0.0298  0.1673
27739W        W44213   7.076  16.832   4.872 -0.5618  0.0649  0.0837
27740W        W44214   6.334   0.787  11.257 -0.0102  0.0509 -0.2015
27741W        W44215  12.801   6.479  12.108  0.2015  0.0275 -0.1366
27742W        W44216   6.231  16.091   1.880  0.2141 -0.1296  0.2667
27743W        W44217   1.031   5.294   1.545 -0.0879  0.1730  0.2816
27744W        W44218   5.764   7.604  11.158 -0.4213 -0.0440 -0.0155
27745W        W44219   6.351  11.379   0.056  0.3581  0.0607 -0.1951
27746W        W44220  10.578  15.427  10.840 -0.0236  0.3336 -0.0369
27747W        W44221  11.704  13.040  14.290 -0.0593  0.0187 -0.2248
27748W        W44222   4.976   3.618  14.444  0.0296 -0.1008  0.0981
27749W        W44223   6.252   4.352   0.697  0.2062 -0.1177 -0.1230
27750W        W44224   9.997   1.164   1.868 -0.1060  0.1750 -0.0257
27751W        W44225   6.648  18.482   4.520  0.1171  0.2144  0.0370
27752W        W44226  14.792   8.207  14.217 -0.0269  0.6100  0.1329
27753W        W44227   3.754   4.731   2.471 -0.2367  0.0436 -0.2853
27754W        W44228  19.190   1.278   0.986 -0.0859 -0.0882  0.3385
27755W        W44229  14.941   1.548  13.656  0.0731  0.0359 -0.4302
27756W        W44230  13.055  14.528   4.506  0.1336 -0.2741 -0.2536
27757W        W44231  15.649   9.431   3.751  0.5690 -0.0800  0.3915
27758W        W44232  18.114   4.437   2.424  0.0535 -0.1642  0.0701
27759W        W44233   5.447   2.789   4.473  0.1043  0.2562 -0.2131
27760W        W44234   6.737  16.324  12.012  0.1010 -0.1541 -0.0820
27761W        W44235  16.341   2.588  12.238 -0.0955 -0.1538 -0.1351
27762W        W44236  11.487  11.423   2.294  0.1860 -0.1008 -0.2134
27763W        W44237  16.813  10.719  10.950 -0.1485 -0.0339 -0.0770
27764W        W44238  18.569  17.527   1.526 -0.3630 -0.0325 -0.0932
27765W        W44239   7.980   2.310  14.884 -0.2926 -0.4149  0.3234
27766W        W44240  13.695   1.107   3.233 -0.2095  0.1833 -0.0633
27767W        W44241  17.943   5.529   2.449  0.3862  0.0885 -0.0017
27768W        W44242  16.303  16.024   0.761  0.0096 -0.0900  0.0502
27769W        W44243   2.110  15.358  14.789 -0.2146  0.1230 -0.2938
27770W        W44244  14.400   1.581   3.254 -0.0491  0.3525 -0.0010
27771W        W44245  14.324   4.364   5.225 -0.0977 -0.1032  0.0835
27772W        W44246   9.594   7.987   3.360  0.1564 -0.3699 -0.0362
27773W        W44247   3.415   8.740  13.487 -0.1641  0.0129  0.1942
27774W        W44248   1.728   8.267   1.820  0.4087 -0.0104  0.0510
27775W        W44249   3.123  12.227   0.675 -0.3356 -0.1808 -0.1175
27776W        W44250   5.656   0.772  13.598  0.0183  0.0657 -0.1135
27777W        W44251   6.461  14.378  11.800 -0.0806  0.0774 -0.0183
27778W        W44252   3.496   9.654   4.553  0.0934 -0.0324 -0.1950
27779W        W44253   5.124  18.254   3.807 -0.0163  0.0981  0.1782
27780W        W44254   0.377   8.931   4.654  0.1770  0.3148 -0.2766
27781W        W44255  14.653   1.316  13.113 -0.1597 -0.0902  0.1216
27782W        W44256  18.851   5.168  13.834 -0.0297 -0.0504  0.1270
27783W        W44257   4.150   5.363  12.161 -0.0144 -0.0505  0.0454
27784W        W44258   3.045  19.171   0.640  0.2034  0.0154 -0.1071
27785W        W44259   8.335  18.610  14.029  0.0815 -0.3195 -0.0960
27786W        W44260  12.016   4.092   4.897  0.0016  0.3879  0.1535
27787W        W44261   4.908   0.461  11.892 -0.1207  0.2821  0.1117
27788W        W44262  17.209   7.780   4.549 -0.1274 -0.0633  0.0721
27789W        W44263  15.756  13.261   1.971  0.1084  0.2663  0.1508
27790W        W44264   5.810  15.709   1.055 -0.2668 -0.3603 -0.2913
27791W        W44265  16.010  17.605  12.554  0.1198 -0.0355  0.0472
27792W        W44266  10.910   7.043   4.674  0.5595 -0.1802  0.3046
27793W        W44267  12.060  10.270  12.611 -0.1610  0.2840  0.2006
27794W        W44268   5.136   2.619   0.500 -0.0875  0.2035 -0.0897
27795W        W44269  18.265   9.124   3.327 -0.1429 -0.0496  0.0676
27796W        W44270  14.578  10.601   0.911  0.0156  0.1612 -0.1982
27797W        W44271   2.740   9.603  11.084 -0.1945 -0.3125 -0.2779
27798W        W44272  18.670   6.497  10.881 -0.3093 -0.1656  0.3454
27799W        W44273  18.878  12.637   0.840  0.0754 -0.1408  0.1403
27800W        W44274  15.846  19.020   3.252 -0.0890  0.1055 -0.1253
27801W        W44275   9.275   0.856  10.993  0.1597 -0.3771  0.3072
27802W        W44276   9.398   4.537  11.603  0.0443 -0.2048  0.2541
27803W        W44277  16.576   6.040  12.535 -0.1485  0.1106  0.0164
27804W        W44278  12.022   4.133  11.780 -0.0595 -0.3007  0.0052
27805W        W44279  18.233   9.447  14.340  0.1034 -0.0164  0.1362
27806W        W44280  10.090   9.385  14.178  0.1756  0.0462 -0.0022
27807W        W44281   2.319  11.772   2.560  0.0574  0.0865  0.1325
27808W        W44282  13.812  18.276   2.596  0.1379  0.0146 -0.0872
27809W        W44283  12.731   6.607   0.370  0.0105  0.2549 -0.0172
27810W        W44284   7.459   0.740   0.241  0.3671 -0.1739  0.1388
27811W        W44285  13.219  11.908   5.585  0.1314  0.0400 -0.0582
27812W        W44286   9.699  15.961   1.589 -0.0264  0.2256  0.0015
27813W        W44287  19.165   8.279  11.085 -0.1702 -0.4125 -0.1456
27814W        W44288   2.588   4.573  13.534  0.0616  0.2198 -0.1001
27815W        W44289  14.448   9.617  10.569 -0.0559 -0.0710 -0.1979
27816W        W44290   4.757  13.536   2.599  0.0868  0.2354 -0.0151
27817W        W44291   2.918   2.861   3.403 -0.0169 -0.2650  0.0238
27818W        W44292   9.439  12.330   1.996 -0.0299 -0.1922 -0.1623
27819W        W44293   0.068   2.561   0.342 -0.2297 -0.0876  0.0984
27820W        W44294  17.102   2.314   4.718 -0.1957  0.2427  0.1828
27821W        W44295   5.962   8.774   0.165 -0.0354  0.0357 -0.0732
27822W        W44296   3.962  13.970   1.232 -0.0676  0.1190 -0.0564
27823W        W44297  16.295   1.616  11.245 -0.2400  0.0619 -0.4204
27824W        W44298   4.406  18.614  14.006 -0.2473 -0.0482  0.1557
27825W        W44299  14.706  18.081  12.096 -0.0979  0.0176 -0.2352
27826W        W44300  15.529  14.872   2.742 -0.4085 -0.1462 -0.0309
27827W        W44301   0.844  14.154   0.804  0.0092  0.3453 -0.0610
27828W        W44302  11.687   5.270   1.616 -0.2550 -0.0333 -0.0143
27829W        W44303  12.474   9.890   0.885 -0.3708 -0.1283  0.1981
27830W        W44304  11.328   7.634  13.792  0.2894  0.0617  0.2434
27831W        W44305   7.432  13.788  13.730 -0.0863 -0.0654  0.3136
27832W        W44306  15.641  14.345  10.637 -0.1929 -0.0538  0.1493
27833W        W44307   9.428  12.678  12.207  0.0162 -0.2164  0.1699
27834W        W44308  12.677  10.539  12.326 -0.2017 -0.3394  0.3688
27835W        W44309   2.387  15.595  10.837  0.2166 -0.0319 -0.1558
27836W        W44310   1.803   5.041   2.146 -0.1165 -0.3474 -0.1424
27837W        W44311   7.403  18.720   0.492  0.1666  0.0273  0.0662
27838W        W44312  10.490  11.380   4.661  0.0918 -0.2209 -0.3029
27839W        W44313   0.475   5.194   2.430 -0.2114  0.0640  0.1552
27840W        W44314  16.592  16.941  13.862  0.2492  0.1362  0.2479
27841W        W44315  15.994   5.237  12.167 -0.2574 -0.2689 -0.0795
27842W        W44316   2.209   8.267  10.419  0.2142  0.1633 -0.1387
27843W        W44317  12.841   5.892   4.570 -0.1832  0.1068  0.2578
27844W        W44318   3.187   4.240   5.817  0.1567 -0.2467  0.1637
27845W        W44319   7.639  11.378  13.839 -0.4337 -0.2511  0.0289
27846W        W44320  16.396   1.095  11.649 -0.1548  0.0166  0.1672
27847W        W44321   2.459  15.304   0.672  0.0875 -0.1052 -0.1836
27848W        W44322   4.849   1.436   3.897 -0.0531 -0.2606 -0.1431
27849W        W44323  10.934  10.697   9.384 -0.1024  0.2862  0.2288
27850W        W44324   9.750  16.034   9.659 -0.2979 -0.2885  0.3610
27851W        W44325  15.276   0.350   3.989 -0.2191  0.2624 -0.1385
27852W        W44326   9.190  10.213  11.102 -0.0509 -0.0937 -0.0703
27853W        W44327   6.871  10.343  10.849  0.0974 -0.1312  0.0644
27854W        W44328   8.013   2.696  12.706  0.2651 -0.4199  0.1595
27855W        W44329  11.021   0.063  12.576  0.1742 -0.1558  0.1814
27856W        W44330   3.716   5.856  13.819  0.0742  0.2524  0.0956
27857W        W44331   3.466   1.716  14.395  0.0590 -0.3613 -0.2721
27858W        W44332   6.459  12.838  10.232  0.1473 -0.3162  0.3618
27859W        W44333   9.826  13.886   0.080 -0.2537 -0.0316  0.0868
27860W        W44334   0.235  14.189  10.322  0.0492  0.1747 -0.2102
27861W        W44335   8.778   3.478   9.517 -0.1350  0.3098  0.1715
27862W        W44336   2.928  11.016   4.722  0.1203 -0.0420  0.1385
27863W        W44337  11.889   0.096   1.325 -0.1227  0.0154 -0.1088
27864W        W44338   4.047  10.406   2.739 -0.1564  0.1776  0.0575
27865W        W44339   9.527   1.751  11.082 -0.1343 -0.0773  0.1184
27866W        W44340   4.947   5.422  12.278  0.0543 -0.1722 -0.0144
27867W        W44341   4.909   9.661   2.700 -0.1148 -0.0497  0.0899
27868W        W44342  15.196  17.449  14.874 -0.0016  0.0760 -0.1731
27869W        W44343   8.492   2.822  12.852  0.3451  0.0623  0.0266
27870W        W44344  13.640  19.196  12.132 -0.0830 -0.3045  0.1067
27871W        W44345   6.913  11.034   4.917  0.4104 -0.0176 -0.0739
27872W        W44346   1.128  17.174   5.339 -0.1980 -0.0321 -0.2337
27873W        W44347   6.738  13.776  11.037  0.0704 -0.1712  0.0239
27874W        W44348  11.186  10.653  12.631  0.0256 -0.0461  0.0298
27875W        W44349   4.687  14.782  12.918 -0.2834  0.1718 -0.0927
27876W        W44350   6.555  19.154  10.479 -0.0881  0.1234 -0.2358
27877W        W44351   0.677   6.605  13.855  0.2076  0.0348 -0.1590
27878W        W44352  12.623   3.284   4.286 -0.3134 -0.1385  0.0066
27879W        W44353  11.042   7.266   9.924  0.5303 -0.0669 -0.2108
27880W        W44354  15.116  13.485  12.350 -0.0591 -0.6063 -0.1541
27881W        W44355  11.906   5.486  11.709 -0.1755 -0.0581  0.2553
27882W        W44356   8.979  17.483  11.800 -0.1737  0.2314 -0.1888
27883W        W44357  12.894  15.835   0.099  0.1373 -0.1126 -0.3028
27884W        W44358   0.393   3.338  14.472 -0.1965 -0.1626 -0.1075
27885W        W44359  16.846  12.163   5.063  0.1610 -0.3488 -0.2361
27886W        W44360   8.273   3.221   1.396  0.0504 -0.0690 -0.0192
27887W        W44361   1.763   4.910   0.840  0.0705  0.2404  0.0558
27888W        W44362   0.345  13.333   4.918 -0.2389  0.2544  0.3148
27889W        W44363   5.949  16.061  14.534 -0.2003 -0.2705  0.1179
27890W        W44364   8.033   3.372   4.663  0.0026  0.1774 -0.0615
27891W        W44365  15.459   2.460  12.809  0.3661 -0.0886 -0.3005
27892W        W44366  13.936   4.814  12.274 -0.0606  0.3582  0.3199
27893W        W44367  17.949  11.490   0.065 -0.1510  0.2133 -0.1190
27894W        W44368  19.075   1.416   2.453 -0.1603 -0.0161  0.2628
27895W        W44369   2.291   3.254   1.752  0.4922  0.1810 -0.2256
27896W        W44370  15.704   6.343  13.966 -0.1281 -0.1831 -0.1566
27897W        W44371   9.062  12.937  14.130 -0.0913  0.4851  0.2064
27898W        W44372   4.867  17.315   1.297 -0.1010  0.0307 -0.1727
27899W        W44373  10.354   3.783  10.537 -0.1930 -0.2363  0.1152
27900W        W44374  18.875  15.565  13.881  0.1166 -0.0078 -0.0146
27901W        W44375   9.847   7.528   3.655  0.0474 -0.0404 -0.0995
27902W        W44376  16.315  12.490   1.441  0.2057 -0.0525 -0.4297
27903W        W44377   3.415   0.777  12.395 -0.3271 -0.3811  0.1859
27904W        W44378   2.481   7.784   1.938  0.1615 -0.0847  0.0946
27905W        W44379  17.203   7.391   3.060 -0.2607  0.0202  0.2552
27906W        W44380   1.959  17.551   0.985  0.0852 -0.2338 -0.0834
27907W        W44381  13.978  14.680  10.874 -0.1143 -0.0056 -0.0766
27908W        W44382   1.922  18.758  10.071 -0.4001  0.0418  0.1496
27909W        W44383   3.371  11.189   1.654 -0.0261  0.5342  0.0545
27910W        W44384  13.658  12.583   0.956  0.0839 -0.0186 -0.0002
27911W        W44385   9.382   7.870  10.910  0.3759  0.1425 -0.1123
27912W        W44386   7.610   3.580  10.932 -0.0846 -0.1993  0.0528
27913W        W44387  15.250   0.172   2.424 -0.0887 -0.2365  0.3232
27914W        W44388  10.524   4.968   5.321 -0.0246  0.1968  0.1928
27915W        W44389  14.672  13.699  11.000  0.0223  0.2116 -0.3817
27916W        W44390   3.009  14.328   3.730 -0.1573 -0.2616 -0.0814
27917W        W44391   9.276  18.396  10.226  0.2800 -0.0401  0.1471
27918W        W44392  10.195  10.372   3.822  0.0758  0.1126 -0.0857
27919W        W44393   7.869  12.504   4.617  0.2414  0.2581 -0.0468
27920W        W44394  18.583   7.994   3.240  0.0072  0.0843  0.2203
27921W        W44395   9.258   6.389   9.907 -0.0860 -0.0608 -0.0620
27922W        W44396   5.993   9.374  10.560  0.1801 -0.3815  0.0341
27923W        W44397   3.191  16.137  14.675 -0.1721  0.0836 -0.2194
27924W        W44398   9.521   3.465   2.733 -0.1548 -0.2468 -0.0689
27925W        W44399   1.476   8.383  12.612 -0.1015  0.3462 -0.4966
27926W        W44400   5.567   7.216  14.697 -0.0777 -0.1248 -0.1668
27927W        W44401   1.210  18.949  14.568  0.1355 -0.0997  0.1116
27928W        W44402   4.332   5.841   2.535  0.3067 -0.1897  0.1734
27929W        W44403   6.554  10.041  11.128 -0.4176 -0.1481  0.0348
27930W        W44404  12.470  18.462  12.279  0.0053  0.0903 -0.2114
27931W        W44405  10.401  11.463  10.496 -0.3479  0.4082  0.3273
27932W        W44406  15.573  13.112  11.242  0.3227  0.1652  0.0470
27933W        W44407  14.531  19.057   0.553 -0.2965 -0.0288  0.1844
27934W        W44408   5.130  19.347  10.935  0.1129  0.2832 -0.0187
27935W        W44409  13.990  16.617  11.518  0.0455  0.1876 -0.1850
27936W        W44410  13.705   8.360   0.551  0.3093 -0.1012 -0.2511
27937W        W44411   5.759   6.563   1.199 -0.0749 -0.2358 -0.3239
27938W        W44412  15.061   4.463  14.698 -0.0311  0.1332  0.0193
27939W        W44413  15.657  14.888   4.220  0.4554 -0.0357  0.0287
27940W        W44414   2.207  17.258  14.128 -0.2316  0.1778 -0.0710
27941W        W44415  14.739  16.136   1.161 -0.0045  0.1562  0.3242
27942W        W44416   5.356   9.893   4.132 -0.0794  0.0380  0.1675
27943W        W44417  10.941   7.015   3.819  0.0737 -0.3505 -0.0967
27944W        W44418   4.290  17.470  12.572  0.3575 -0.0736 -0.2484
27945W        W44419   9.038   4.247  12.820 -0.1184 -0.0382  0.0668
27946W        W44420  11.519  13.028  13.772  0.1490 -0.1620  0.1353
27947W        W44421  14.385  12.666  12.498  0.3894 -0.3122 -0.2454
27948W        W44422   8.181   4.603   1.784 -0.0590  0.2929  0.0194
27949W        W44423  15.068  17.782  10.580 -0.0741 -0.0411 -0.3586
27950W        W44424  16.281   0.042   2.471 -0.3906 -0.0368 -0.0782
27951W        W44425   9.820  10.486  13.550 -0.1175  0.0658  0.0059
27952W        W44426   7.245   2.971   1.097  0.1129 -0.2719  0.2033
27953W        W44427   0.366  14.671  11.822 -0.0932 -0.0699 -0.0309
27954W        W44428  12.656   7.482  10.679 -0.0115 -0.1917 -0.3632
27955W        W44429   7.905   5.672   1.253 -0.0011  0.3217 -0.0810
27956W        W44430   1.585  10.389  11.617 -0.0523 -0.0025 -0.1637
27957W        W44431  19.258   3.042  11.780 -0.0030  0.0825  0.2623
27958W        W44432  14.204   9.591   3.676  0.0820 -0.1956 -0.0642
27959W        W44433   4.215  16.352  11.182  0.1764 -0.1812 -0.0802
27960W        W44434  18.926   0.431   3.043 -0.1573  0.2992 -0.1418
27961W        W44435   5.975  13.929  12.883  0.0030 -0.2633  0.0823
27962W        W44436  11.893   1.797  11.678  0.3102  0.1961  0.2368
27963W        W44437   7.503   7.422   9.096 -0.3531  0.1936  0.3042
27964W        W44438  16.323  17.012   3.117  0.2891 -0.1766  0.0478
27965W        W44439  18.817   2.170   9.468 -0.1252  0.0002 -0.1083
27966W        W44440   7.651   2.953  11.730 -0.4560 -0.2613  0.0854
27967W        W44441  17.247   5.629   2.894 -0.2478 -0.0566  0.2503
27968W        W44442  17.077  14.917  13.628 -0.3309 -0.1567 -0.0658
27969W        W44443   2.191   6.116   1.695  0.0755  0.3939 -0.2762
27970W        W44444   3.321  12.365  10.345 -0.0499  0.2365  0.5461
27971W        W44445   9.000   9.600  10.518 -0.1872  0.0487 -0.2410
27972W        W44446  15.172  13.076  13.743  0.1773  0.0150  0.1356
27973W        W44447   4.022  11.026  13.476  0.2162  0.0279  0.1092
27974W        W44448  13.104   4.812  11.599 -0.1035 -0.3605  0.1333
27975W        W44449  11.120   0.582   4.520 -0.1940 -0.0007  0.1437
27976W        W44450   9.108  19.027   2.626 -0.4961 -0.2792 -0.1625
27977W        W44451   8.581   3.980  12.731  0.1539  0.0839 -0.0269
27978W        W44452  11.997   6.175  12.584 -0.0718 -0.1563 -0.1789
27979W        W44453   0.854  17.635  12.099 -0.0705  0.2994  0.0651
27980W        W44454  15.730  10.813   5.500 -0.0282  0.0690  0.1889
27981W        W44455   0.286   0.453   4.407  0.2215  0.2463 -0.1739
27982W        W44456   4.375  13.884   2.727  0.0819  0.1445 -0.3510
27983W        W44457  12.575   3.489  12.287 -0.2154 -0.4043 -0.2028
27984W        W44458  12.117   4.560  13.647 -0.0583  0.0686  0.0274
27985W        W44459  11.533  11.265  13.078 -0.0541  0.0261  0.0876
27986W        W44460   2.868  13.439   1.013  0.2742  0.1323 -0.3169
27987W        W44461  15.979  11.542  12.349  0.0411  0.2627  0.4542
27988W        W44462  11.389  12.601  11.433  0.0866  0.3155 -0.0067
27989W        W44463   5.423  11.156  12.020 -0.0309  0.1652  0.0607
27990W        W44464   1.907  14.601   2.147 -0.0495  0.3042  0.1247
27991W        W44465   7.169   3.733  14.244  0.2645  0.0154 -0.0105
27992W        W44466   6.504  15.685  13.144 -0.2517 -0.0214 -0.1890
27993W        W44467   7.784  16.826   4.709 -0.0456 -0.0190 -0.2096
27994W        W44468   9.946  11.258   0.676 -0.1101  0.0539  0.0099
27995W        W44469  13.844   6.973  11.271 -0.2854 -0.0821  0.0592
27996W        W44470   5.591  10.959  11.492  0.0031 -0.0023  0.3758
27997W        W44471  13.177   3.388   0.826 -0.2316  0.3951  0.0968
27998W        W44472   8.111   9.576   1.439 -0.0136 -0.0196 -0.2226
27999W        W44473   2.510   6.595  11.956  0.0151  0.0669 -0.0625
28000W        W44474   6.502  18.612   2.799  0.0646  0.1134 -0.0479
28001W        W44475  10.390   3.110   1.528 -0.1335 -0.2404 -0.0953
28002W        W44476   6.589   8.530   2.320 -0.2016  0.2371 -0.0328
28003W        W44477   5.415  16.148  10.963 -0.0409  0.1229 -0.1106
28004W        W44478   4.285  16.852   0.738  0.2566 -0.0077  0.2502
28005W        W44479   3.850   7.682  11.782  0.1554  0.0962  0.2285
28006W        W44480   8.499  16.745   0.349  0.0690 -0.2996  0.3380
28007W        W44481  18.531  16.485  14.709 -0.0969  0.1328  0.0095
28008W        W44482  17.568   0.163  14.437  0.1391  0.0432  0.0364
28009W        W44483  13.985  18.152   1.606  0.2707  0.0945 -0.2165
28010W        W44484  14.189   7.802   0.080 -0.1723 -0.2319 -0.4113
28011W        W44485   7.599  13.481   3.071  0.0057  0.1517  0.1714
28012W        W44486   8.969   2.643  11.642  0.0877  0.3235  0.2568
28013W        W44487   1.591  10.486  14.420  0.2108 -0.2963  0.0746
28014W        W44488  16.864  11.420   3.949 -0.1793 -0.2611 -0.2315
28015W        W44489   1.558   7.193   3.213 -0.1942  0.0860  0.0190
28016W        W44490  17.425   4.862   3.782 -0.0336  0.0691  0.1443
28017W        W44491  17.065   1.166  10.617 -0.1424  0.1818  0.3483
28018W        W44492  16.828   9.002   3.244 -0.0872 -0.0573  0.1184
28019W        W44493  13.511  13.611  14.442  0.0143  0.1552  0.2566
28020W        W44494  14.197  13.477   3.719 -0.3368 -0.1501 -0.1530
28021W        W44495   8.071   9.521  12.278 -0.0172 -0.1953  0.1120
28022W        W44496   8.183   1.332   2.341 -0.2032 -0.1819 -0.2628
28023W        W44497   4.838  13.497   2.064 -0.0317  0.1841 -0.0838
28024W        W44498   2.750   8.113  10.520 -0.0277  0.1513  0.1065
28025W        W44499   3.391  15.349  12.569  0.1198 -0.0046  0.0424
28026W        W44500  16.154   4.885   3.688  0.0882 -0.0702  0.2412
28027W        W44501  15.634   4.561  14.791 -0.0631 -0.4694 -0.2284
28028W        W44502  16.071  16.673   0.535  0.2228  0.0256  0.1789
28029W        W44503  13.949   0.350   1.586 -0.0344 -0.0558  0.0888
28030W        W44504   2.658  10.321   1.762  0.1067  0.0787 -0.4382
28031W        W44505  16.031  18.509   2.420  0.0571  0.0847  0.0711
28032W        W44506  12.001   8.714  13.931 -0.0816  0.1187 -0.2507
28033W        W44507  14.958   8.149   0.669 -0.2284 -0.2383  0.0557
28034W        W44508   5.199  19.377   1.768 -0.1045 -0.0449 -0.2024
28035W        W44509   8.883   3.381   0.096  0.2504 -0.2155 -0.1321
28036W        W44510  13.444  15.995   4.867 -0.3452  0.2043  0.1774
28037W        W44511  11.245  17.766  13.989 -0.1219 -0.0701 -0.0241
28038W        W44512   3.173  11.328  13.127  0.1735  0.1998 -0.1524
28039W        W44513   1.221   0.553   3.221  0.1256 -0.0468 -0.1106
28040W        W44514  15.455  11.987   4.125  0.1792 -0.2979  0.0036
28041W        W44515  13.775  17.258   0.600  0.0807 -0.0773  0.1535
28042W        W44516   5.881  11.007  14.651 -0.0178  0.0197  0.0404
28043W        W44517  17.026   9.843   3.788 -0.2292  0.0389  0.4537
28044W        W44518   1.640  17.673  13.378  0.2055 -0.0570 -0.4743
28045W        W44519   1.520  11.724   3.965 -0.1702 -0.1574  0.0736
28046W        W44520   8.231  10.637  10.844  0.1450 -0.0330  0.2968
28047W        W44521   1.453   7.480   0.034  0.0208 -0.1489  0.2692
28048W        W44522  11.992   4.137   9.812  0.0067  0.3571 -0.1754
28049W        W44523  13.466  13.499  11.259  0.4447 -0.0630 -0.0681
28050W        W44524  17.115   8.447  14.557  0.2848 -0.3981 -0.3602
28051W        W44525  14.353   0.340  13.479 -0.0495 -0.1708 -0.3132
28052W        W44526  16.216  11.069   1.808 -0.3316  0.1605 -0.0294
28053W        W44527  16.297   5.575   4.461  0.2112 -0.1199 -0.0989
28054W        W44528  12.720   6.016  11.037 -0.0242 -0.2628  0.3220
28055W        W44529   5.486  10.435   3.969  0.0536 -0.0733 -0.0025
28056W        W44530   3.485   1.293  13.451 -0.2605 -0.3555 -0.4684
28057W        W44531  11.966   6.077  10.440 -0.1561  0.0773  0.1006
28058W        W44532  10.127   1.606   2.243 -0.0552 -0.1407  0.2198
28059W        W44533   0.541  14.604   5.053 -0.1414 -0.1455  0.3259
28060W        W44534   0.038   3.137  12.681  0.2514  0.1194 -0.1069
28061W        W44535  16.679  12.764   0.189  0.4115 -0.2058 -0.3232
28062W        W44536  10.375   0.341   1.141  0.4161  0.1913 -0.0069
28063W        W44537   8.108  17.109  11.264 -0.4434 -0.1755 -0.0000
28064W        W44538   5.300   3.412   1.737  0.0717  0.0590  0.1564
28065W        W44539  16.644  15.245   0.187  0.2226  0.0499  0.0173
28066W        W44540  11.057  16.613  10.791  0.0759  0.0905  0.1258
28067W        W44541  16.640   3.461  11.957 -0.0780 -0.0452 -0.0697
28068W        W44542   9.441   2.960   9.438 -0.3355 -0.2854 -0.1307
28069W        W44543   6.028  19.018   4.353  0.1163 -0.1543  0.1449
28070W        W44544  16.676  15.600  11.121 -0.2232  0.1229  0.1982
28071W        W44545  13.791  12.139   3.134  0.2239  0.1428 -0.0594
28072W        W44546  13.255   7.024  14.372  0.4173  0.0618 -0.6823
28073W        W44547   2.839   8.064   1.660  0.1529 -0.0641  0.2229
28074W        W44548  17.690   2.200   0.757 -0.3349 -0.1485 -0.2893
28075W        W44549  15.243   4.568  12.909  0.1551 -0.0371  0.2616
28076W        W44550   5.704   0.184   1.280  0.0616 -0.1467 -0.0821
28077W        W44551   8.736   0.827   0.657 -0.3266 -0.4467  0.0485
28078W        W44552   2.358  12.319   9.611  0.2041  0.1068 -0.3515
28079W        W44553   6.084   2.570  10.831 -0.0378 -0.1777  0.3757
28080W        W44554   1.762   5.113   2.944  0.0366 -0.0719  0.1105
28081W        W44555  14.085   7.502   2.919  0.1438  0.1752 -0.3261
28082W        W44556   9.595   5.744  12.353  0.0685  0.1822  0.3947
28083W        W44557  10.291   6.135   1.081  0.2088 -0.0749  0.1382
28084W        W44558   0.922  17.979  11.733  0.3283 -0.0225  0.3708
28085W        W44559  17.308  11.575  11.253 -0.2074 -0.2453  0.0201
28086W        W44560   4.820   5.642   2.238  0.1022  0.0557 -0.2641
28087W        W44561  17.897  12.350   0.416  0.1076  0.1472  0.0151
28088W        W44562   4.346   1.812  10.610 -0.1323  0.0965  0.0075
28089W        W44563  12.930   8.638   3.251  0.1516  0.0230  0.2241
28090W        W44564   5.377   1.600  10.134  0.1150 -0.1974  0.0287
28091W        W44565   6.683   0.242   0.254  0.1611 -0.0357  0.2141
28092W        W44566  12.087  12.407   0.683 -0.0308  0.0310 -0.1226
28093W        W44567   2.634   8.007  12.718 -0.3703  0.0138  0.0955
28094W        W44568   0.400  14.967  11.094 -0.1198 -0.1119  0.2248
28095W        W44569   6.554  18.805   4.171 -0.1402  0.0737 -0.1104
28096W        W44570  17.354   7.859   2.871 -0.2070 -0.4193  0.0125
28097W        W44571   8.335  14.569   2.498 -0.1068  0.0890  0.1282
28098W        W44572   7.353  15.534   4.804  0.4248  0.5056  0.2614
28099W        W44573   4.512   9.202  10.860 -0.0687 -0.1081  0.2542
28100W        W44574  11.068  12.573   4.050  0.2212 -0.2130 -0.2165
28101W        W44575   3.941  11.919   2.444 -0.0284 -0.2349  0.0284
28102W        W44576   2.991   6.220  11.184 -0.1011  0.1224 -0.4068
28103W        W44577   8.202   4.817   3.342  0.1126  0.1297  0.0178
28104W        W44578   2.434  13.080  14.646 -0.0813 -0.1510  0.2529
28105W        W44579   3.446  10.876   3.739 -0.0157  0.0091 -0.0697
28106W        W44580   0.757  12.806   1.677 -0.2467  0.2221 -0.4501
28107W        W44581  13.140   2.194  11.703 -0.4504  0.1786 -0.0336
28108W        W44582   5.385  15.797   4.973  0.0262  0.4293 -0.3128
28109W        W44583   3.338   0.072  11.128 -0.0674 -0.0049  0.4147
28110W        W44584  18.154   4.070  14.583  0.1197  0.2761  0.1098
28111W        W44585  12.451   5.370  10.019 -0.1383  0.1070 -0.0345
28112W        W44586  17.604  18.646   3.653 -0.2380 -0.0000  0.1376
28113W        W44587  17.653  10.358   1.668  0.0868 -0.2440  0.2630
28114W        W44588   3.265  17.984   0.979  0.0318  0.1172 -0.0358
28115W        W44589   2.382  13.234   2.885 -0.3286  0.2687 -0.0522
28116W        W44590  17.990  11.502  13.922 -0.0425  0.0680  0.0948
28117W        W44591  17.509  19.124  12.236 -0.3593  0.1044  0.0700
28118W        W44592  18.025   0.842   2.931  0.1083 -0.1818 -0.1491
28119W        W44593  12.133  11.300  11.663  0.2101  0.1294 -0.4050
28120W        W44594   1.539   4.153  14.678 -0.0667 -0.3487  0.2293
28121W        W44595   3.903   2.312   5.371 -0.0851  0.0221  0.0264
28122W        W44596  11.974   9.777   3.404 -0.1257  0.2530  0.0526
28123W        W44597   6.446   4.606   3.281 -0.1151 -0.2000 -0.1345
28124W        W44598   4.528  14.318   1.439  0.0699 -0.0080  0.0920
28125W        W44599  11.620  12.446   0.849 -0.3076  0.2705 -0.0674
28126W        W44600   5.203   9.988  13.091 -0.0666  0.1089 -0.2751
28127W        W44601   9.658  18.092   4.818 -0.0614  0.1941  0.3503
28128W        W44602  12.116   0.978   9.964  0.0872  0.0916  0.1769
28129W        W44603  17.959  17.937   2.688  0.1486  0.2231 -0.1093
28130W        W44604  15.368   1.948   4.158 -0.1660 -0.1639  0.0763
28131W        W44605   1.108  14.127  14.631 -0.0923  0.1984 -0.1784
28132W        W44606  15.522   5.179   1.578 -0.1531  0.2287 -0.0176
28133W        W44607   3.903  14.454   0.090  0.1489 -0.0815 -0.0608
28134W        W44608   8.887  18.022  13.580  0.1585  0.3350  0.0873
28135W        W44609   4.299  15.674  12.005 -0.1532  0.0410  0.2180
28136W        W44610  11.804  18.542   4.221  0.1749 -0.3350 -0.2410
28137W        W44611   7.084  10.291   0.831  0.4636  0.1764  0.3692
28138W        W44612   0.525  12.487  13.225 -0.1344  0.0382 -0.0845
28139W        W44613  15.151  19.051   1.185  0.1802 -0.1917 -0.2429
28140W        W44614   2.469   5.789   2.060  0.1577  0.0316 -0.0038
28141W        W44615  19.367  10.437   2.990 -0.1460 -0.1855  0.0982
28142W        W44616  10.791  17.907  10.712  0.2001 -0.0457  0.1384
28143W        W44617  14.604  13.363   1.512 -0.1114 -0.1199 -0.0296
28144W        W44618   2.913   0.220  10.618  0.1193  0.2088 -0.1956
28145W        W44619   3.435   4.051   4.015 -0.1105  0.1277 -0.1439
28146W        W44620   4.191   6.966  12.591 -0.4458 -0.0871  0.1388
28147W        W44621  17.095  11.846  10.653 -0.4216  0.2463 -0.5199
28148W        W44622  18.906   3.161   4.260  0.0554  0.2202 -0.1229
28149W        W44623   2.353  18.266   3.175  0.0513 -0.2641  0.2835
28150W        W44624   2.399   0.578   2.306 -0.1116  0.1009  0.1160
28151W        W44625  15.235   3.168  13.625 -0.2042 -0.1947  0.0516
28152W        W44626  18.759  17.280   3.325 -0.0116 -0.0682  0.1423
28153W        W44627   2.016   7.969   2.287  0.0728  0.1926  0.1512
28154W        W44628   9.585  12.294   2.903  0.2304  0.0107 -0.1188
28155W        W44629   6.565   2.763   1.188  0.2427  0.0668 -0.0405
28156W        W44630   0.004   8.773   3.844  0.1346 -0.0244  0.0551
28157W        W44631  12.650   9.632   2.803  0.0400  0.0509 -0.1460
28158W        W44632   1.956  16.307  14.345 -0.1474 -0.0514  0.3213
28159W        W44633   5.455  17.179   4.456 -0.3210 -0.0143 -0.0292
28160W        W44634  14.759   4.234   0.178 -0.3542  0.3697  0.5280
28161W        W44635  13.255   1.118  11.531  0.0767 -0.1476  0.2274
28162W        W44636   2.455   0.513   5.493  0.0869  0.0935  0.0189
28163W        W44637  18.616  16.943   0.146  0.1771  0.0094  0.2355
28164W        W44638   3.869   5.305   3.040 -0.0177  0.0570  0.0770
28165W        W44639   7.553  17.741   2.219 -0.2249  0.1561  0.0596
28166W        W44640  18.255   5.092   0.474 -0.0134  0.2281  0.1422
28167W        W44641  12.593   5.921   2.143  0.0323 -0.0230  0.4570
28168W        W44642   2.936  10.632   9.972  0.0485  0.1621 -0.0035
28169W        W44643  12.969  10.828  12.066 -0.2558  0.0578 -0.0532
28170W        W44644  16.150   6.262   2.855  0.1804  0.2215 -0.0409
28171W        W44645  15.191   5.383   3.091 -0.1223 -0.5182  0.0917
28172W        W44646  14.856  15.866  10.609  0.0271  0.0080 -0.0485
28173W        W44647  11.592  14.799   5.522 -0.1268  0.1897 -0.1659
28174W        W44648   6.068  17.632   3.913 -0.1357 -0.0197 -0.2094
28175W        W44649   0.611  17.152   0.747  0.0773 -0.3872 -0.1841
28176W        W44650   2.226  14.272  11.408 -0.0928 -0.0422  0.3610
28177W        W44651   4.903  11.483   2.489 -0.1206 -0.0744  0.3116
28178W        W44652   4.746  14.799   1.825 -0.2031 -0.1600  0.3812
28179W        W44653   8.025  14.702   0.259  0.1196  0.0108 -0.0971
28180W        W44654   8.258  11.533   1.587 -0.0416  0.5137  0.0780
28181W        W44655   3.721  12.912   1.418  0.0308 -0.1757  0.1173
28182W        W44656   4.895  13.214  14.846 -0.0684  0.2799 -0.0133
28183W        W44657  14.793   1.929   0.970 -0.1531 -0.1231 -0.1536
28184W        W44658  10.587   5.554   4.280  0.1959 -0.0304 -0.2820
28185W        W44659  15.465   5.305   5.435  0.2019  0.6037 -0.2622
28186W        W44660  16.207   7.789   4.067  0.1377 -0.2390  0.2189
28187W        W44661   5.243   0.368  13.597  0.2358 -0.2386  0.0384
28188W        W44662   0.700  13.899  10.287  0.3555  0.2479 -0.2245
28189W        W44663   7.963  11.632  14.154  0.2093 -0.1198  0.1221
28190W        W44664   6.374   5.734   0.273 -0.3504  0.1188  0.0660
28191W        W44665  12.258  16.498  11.670  0.2062 -0.0426 -0.1020
28192W        W44666  18.685   1.760   5.329 -0.2287  0.1735  0.1549
28193W        W44667   3.418   5.297  10.933 -0.3061 -0.0305  0.3308
28194W        W44668  15.932   8.689   2.763  0.4602 -0.0299 -0.1222
28195W        W44669  12.036   5.199   0.211  0.0209  0.2032  0.3890
28196W        W44670   9.229   8.349  10.083  0.1173  0.1720 -0.0719
28197W        W44671  15.737  18.767   4.692  0.0630 -0.0487 -0.0149
28198W        W44672  13.831  14.620  12.775  0.0821  0.0251  0.1629
28199W        W44673  18.520  19.105   1.675  0.1607 -0.2194  0.2077
28200W        W44674  14.096   6.954  13.431 -0.0315  0.1617  0.1291
28201W        W44675  14.161  11.475  10.978  0.0355 -0.0912 -0.0362
28202W        W44676  16.674   5.627   1.621 -0.0555 -0.2806  0.0193
28203W        W44677  19.153  12.177  14.365  0.1743 -0.0172  0.1907
28204W        W44678   3.766   8.138   0.306  0.2145 -0.1748 -0.1085
28205W        W44679  18.383  12.887  12.650 -0.3989 -0.1057 -0.0250
28206W        W44680  13.001   9.335   1.570  0.2057 -0.0644  0.0180
28207W        W44681  17.330   3.632   0.597  0.0421 -0.1649  0.1056
28208W        W44682   3.586   2.937  14.092 -0.1108 -0.1495  0.2080
28209W        W44683  13.711   3.264   3.577  0.4772  0.1127 -0.0130
28210W        W44684  12.932  13.277  11.432  0.2057 -0.1844  0.0165
28211W        W44685  19.123   4.759  13.960 -0.0990  0.3052  0.2520
28212W        W44686  16.192  19.362   2.986  0.2867  0.0521  0.0324
28213W        W44687   4.228  10.936   1.891  0.0574 -0.0504  0.0866
28214W        W44688  17.182  18.453   4.201  0.0817  0.1305  0.1239
28215W        W44689   9.318  18.365   5.503  0.1869 -0.1886 -0.0813
28216W        W44690  18.434  10.265   1.012 -0.1750  0.1411  0.2424
28217W        W44691  17.949   1.933  13.662  0.0892 -0.0628 -0.0580
28218W        W44692   2.507  11.996  12.014  0.2416 -0.5028  0.0996
28219W        W44693  11.651  16.270   4.153  0.1532 -0.1406  0.0897
28220W        W44694  15.814  14.819   1.877  0.4514  0.2833 -0.2189
28221W        W44695  14.353   4.689  13.512  0.0609  0.2242  0.1042
28222W        W44696  12.038   2.277   0.808  0.0109  0.1343 -0.0247
28223W        W44697  14.894  13.751  10.551  0.0063  0.0907 -0.0341
28224W        W44698  10.930  15.180  11.082  0.0019 -0.0128  0.3669
28225W        W44699   4.573   4.715   4.287  0.1551 -0.0846  0.2405
28226W        W44700  16.820  10.043   4.207 -0.2704 -0.0633  0.0975
28227W        W44701  14.939   0.613   4.438  0.2713 -0.0467 -0.2279
28228W        W44702   3.373  13.619   2.995  0.0177 -0.2464 -0.0007
28229W        W44703  16.024  17.845  14.842 -0.5589 -0.2129  0.1083
28230W        W44704   5.880   9.503  12.129 -0.2166 -0.4437  0.0422
28231W        W44705  13.487  12.183   4.302 -0.0286  0.1783  0.4960
28232W        W44706   2.384   3.986   0.003  0.1875  0.2462  0.0649
28233W        W44707  12.964   5.905   3.442  0.1973 -0.2104  0.1404
28234W        W44708  14.529   2.459  11.363  0.0608 -0.1719  0.0010
28235W        W44709   4.764  16.528   0.967  0.3767  0.0583  0.1768
28236W        W44710  17.887  16.389  12.129 -0.1771  0.0646  0.0425
28237W        W44711   8.459  11.651  11.664 -0.2568 -0.3180  0.0201
28238W        W44712  12.998  19.242   4.069 -0.0024  0.0302 -0.1983
28239W        W44713   1.882   6.400   4.877  0.0845 -0.1638  0.1378
28240W        W44714  12.769   1.720   2.644  0.1473 -0.4014  0.0697
28241W        W44715  12.581   0.461   3.062  0.0712 -0.2802  0.1413
28242W        W44716   5.823   5.489   0.856 -0.0902 -0.4471 -0.0624
28243W        W44717  14.982  17.384   5.166 -0.0446 -0.1557 -0.3327
28244W        W44718   2.639  14.782   5.117 -0.0898  0.0582  0.0206
28245W        W44719  15.324   8.996  10.726 -0.0622 -0.2424  0.0168
28246W        W44720   3.993   2.830   4.531 -0.0849 -0.4016 -0.2637
28247W        W44721   0.944   1.563  13.869 -0.1680 -0.0643  0.1633
28248W        W44722   2.111   1.162   1.580  0.1132  0.1939 -0.2476
28249W        W44723  18.154   8.294   3.373  0.2487  0.1191  0.2472
28250W        W44724  15.871  12.531   4.372  0.1712 -0.1908 -0.0762
28251W        W44725  17.662   7.253   1.210  0.3868  0.0162 -0.0534
28252W        W44726  12.849  11.352  14.106 -0.1942 -0.0062  0.1118
28253W        W44727   7.946  15.322  14.070 -0.0676 -0.1166  0.2273
28254W        W44728  10.798   4.269   2.449 -0.0031  0.0496  0.0931
28255W        W44729  19.309   5.005   2.582 -0.1353 -0.1521  0.0553
28256W        W44730   6.071   6.093   0.206 -0.0946 -0.1467  0.0034
28257W        W44731   7.242   9.268  14.215 -0.0078 -0.0848 -0.0267
28258W        W44732  12.626  14.779  13.102 -0.1203  0.0230 -0.3311
28259W        W44733   3.870   4.191   2.194  0.1182 -0.0299  0.1612
28260W        W44734   1.656  17.723   1.853 -0.1539 -0.5291 -0.0193
28261W        W44735   0.624  12.345   3.017 -0.0705  0.1794  0.0132
28262W        W44736   5.156  16.830   0.248  0.0175 -0.0303  0.3558
28263W        W44737  17.694  17.831  12.937  0.2090 -0.0149 -0.2433
28264W        W44738  17.496   5.904   2.188 -0.4081  0.0436  0.2004
28265W        W44739  15.410   7.498   5.546  0.2203 -0.2527 -0.1121
28266W        W44740  18.567  15.691  13.433 -0.1300 -0.0082 -0.2079
28267W        W44741   4.381   5.029  13.062 -0.1292  0.5414  0.0218
28268W        W44742  18.934   2.036  12.827  0.0616 -0.1256  0.2909
28269W        W44743   3.628   6.009  12.592  0.0012  0.0086 -0.2976
28270W        W44744   9.145  17.290  10.851  0.0273 -0.1920  0.2912
28271W        W44745   1.722   3.489  10.387  0.0245 -0.2037  0.3198
28272W        W44746  15.553  18.301  12.201 -0.2678 -0.0003 -0.3449
28273W        W44747  17.081   2.856  12.938 -0.1651  0.0849  0.3126
28274W        W44748   4.417  17.329   5.148  0.1459 -0.0637 -0.5063
28275W        W44749  13.725   1.413   2.536 -0.3514  0.1163  0.0816
28276W        W44750  11.495  13.668  12.472 -0.3595 -0.2555 -0.3054
28277W        W44751   3.001   5.531   2.132  0.0543  0.1584  0.1597
28278W        W44752  16.417  10.220   4.532 -0.0858 -0.1442 -0.0536
28279W        W44753  13.008   1.023  13.089 -0.3116  0.1227  0.1642
28280W        W44754  11.943   8.020   3.931  0.2785  0.0873 -0.1901
28281W        W44755   8.093   0.029  13.588  0.0302 -0.0338 -0.1204
28282W        W44756   3.354  13.439  13.327  0.1987  0.0390 -0.2698
28283W        W44757  16.673   1.715   5.313 -0.0322  0.1305  0.3345
28284W        W44758  17.486   9.013   3.770 -0.3203 -0.0705  0.0813
28285W        W44759   2.283   2.040   1.039  0.0062 -0.0313  0.4199
28286W        W44760  10.161   4.667   3.734 -0.0446 -0.1087 -0.1150
28287W        W44761   6.585   3.810   2.632  0.0360 -0.0965  0.0946
28288W        W44762   2.224   0.808   0.238  0.1396  0.0944  0.0947
28289W        W44763  15.576   5.740   0.239 -0.0175 -0.0274 -0.1069
28290W        W44764   3.661   8.769   1.989  0.0917 -0.1074 -0.1166
28291W        W44765  15.775   2.201  14.521  0.5244  0.3345 -0.1893
28292W        W44766  12.801   9.097   1.028 -0.1746  0.0425 -0.1610
28293W        W44767   2.558   4.969   1.424 -0.3990 -0.0284  0.0652
28294W        W44768   3.866  18.809  10.206  0.0999  0.0767 -0.1532
28295W        W44769  19.177  10.516  12.694 -0.3048  0.2914  0.0651
28296W        W44770  15.938   1.343  11.076 -0.0277 -0.1871 -0.2714
28297W        W44771  19.331  14.288   5.235 -0.1547  0.0968 -0.2361
28298W        W44772  14.239  12.036   2.139  0.1985  0.1338 -0.3082
28299W        W44773  17.709  17.794  11.289 -0.0698  0.2646 -0.0151
28300W        W44774   9.843  16.625  12.884  0.0816  0.1073 -0.2261
28301W        W44775  17.070   0.039   5.610  0.0568 -0.0690 -0.3243
28302W        W44776  17.373   1.171  10.152  0.1031  0.1526 -0.2278
28303W        W44777   5.108  14.108  12.009  0.0682  0.1053  0.3588
28304W        W44778   3.007   8.205   4.086  0.2390 -0.1180 -0.0901
28305W        W44779   1.889   5.939   2.115  0.0131 -0.0097 -0.1143
28306W        W44780  17.472  14.755   4.624 -0.1238 -0.0699 -0.0642
28307W        W44781   4.096   8.033   3.292  0.1895  0.0526 -0.1209
28308W        W44782  11.955   6.962   4.391  0.0659 -0.2108 -0.1684
28309W        W44783   2.536  10.892  13.605 -0.3801  0.1360  0.2019
28310W        W44784   3.485  18.044  13.705  0.1777 -0.2519  0.1131
28311W        W44785  18.380  16.939   2.411 -0.3144  0.0556 -0.1646
28312W        W44786   8.644   4.432   1.942 -0.2903 -0.0223  0.3811
28313W        W44787   2.583  18.687   3.257 -0.2239  0.2255  0.0821
28314W        W44788  13.064  15.533   2.003 -0.2807 -0.1410  0.1024
28315W        W44789  18.064  19.152  12.146 -0.0330  0.0604 -0.3323
28316W        W44790   2.781   9.908  12.974  0.3161 -0.0560  0.2754
28317W        W44791  12.544  12.416   1.184  0.1052  0.0256 -0.2621
28318W        W44792  11.770   2.881  13.742 -0.1505 -0.0417  0.3204
28319W        W44793   5.676  10.802   1.367 -0.2259 -0.3283 -0.0084
28320W        W44794  10.698   1.820   2.249 -0.0687 -0.0143 -0.1549
28321W        W44795   7.257   1.526  11.566  0.0821  0.2487  0.3511
28322W        W44796   1.235  14.114  11.511  0.0951  0.1722 -0.0881
28323W        W44797  12.105  17.618  13.861 -0.0218  0.1018 -0.0719
28324W        W44798  17.825  13.036  13.004  0.2899  0.0900  0.1552
28325W        W44799   7.407  15.473   1.407  0.0621 -0.1723  0.2968
28326W        W44800   4.435  19.318   1.067  0.1337 -0.0739  0.0076
28327W        W44801  10.781  16.154   4.101 -0.1611 -0.0686 -0.0929
28328W        W44802  13.058   2.000  14.295 -0.1180 -0.1583  0.1605
28329W        W44803   6.209   0.704  14.495  0.0723 -0.0777 -0.0098
28330W        W44804  12.386  17.130  13.122 -0.4858  0.1326  0.2191
28331W        W44805   9.056   3.663   2.687  0.1501  0.0920 -0.5201
28332W        W44806  13.423  11.875  13.832  0.1307  0.1642 -0.0747
28333W        W44807   9.477   5.984  10.563 -0.1641  0.0257  0.2111
28334W        W44808   7.602   6.631   3.102  0.0524 -0.0091 -0.3348
28335W        W44809  10.403  18.945   3.325 -0.0313 -0.3823 -0.0906
28336W        W44810  14.366   7.888  11.276  0.0677  0.2077 -0.0600
28337W        W44811  10.952   0.720   4.933  0.0230  0.0213  0.0789
28338W        W44812  14.464  18.052   0.111  0.0987  0.1581  0.0119
28339W        W44813   0.807   8.705   0.899  0.2828 -0.0076  0.1667
28340W        W44814  10.275   8.496   4.657  0.0060  0.0662 -0.0833
28341W        W44815  13.349   9.799  13.185 -0.1246  0.2862  0.3629
28342W        W44816   5.822  14.383  14.383 -0.1248  0.2492 -0.0733
28343W        W44817   5.430   0.215   0.573 -0.0731 -0.1804  0.0035
28344W        W44818   2.753   9.177   1.756 -0.0420  0.0753 -0.0080
28345W        W44819   8.792  13.509   5.021  0.0579 -0.3070 -0.0131
28346W        W44820   1.571  15.336  11.951  0.2399  0.2181 -0.0954
28347W        W44821   4.560   1.714   2.225  0.3432 -0.3538 -0.1212
28348W        W44822   5.534  12.280   1.208  0.0071 -0.1227 -0.0644
28349W        W44823   9.727  10.779  11.144 -0.4936 -0.2041 -0.0903
28350W        W44824  13.204  17.570   1.864  0.2121 -0.1554 -0.0654
28351W        W44825  10.453   3.913   3.126 -0.2050  0.0340  0.1783
28352W        W44826   5.588   1.187   0.275 -0.4529  0.1060 -0.4616
28353W        W44827  11.424  14.350   1.441  0.2984  0.0139  0.1802
28354W        W44828  17.297  10.167  10.514  0.0106 -0.0864  0.1384
28355W        W44829  17.991   4.103   0.213  0.1218 -0.2183 -0.1379
28356W        W44830   5.898   6.171  12.911 -0.0540  0.0050  0.2816
28357W        W44831   7.164  16.440   2.125  0.1310  0.2099  0.0930
28358W        W44832   8.431   8.595   0.625 -0.1864  0.1986  0.0831
28359W        W44833  11.881   8.374  14.845  0.1770 -0.1431  0.5286
28360W        W44834   5.203  16.145  13.668 -0.1091  0.1241  0.2089
28361W        W44835   9.268  15.612   4.487  0.3363 -0.0813 -0.0061
28362W        W44836   4.780  16.518  14.454 -0.2833  0.3866  0.1257
28363W        W44837   3.387   4.436   4.469  0.0685  0.1493  0.0211
28364W        W44838   9.681   4.799   0.151  0.0518  0.0826 -0.1637
28365W        W44839   7.244  19.013  13.838 -0.0090 -0.3354 -0.0486
28366W        W44840   4.548  16.784   2.054  0.0132  0.0843 -0.0803
28367W        W44841  16.150   5.960   4.177 -0.0415 -0.4531 -0.1866
28368W        W44842   9.380   4.547  12.951 -0.0507  0.0772 -0.5931
28369W        W44843   7.224   7.776   1.900 -0.0840  0.0276  0.1890
28370W        W44844   5.157  11.560  14.011  0.1827  0.2156  0.2339
28371W        W44845  17.267   6.871  12.501  0.0767  0.2288 -0.2498
28372W        W44846  12.557   0.352  12.907  0.1399 -0.2433 -0.2052
28373W        W44847   5.734   7.450  13.097  0.0758 -0.2048  0.0983
28374W        W44848   5.253  16.423  14.605 -0.0206 -0.0955 -0.0662
28375W        W44849  12.157  16.780  14.306 -0.2335  0.0328 -0.1282
28376W        W44850  11.284  16.837  11.664 -0.1043  0.1388 -0.2671
28377W        W44851   0.200   1.833   3.888  0.0975  0.0139  0.0492
28378W        W44852  18.040   8.086  11.883 -0.0872 -0.1113  0.0799
28379W        W44853   6.709   2.623   3.230  0.3130  0.3403  0.1562
28380W        W44854  10.850   0.862   0.608 -0.3514  0.0454 -0.2406
28381W        W44855   1.609   4.144  13.878  0.0986 -0.2046  0.0305
28382W        W44856   7.941   9.312  10.324 -0.0553 -0.0484  0.2418
28383W        W44857   1.734  17.120  13.345  0.1929  0.3616 -0.3305
28384W        W44858  18.035   7.525   3.518 -0.4059  0.0340 -0.0706
28385W        W44859   9.748  12.819   2.984 -0.2934  0.1505 -0.0192
28386W        W44860  10.135   3.146  11.362  0.1186  0.4265 -0.0191
28387W        W44861   5.277   9.301  11.995 -0.1166 -0.0116 -0.0478
28388W        W44862  10.735   5.849   3.745  0.1139 -0.0133  0.0633
28389W        W44863  14.600   5.138  13.869 -0.1522  0.0695  0.0388
28390W        W44864  11.379   7.606  14.724  0.0188 -0.0805  0.1045
28391W        W44865   9.350   7.535   3.572 -0.0972  0.1235  0.1031
28392W        W44866  13.012  10.526   2.528 -0.2782  0.1537 -0.2978
28393W        W44867   8.944   3.709  12.980  0.2262 -0.2287  0.0855
28394W        W44868   8.564   8.685  12.614 -0.4099  0.1668 -0.0164
28395W        W44869  11.255  13.359   0.100  0.1062 -0.0455  0.2359
28396W        W44870  13.544  10.551   1.718 -0.3372 -0.1979 -0.0860
28397W        W44871   3.057  11.599   5.793  0.0537  0.1296 -0.2911
28398W        W44872   7.053  12.943   1.592  0.0483 -0.1784 -0.1811
28399W        W44873   9.686  15.886   4.417  0.3260 -0.1892 -0.1155
28400W        W44874  19.138   9.651   4.053  0.0975  0.1380 -0.1998
28401W        W44875  17.826   5.578  10.921 -0.3458  0.1126  0.4459
28402W        W44876  18.841   0.377  13.274 -0.0699  0.0670 -0.1304
28403W        W44877  15.316  18.145   2.047 -0.0561 -0.2885 -0.1598
28404W        W44878   1.262   8.192  11.908 -0.0581  0.1533 -0.2898
28405W        W44879   1.556   6.260   9.991 -0.1039 -0.0008 -0.0941
28406W        W44880   7.193  15.584  13.611 -0.1197  0.0337  0.1430
28407W        W44881   9.878   6.172   2.404 -0.0034 -0.0122  0.0909
28408W        W44882  13.204   5.772   2.367 -0.1245 -0.1231 -0.0657
28409W        W44883  14.665   8.541   2.184 -0.2383  0.0039  0.3035
28410W        W44884   9.586  15.947   2.186 -0.2277  0.1775 -0.4904
28411W        W44885   5.682   8.500   4.396  0.0763 -0.1286 -0.0565
28412W        W44886  19.023   6.373  14.766 -0.0037  0.1570 -0.0843
28413W        W44887  11.499   1.329  14.499 -0.2452  0.2443 -0.0185
28414W        W44888  12.313   2.740  11.618  0.1882 -0.3825 -0.1112
28415W        W44889  10.171   5.276  14.152  0.1560  0.4814  0.2172
28416W        W44890  13.826  11.234  12.898 -0.1119 -0.2327  0.1825
28417W        W44891  16.722  14.538   2.065 -0.1256 -0.0112 -0.5521
28418W        W44892  17.069  11.330  13.652 -0.1684  0.1478  0.1029
28419W        W44893   1.207   1.877  12.192 -0.0174 -0.3937  0.0605
28420W        W44894  14.509   6.399   0.045  0.1993 -0.1198 -0.2377
28421W        W44895   5.281   8.404   1.135 -0.0211  0.1203 -0.2267
28422W        W44896   8.984   4.749  13.331 -0.2330  0.0002  0.2490
28423W        W44897   9.630  13.817   2.396 -0.0393  0.3127 -0.0155
28424W        W44898  10.969  10.363  10.840  0.1428 -0.1321 -0.4007
28425W        W44899  15.582  10.916  14.152  0.1380  0.0883  0.0514
28426W        W44900   4.478  15.392  12.399 -0.0412 -0.1510  0.1207
28427W        W44901  11.531   2.259   0.684 -0.1183  0.0911  0.2724
28428W        W44902  12.565  19.047   0.772 -0.4193  0.1313 -0.0447
28429W        W44903  10.917  17.490  12.377 -0.2365  0.2068 -0.1061
28430W        W44904   0.353   6.735  14.404 -0.1413  0.0616  0.0513
28431W        W44905  11.664   6.088  10.861  0.0993  0.4200  0.0418
28432W        W44906   3.091  16.514  11.459 -0.0629  0.2829  0.0867
28433W        W44907  17.762   9.131   0.609 -0.0262 -0.0603  0.0251
28434W        W44908  13.487  16.317  10.716  0.1707  0.0004 -0.1879
28435W        W44909   7.944  18.322  12.464  0.0583  0.0616 -0.0126
28436W        W44910  18.976  17.218   0.007  0.1204  0.1279  0.1198
28437W        W44911   3.888   1.040  12.780 -0.0129  0.0307  0.2870
28438W        W44912  13.607  12.332   4.850  0.2775  0.2408  0.5441
28439W        W44913   9.464  11.471  13.355 -0.0637  0.2924 -0.3173
28440W        W44914  11.550  14.905   3.863 -0.4073  0.0066  0.0984
28441W        W44915  17.267   9.357  14.025  0.1261 -0.0831  0.0862
28442W        W44916  15.354  11.692   0.457 -0.0273 -0.1507 -0.0180
28443W        W44917  14.151  17.600   1.651  0.0970 -0.2838 -0.3548
28444W        W44918  17.119   8.415  12.549 -0.1217  0.1606 -0.0163
28445W        W44919   2.066   9.856  12.660 -0.0176  0.0070 -0.2334
28446W        W44920  13.885   1.963  11.741  0.1905 -0.2767 -0.0291
28447W        W44921  18.119   9.042   0.239  0.0040  0.0476 -0.2196
28448W        W44922  15.996   5.095   0.813  0.0821 -0.1526 -0.1221
28449W        W44923   0.129  13.618  11.634 -0.2430  0.1578  0.1309
28450W        W44924   2.138  14.794   3.673 -0.2195 -0.2282 -0.0869
28451W        W44925  14.351   6.152   1.041  0.0126 -0.1042 -0.2564
28452W        W44926   6.533  11.230  11.192  0.3764 -0.0901 -0.1860
28453W        W44927  16.062   6.086  12.666  0.1551  0.0194  0.3513
28454W        W44928   9.512   1.733   1.314 -0.1074 -0.1854  0.0026
28455W        W44929   4.030  14.388   0.876 -0.3930 -0.0276  0.0263
28456W        W44930  17.938   8.935  12.912 -0.0395  0.0613 -0.0871
28457W        W44931  11.187   3.786   2.274  0.0878  0.0546  0.0138
28458W        W44932   0.680   2.515  14.306 -0.2723 -0.0172 -0.1784
28459W        W44933   9.685  11.016   2.887  0.2603 -0.2971 -0.2259
28460W        W44934  11.516  16.269  13.830  0.0812  0.1099  0.2837
28461W        W44935  18.129   7.958   1.743  0.3241 -0.0263  0.0783
28462W        W44936   2.156  11.137   0.908  0.3371 -0.2328 -0.1934
28463W        W44937  14.708   7.713  14.328 -0.1214  0.2544 -0.1381
28464W        W44938  11.140  10.938   5.205 -0.1065 -0.3866  0.1930
28465W        W44939  12.106   7.000   0.738 -0.0238  0.1432  0.0238
28466W        W44940  11.734   7.449   2.665 -0.0402  0.3003  0.0724
28467W        W44941  16.276   9.362  13.742 -0.1025  0.0269  0.1732
28468W        W44942   2.249  12.366   4.376 -0.0749 -0.1811 -0.3285
28469W        W44943   0.610   0.370  13.359 -0.0365  0.0219 -0.0764
28470W        W44944  14.553  11.647  14.631  0.1148 -0.2296 -0.3486
28471W        W44945  19.040  10.130   2.712  0.3986  0.4557 -0.0346
28472W        W44946  12.642   8.369  14.722 -0.0983  0.0810 -0.2023
28473W        W44947   3.281  18.930   3.069 -0.2635 -0.4339  0.1360
28474W        W44948   1.236   9.039   3.504  0.1856 -0.4818 -0.0607
28475W        W44949  12.593   3.992  14.652 -0.1651 -0.3499  0.1355
28476W        W44950   6.773   5.675  10.499 -0.1328  0.0535  0.0401
28477W        W44951   8.693   4.950  11.623 -0.0543  0.1288  0.0147
28478W        W44952  17.800   4.626  12.925 -0.2464 -0.3918 -0.1655
28479W        W44953   1.728  13.341  10.299 -0.1541 -0.2862 -0.0914
28480W        W44954   9.211   7.087  10.389 -0.0253  0.1884 -0.1946
28481W        W44955   5.144   0.271   3.581  0.1141  0.1633  0.1924
28482W        W44956  15.408   5.885   1.295 -0.0099  0.2733 -0.0879
28483W        W44957   8.433  10.732  12.244 -0.0766 -0.3369 -0.2626
28484W        W44958   5.208   1.509  12.694  0.3570 -0.2718 -0.1173
28485W        W44959  14.357   2.355   4.551 -0.0046  0.0040 -0.0069
28486W        W44960  16.914  15.900   0.285  0.0428  0.0087  0.2374
28487W        W44961  17.612  18.269   4.173  0.2830 -0.1383  0.0490
28488W        W44962  11.326   4.360   3.426  0.5279  0.0038  0.4604
28489W        W44963   4.494  10.603   2.661  0.0861  0.0559 -0.0643
28490W        W44964   2.738   4.192   3.225 -0.0668 -0.3421 -0.2802
28491W        W44965   1.532   0.359  10.479  0.2641 -0.0470  0.0826
28492W        W44966   8.386   4.363  11.981  0.0573  0.2073 -0.1930
28493W        W44967   1.468  10.374   0.952 -0.0541 -0.1776  0.1429
28494W        W44968   8.672  15.266  14.280 -0.4876  0.0685 -0.0940
28495W        W44969   7.291   4.586   2.577 -0.2000  0.0412  0.0677
28496W        W44970   0.274  10.948   4.267 -0.1046  0.0859  0.3326
28497W        W44971   4.751   1.708  11.537  0.0598  0.0929  0.0456
28498W        W44972   8.773   3.202  10.538 -0.0666  0.2909  0.1972
28499W        W44973  11.604   7.820  11.442  0.1510  0.1265 -0.0444
28500W        W44974  12.530  13.436  11.146 -0.2259 -0.0210 -0.0056
28501W        W44975   1.065  19.284  12.147 -0.2642 -0.1960 -0.0871
28502W        W44976  16.949  18.373   3.031 -0.0793 -0.0043 -0.3195
28503W        W44977  10.677  14.427  12.277  0.0445  0.0451  0.1270
28504W        W44978  16.711   8.312  11.653 -0.1026  0.1828  0.4614
28505W        W44979  16.326   7.450   0.512  0.0251  0.1184  0.1884
28506W        W44980   2.780   3.230  14.018  0.0239 -0.4101  0.0699
28507W        W44981  18.660   0.167   0.396  0.0937  0.2524 -0.1541
28508W        W44982  14.780  18.816   4.003 -0.0470  0.1080  0.2254
28509W        W44983   9.101   0.337   1.481 -0.3818 -0.4278  0.0549
28510W        W44984  10.406   4.385   2.764  0.4962 -0.0817 -0.2330
28511W        W44985   1.756   5.771  11.945 -0.1354  0.0533 -0.0724
28512W        W44986  15.108  17.178   3.444  0.0621 -0.1631 -0.0671
28513W        W44987   9.256   6.614   0.385  0.0126 -0.0156 -0.0112
28514W        W44988  16.077   1.678  10.646 -0.0382 -0.0328 -0.0661
28515W        W44989  11.924   6.705   2.065  0.0972  0.0887 -0.0408
28516W        W44990  17.749   7.267  11.697  0.1196  0.1328 -0.1144
28517W        W44991  15.482   3.649  13.222 -0.1276  0.0850 -0.0122
28518W        W44992  14.758  15.746   5.748  0.1821 -0.1831  0.2031
28519W        W44993  15.978   0.430  14.610 -0.2415  0.1969 -0.0624
28520W        W44994  12.733   1.936   0.201 -0.1191  0.1202  0.1384
28521W        W44995  17.801   3.518   0.803 -0.1230 -0.1233  0.1802
28522W        W44996  14.768  18.104   0.532  0.2876 -0.0412 -0.1856
28523W        W44997  11.860  19.219  13.599  0.4788  0.0227  0.0690
28524W        W44998  18.929   5.364   2.657  0.0228  0.0257 -0.0664
28525W        W44999  14.959  16.855  11.742  0.1253  0.0649  0.3052
28526W        W45000   0.818  10.647   4.394  0.1250 -0.0993 -0.0828
28527W        W45001  12.629   7.267   2.956 -0.2164 -0.1562  0.0170
28528W        W45002   4.512  17.297  11.277  0.0617 -0.3090 -0.2626
28529W        W45003  15.523  17.604  13.390 -0.0411 -0.0186  0.2147
28530W        W45004  12.038   6.474   1.588  0.0204 -0.0092  0.3390
28531W        W45005   8.847   1.772  14.863  0.2610 -0.1940  0.0649
28532W        W45006   9.881   9.823   1.610  0.0630  0.2637  0.2556
28533W        W45007   4.201   2.027  13.421 -0.3081 -0.1627  0.1686
28534W        W45008  12.615  10.790   4.333 -0.2109  0.0397  0.2720
28535W        W45009   1.973  15.684   1.258 -0.4082  0.1330 -0.2723
28536W        W45010   5.693   4.608   2.483 -0.1032  0.0525 -0.0721
28537W        W45011  12.040   6.094   2.088 -0.0138  0.2603  0.0565
28538W        W45012  18.196  17.154  11.244  0.0480  0.1088  0.0036
28539W        W45013  12.977   3.295   1.747 -0.3520 -0.1116  0.0145
28540W        W45014  10.910  11.974  10.940 -0.0640 -0.3710 -0.1921
28541W        W45015  12.830  18.455   0.115 -0.1962  0.0987  0.0611
28542W        W45016  15.882  17.308   2.709 -0.1058  0.2388  0.1576
28543W        W45017  17.182  18.370   1.580  0.0908  0.2015  0.1200
28544W        W45018  14.540  14.291   4.528 -0.1856  0.3886 -0.2484
28545W        W45019  16.077  17.809  13.900  0.0861  0.1433  0.3478
28546W        W45020   8.543   9.387   2.888 -0.0973 -0.2162 -0.1209
28547W        W45021   0.465  11.436   9.526 -0.1003  0.1090 -0.1375
28548W        W45022  12.986   0.441  11.859 -0.4801 -0.3445 -0.0334
28549W        W45023   5.575   6.136  11.789  0.0022  0.1313  0.1598
28550W        W45024   6.490   0.200  12.077  0.2301 -0.1768 -0.2166
28551W        W45025  13.381   8.818  13.589  0.1470  0.3493  0.0717
28552W        W45026   8.338   1.236   3.403 -0.1313  0.0610 -0.1829
28553W        W45027  10.490   3.464  10.141 -0.1496 -0.0323 -0.0792
28554W        W45028   3.096  10.899   2.695 -0.0410 -0.1291  0.2929
28555W        W45029  17.309  13.833   1.193  0.1199  0.1095 -0.1144
28556W        W45030  18.018   5.099  12.175  0.1186 -0.3886 -0.2112
28557W        W45031  16.014   1.826   4.488  0.1439  0.0049 -0.0236
28558W        W45032   4.931  11.558  14.507  0.0737 -0.0846  0.1210
28559W        W45033  17.097   5.416   2.138 -0.1904 -0.1527 -0.0809
28560W        W45034  15.714  17.683   1.290 -0.1648  0.1626  0.1618
28561W        W45035   2.157  15.844  13.698  0.1694 -0.0507 -0.0806
28562W        W45036  14.287  12.566   3.170 -0.0710 -0.1133 -0.1253
28563W        W45037   5.096   6.763  12.998  0.2965 -0.0426  0.0023
28564W        W45038   0.656  14.059  14.256  0.2041  0.1437 -0.2387
28565W        W45039   2.489   2.478  13.589  0.1286  0.0000  0.0803
28566W        W45040   7.779  19.362  10.482  0.0676  0.1460  0.0116
28567W        W45041  16.591  11.087  11.956  0.0286 -0.1050  0.4450
28568W        W45042   2.187  12.921   4.435  0.0860  0.1531 -0.0616
28569W        W45043   0.886  19.296   4.165 -0.0881 -0.0295 -0.4138
28570W        W45044  11.055  12.583  14.521 -0.3492 -0.0072  0.2405
28571W        W45045   4.929  11.237  10.690  0.0061 -0.2384 -0.0239
28572W        W45046   5.825  12.911   3.785  0.0278  0.3044 -0.1993
28573W        W45047   8.278  16.578   4.613 -0.1497 -0.1343 -0.1978
28574W        W45048   4.955  11.222   1.911 -0.1337  0.4062 -0.3849
28575W        W45049  11.030  18.415   4.458 -0.2293 -0.1244 -0.0011
28576W        W45050  13.147   9.141   5.229  0.5265  0.1093  0.2948
28577W        W45051   7.925   4.611  12.597 -0.0499  0.1395  0.2897
28578W        W45052   0.986   7.808  11.174 -0.0746 -0.0864  0.3478
28579W        W45053  19.201  15.972   4.465 -0.2668  0.1132 -0.0850
28580W        W45054   9.585   8.898   2.090  0.0491  0.1416 -0.0138
28581W        W45055   1.699  17.069   5.457 -0.0259  0.0542 -0.0790
28582W        W45056   4.233  11.738   2.939  0.2570 -0.0464  0.0321
28583W        W45057  18.144   1.162   3.928 -0.1977  0.3768 -0.1687
28584W        W45058   2.868   6.213   2.945 -0.2447  0.2514  0.0192
28585W        W45059  16.003  18.449  11.914  0.1421 -0.0494 -0.0467
28586W        W45060   8.205   4.767   0.558  0.1482  0.0327 -0.0155
28587W        W45061  15.375  10.641   0.271 -0.0011 -0.0221  0.0395
28588W        W45062   6.355  14.327  14.253  0.2219  0.0986 -0.4150
28589W        W45063   4.755  16.186   1.350  0.2498  0.2110 -0.0129
28590W        W45064   9.635  10.283  11.273  0.0337 -0.0189  0.1282
28591W        W45065   8.351  15.134   2.940  0.2084  0.2030  0.1625
28592W        W45066   5.568   9.621  10.512 -0.1288 -0.1602  0.0425
28593W        W45067  14.078   7.473   4.886 -0.0046  0.2360 -0.1575
28594W        W45068   6.883   7.838   5.064  0.2980  0.2069 -0.2237
28595W        W45069  12.459   9.008   2.630 -0.1244 -0.0310  0.0112
28596W        W45070   8.429   8.114  10.485 -0.3002 -0.1169  0.0879
28597W        W45071  14.283  14.835  12.889 -0.0469  0.1932  0.2268
28598W        W45072  14.464   3.905  14.792 -0.0677 -0.0115  0.1051
28599W        W45073   8.482  14.289   1.705 -0.1525 -0.2516  0.0922
28600W        W45074   2.125   3.518  14.834 -0.2362  0.0366  0.0792
28601W        W45075  10.531   3.079   4.014  0.3030 -0.0809 -0.0159
28602W        W45076   2.785  13.995   0.299 -0.0758  0.1296 -0.0569
28603W        W45077  13.730  11.524   1.254  0.0551  0.3619  0.1238
28604W        W45078   1.547  15.971  10.283 -0.0834  0.1006  0.1324
28605W        W45079  14.585   8.801   5.447 -0.0087  0.3806  0.0535
28606W        W45080  15.345   7.337  14.257  0.1271  0.1897  0.0504
28607W        W45081  19.154  16.446   4.660 -0.2978  0.0094 -0.2769
28608W        W45082  10.655   9.688  11.875 -0.1233  0.3016  0.0253
28609W        W45083   9.614   1.580   3.530  0.3422  0.0949  0.0201
28610W        W45084   7.401   7.565   3.724  0.0972 -0.2801  0.0173
28611W        W45085  17.033   8.564  12.026 -0.2184 -0.0155  0.0247
28612W        W45086  16.819   9.553  13.765 -0.0322 -0.0774 -0.0468
28613W        W45087  16.075  16.753  13.085  0.0522 -0.0613 -0.0785
28614W        W45088   7.656  19.186  14.139 -0.0008 -0.1801 -0.1121
28615W        W45089  13.951   8.423   5.543  0.0754  0.3100 -0.0912
28616W        W45090   1.351  16.095   4.692  0.0869 -0.1450  0.4717
28617W        W45091  16.015  16.092   4.742  0.0375 -0.0670 -0.0952
28618W        W45092   6.704   7.013   0.871  0.0332 -0.1682  0.1302
28619W        W45093  16.019   7.497  12.594 -0.0107 -0.2866  0.1342
28620W        W45094  19.260  14.234  12.469  0.1309 -0.2453 -0.1099
28621W        W45095  12.891  11.287   4.206 -0.3506  0.1280  0.0224
28622W        W45096   9.893  12.881   1.392  0.3216  0.4131 -0.0597
28623W        W45097   6.248  12.412   9.924  0.1904  0.1470 -0.1165
28624W        W45098   7.037  17.135  11.320 -0.1612 -0.1173 -0.2569
28625W        W45099  10.284  15.667  12.239 -0.0003  0.0820 -0.1835
28626W        W45100   0.480   4.619   3.395 -0.3154  0.0668  0.2916
28627W        W45101  15.442  14.861   3.343 -0.0829  0.0137 -0.2811
28628W        W45102  15.158  16.340  11.758 -0.1791 -0.0374  0.1255
28629W        W45103  10.524  17.775  12.153 -0.0601 -0.0834  0.1732
28630W        W45104   6.104  17.937  13.723  0.1960  0.0784  0.0617
28631W        W45105  12.619   3.739  10.670 -0.0507 -0.1992 -0.1454
28632W        W45106   4.235   1.668  11.559 -0.1701  0.1324 -0.1902
28633W        W45107   3.079   2.629  11.013 -0.3849  0.1588 -0.2106
28634W        W45108   8.114  17.864  11.603  0.5313  0.0730  0.0576
28635W        W45109  17.301  11.851   4.307 -0.0032  0.0474  0.3790
28636W        W45110   6.876   8.568  11.303 -0.0181 -0.0458 -0.1800
28637W        W45111  14.376   2.417  14.609 -0.4006 -0.0255  0.0250
28638W        W45112   8.424   5.920   3.809  0.1272  0.0268 -0.3210
28639W        W45113  12.222   1.775  11.255  0.3438  0.0282 -0.1300
28640W        W45114   1.131   2.650  11.475 -0.0457  0.2050  0.2301
28641W        W45115   6.354   7.186   1.209 -0.0554 -0.0948  0.3651
28642W        W45116  18.957  14.110   2.993  0.0339 -0.1763 -0.0613
28643W        W45117  15.545   7.911  11.336  0.2557  0.2162 -0.2074
28644W        W45118   5.910   3.380  13.642  0.0659  0.2698  0.3585
28645W        W45119   7.272  12.179  13.617 -0.3688 -0.2878 -0.0386
28646W        W45120   8.965  12.199   2.147 -0.1231 -0.1754 -0.0914
28647W        W45121  10.053  15.627   5.222  0.0204 -0.1123 -0.0240
28648W        W45122   9.524  17.022   9.609 -0.1655 -0.0404 -0.0887
28649W        W45123  14.295   8.699   3.137  0.0346 -0.3889  0.1671
28650W        W45124   9.635   5.447  13.362 -0.0908 -0.1238 -0.2396
28651W        W45125   0.282  15.674   1.618 -0.0119 -0.0305 -0.1917
28652W        W45126   0.529   0.314  11.376 -0.1302 -0.2368  0.3795
28653W        W45127   3.940  18.171   0.260 -0.0516  0.0986 -0.1109
28654W        W45128  14.636  19.266   2.441  0.3751  0.3013 -0.1543
28655W        W45129  10.860  15.921  12.960  0.1800 -0.0789  0.0830
28656W        W45130  15.012  17.338  12.560 -0.1523  0.1068 -0.0449
28657W        W45131   3.466   8.933  14.317 -0.2695 -0.3224 -0.0277
28658W        W45132  14.771  15.649  12.219  0.0964  0.1739 -0.0147
28659W        W45133   9.175  18.330   0.765 -0.0858  0.1151  0.0978
28660W        W45134   5.781   3.304   3.177  0.1635  0.2553  0.1151
28661W        W45135  15.762   2.849  13.019 -0.3614 -0.0445 -0.0697
28662W        W45136   3.296   3.043   3.106 -0.1071  0.2309 -0.0832
28663W        W45137  15.971   7.134  11.767  0.2926  0.0227 -0.1675
28664W        W45138   2.189  17.385   0.452  0.0844 -0.0540  0.0720
28665W        W45139  13.325  12.925   3.322  0.3709 -0.0593  0.5353
28666W        W45140   2.327  17.655   0.010  0.2816 -0.3231  0.0110
28667W        W45141   7.493   5.297   2.450  0.1843 -0.1843 -0.1738
28668W        W45142   0.671   6.851  12.004 -0.0034  0.0230 -0.0225
28669W        W45143   3.647   0.533  11.973 -0.1097  0.0138 -0.0560
28670W        W45144   9.071  13.882   3.591 -0.2398  0.5530  0.0761
28671W        W45145  15.725   9.905   0.459  0.0361  0.0245  0.0307
28672W        W45146  14.626   7.931   3.123  0.1000  0.1930 -0.1053
28673W        W45147  13.238   6.180   2.719 -0.0742  0.1700  0.2073
28674W        W45148   2.685   6.780  14.119  0.2094  0.1236  0.1384
28675W        W45149   1.301  16.808  14.383 -0.0602  0.2533 -0.0849
28676W        W45150  17.358   9.564   4.854 -0.3400 -0.0226 -0.1803
28677W        W45151  19.022  15.136   3.248  0.1771  0.1343 -0.0154
28678W        W45152  18.078   6.075   3.216  0.0574  0.1075  0.1169
28679W        W45153  15.995   0.030  10.251  0.1876 -0.1869 -0.0174
28680W        W45154   9.030  10.200   0.950  0.2372 -0.0753 -0.0797
28681W        W45155   2.578   0.840  12.036  0.0825 -0.3983 -0.0295
28682W        W45156  16.615   2.911  14.228  0.0918  0.1533  0.2613
28683W        W45157   4.676  14.985  10.823  0.0350  0.1627 -0.3211
28684W        W45158  14.206   5.887  10.195 -0.2580 -0.0613  0.0693
28685W        W45159   0.536   5.205   1.438  0.0499  0.1094  0.0676
28686W        W45160  11.180  11.501   1.476  0.1943  0.2237 -0.0388
28687W        W45161  14.948  10.427   1.856  0.3248 -0.3891 -0.2910
28688W        W45162  12.073  15.806  11.372 -0.0243 -0.1607 -0.1624
28689W        W45163  11.671  17.898  12.670 -0.1979  0.3437 -0.3687
28690W        W45164  18.951  17.490  10.534 -0.1999  0.0275 -0.5127
28691W        W45165   0.241   2.405  14.804 -0.1067 -0.1816 -0.1091
28692W        W45166   9.272   9.701   0.345  0.0356 -0.0088  0.1257
28693W        W45167  11.599   4.128   4.417 -0.2458  0.2884  0.3094
28694W        W45168  10.140   4.084  12.481  0.0815 -0.0730  0.1132
28695W        W45169  10.383  12.843   1.546 -0.0511  0.3295 -0.3183
28696W        W45170   7.825  10.412  13.851 -0.2412 -0.2437  0.3117
28697W        W45171   0.103  15.841  13.302  0.1374 -0.2807 -0.1147
28698W        W45172  12.288  13.140  12.583  0.1650 -0.1755 -0.0593
28699W        W45173   6.922  14.280  11.745  0.0363 -0.0923  0.1589
28700W        W45174   6.870   3.947   4.980 -0.0376 -0.1049 -0.0522
28701W        W45175  17.530  15.422  14.663  0.3144  0.1679  0.0521
28702W        W45176  16.134   1.961   0.501  0.0148  0.0482  0.1925
28703W        W45177  10.088   9.725   3.277 -0.0057  0.0995 -0.1137
28704W        W45178  14.033   8.638  11.160 -0.2268 -0.2611  0.0925
28705W        W45179  15.233   2.162  13.854 -0.0118  0.0721  0.2606
28706W        W45180  11.097  18.187   3.077 -0.0720  0.0914  0.1252
28707W        W45181   4.909  10.478  13.208  0.0255 -0.1690 -0.1305
28708W        W45182   2.020   9.408  12.078  0.1824 -0.1089 -0.0553
28709W        W45183   7.026   8.246  12.919  0.1200 -0.0860 -0.0843
28710W        W45184  18.932   6.722  12.694 -0.0795 -0.0037  0.0051
28711W        W45185  11.372   7.128  14.444  0.3210  0.1777  0.2023
28712W        W45186   7.592   2.376  12.516 -0.1159 -0.2041 -0.2753
28713W        W45187   6.101   3.062   0.170  0.1207  0.2589 -0.0083
28714W        W45188   6.798  11.082  14.729 -0.2144  0.0859 -0.1739
28715W        W45189   9.169   3.265   9.807 -0.2632  0.5318  0.2585
28716W        W45190   1.943  11.830  10.800 -0.2626  0.0074 -0.3284
28717W        W45191  13.770   7.824  13.121  0.3338 -0.0477 -0.2655
28718W        W45192   8.775   0.295   3.651 -0.1725  0.3804 -0.1173
28719W        W45193   7.467  14.646  13.591 -0.1787  0.2558  0.1312
28720W        W45194   0.016   2.140  12.530  0.2227 -0.1134  0.2229
28721W        W45195  17.499   2.665   1.841  0.1819  0.1338  0.0743
28722W        W45196   8.314   5.876   0.419  0.0385 -0.2941 -0.1693
28723W        W45197   9.952  12.049   9.882  0.0041 -0.5217  0.1937
28724W        W45198   0.328   6.015   1.651 -0.1613 -0.3914  0.1596
28725W        W45199  19.345   2.152  10.714  0.2385  0.0164  0.1261
28726W        W45200   1.324   6.704  13.300  0.0684 -0.0368 -0.1691
28727W        W45201  18.317   3.694   0.091 -0.2404 -0.3531  0.0184
28728W        W45202   8.202   2.248  10.111  0.1564  0.0946  0.0724
28729W        W45203  18.357  14.693  12.915  0.2766  0.4209 -0.0527
28730W        W45204   7.316  10.075   2.939 -0.0177 -0.0705 -0.1438
28731W        W45205  18.896  16.523  13.024  0.0129 -0.2096  0.1067
28732W        W45206   4.688   9.439  12.397  0.0763 -0.1062  0.2528
28733W        W45207   3.119   7.110   3.132 -0.1508  0.0985 -0.1231
28734W        W45208   8.808  13.852   0.300 -0.2299  0.1929  0.0461
28735W        W45209  19.191  15.797   1.345  0.0848 -0.1070 -0.0580
28736W        W45210   1.907  15.489  14.316 -0.2548  0.1361 -0.1047
28737W        W45211  10.153  12.152  11.653 -0.2480 -0.2899  0.1021
28738W        W45212  16.497   8.282   4.309  0.1874  0.0502 -0.2282
28739W        W45213   1.777   5.110   3.857  0.1589 -0.1481  0.2174
28740W        W45214  18.105   6.393  10.710 -0.1883  0.1525 -0.0605
28741W        W45215   3.341  14.356   4.083 -0.2177 -0.0409 -0.3652
28742W        W45216   0.626   9.897   0.209  0.1234  0.2538 -0.1886
28743W        W45217  15.584  15.805  14.003 -0.0206 -0.0804  0.0581
28744W        W45218   7.046   0.036   2.636  0.2178  0.3749 -0.1277
28745W        W45219   9.309   7.953   0.877  0.3594  0.0702  0.3713
28746W        W45220   9.321  12.472  14.122  0.0088  0.1333 -0.0340
28747W        W45221   3.124  16.388  14.173 -0.0447 -0.0121  0.0307
28748W        W45222   5.421   8.144   3.415 -0.0544 -0.0137 -0.1058
28749W        W45223  19.303  10.424   0.778  0.2145 -0.0919 -0.1978
28750W        W45224   9.192   7.695   0.378 -0.4851 -0.0315  0.1967
28751W        W45225   8.019   2.664   1.622 -0.1182 -0.1257  0.2435
28752W        W45226   4.176  10.968   1.290  0.0620 -0.1788 -0.0418
28753W        W45227   1.590  17.949   1.169 -0.2304  0.0602 -0.0272
28754W        W45228  16.946   2.857  13.737  0.0224  0.0544  0.0416
28755W        W45229  10.220   1.105  13.971  0.1936  0.1513  0.0150
28756W        W45230  11.535   0.004  13.952  0.3136  0.0693 -0.1347
28757W        W45231   5.222   8.862  11.734  0.2874  0.1836 -0.2125
28758W        W45232  15.077   5.260   4.439  0.3562  0.1019 -0.0731
28759W        W45233   9.211   4.503  10.993  0.3455  0.0672 -0.1830
28760W        W45234   0.583  13.286  13.087 -0.1969  0.3659 -0.0076
28761W        W45235  12.233   4.513  12.113  0.0197 -0.1701 -0.1087
28762W        W45236   4.754  13.742  11.587  0.2963 -0.0169 -0.2780
28763W        W45237  15.564   6.591  14.383 -0.0130  0.2445 -0.1416
28764W        W45238  18.813   7.558   1.392  0.3170  0.2283  0.0574
28765W        W45239  18.615   9.035   0.084 -0.1693  0.1974 -0.1754
28766W        W45240  19.108  17.999   2.850 -0.1955 -0.1397  0.3127
28767W        W45241   5.743  13.615  14.479 -0.0485  0.0772 -0.0257
28768W        W45242   1.287  19.093  13.297 -0.1345  0.0166 -0.2107
28769W        W45243  16.062  12.508   5.334 -0.0016  0.0149 -0.0718
28770W        W45244   7.936   6.915  11.082 -0.1872  0.2139 -0.2252
28771W        W45245   2.165  18.459  13.209 -0.0567  0.2555 -0.0555
28772W        W45246  13.932   0.575   5.671  0.0800 -0.2050  0.0821
28773W        W45247  18.372   5.700   1.837  0.0887 -0.0647  0.0436
28774W        W45248  10.879  12.844   4.483 -0.0737  0.0271 -0.0685
28775W        W45249  13.583   7.426  12.830  0.0214  0.2640  0.0624
28776W        W45250   6.433   3.446  10.596  0.2242 -0.0020 -0.0080
28777W        W45251   3.828   5.120  10.418  0.2706 -0.1196 -0.2429
28778W        W45252   0.038   7.276   2.095 -0.1137  0.0430 -0.1220
28779W        W45253  11.520  19.161  12.591 -0.4417  0.3181  0.0517
28780W        W45254   6.592  13.408  11.398 -0.1284  0.1602  0.3204
28781W        W45255   3.928   0.567  13.258 -0.0632  0.3653 -0.0965
28782W        W45256   0.281   4.509  11.537 -0.2745 -0.1090 -0.2333
28783W        W45257   5.504  16.390   3.247 -0.1287 -0.2659 -0.2539
28784W        W45258   8.373   0.098  11.471  0.0279 -0.0053 -0.1133
28785W        W45259  17.878   1.366   2.217 -0.0409 -0.0416  0.0471
28786W        W45260   9.619   9.247  14.054 -0.4470 -0.2600  0.4495
28787W        W45261  10.016  12.025  12.226  0.1725  0.2645 -0.0067
28788W        W45262  18.737  16.345  11.607 -0.0007  0.1165 -0.2664
28789W        W45263   5.330  17.660   2.841 -0.0154 -0.0119 -0.4137
28790W        W45264  15.356  12.901  14.481  0.3319 -0.1767  0.0963
28791W        W45265  16.530  13.824   2.432  0.0492  0.3381 -0.1655
28792W        W45266  12.483  10.544   2.412 -0.3011  0.0741  0.1349
28793W        W45267  10.037  11.122   4.586 -0.1638  0.3991  0.1541
28794W        W45268  10.507  17.710  11.656  0.1109 -0.0785 -0.1101
28795W        W45269   1.992  15.533   5.468  0.1869 -0.3731 -0.1495
28796W        W45270  11.301  13.030   4.214  0.0995 -0.1604 -0.0594
28797W        W45271  10.693   1.792   3.464 -0.1502  0.4144 -0.0350
28798W        W45272  15.175  19.076  10.522  0.4517  0.1196  0.1869
28799W        W45273   6.099   2.541   0.981 -0.0598  0.1699 -0.0436
28800W        W45274   3.899  11.049   0.899 -0.3103 -0.2571 -0.0677
28801W        W45275  16.435   1.615  12.322  0.1200 -0.0047  0.1183
28802W        W45276   1.262  12.733  11.565 -0.2979  0.1884 -0.1639
28803W        W45277   6.642   3.355   0.481 -0.1152  0.2356 -0.2892
28804W        W45278  16.350  17.230  12.790 -0.0474 -0.1790 -0.1648
28805W        W45279  10.870   2.735  14.258 -0.1162 -0.0089  0.0587
28806W        W45280   7.627  15.176  13.277  0.1417 -0.1019  0.2516
28807W        W45281  10.581  13.640  13.495 -0.0591 -0.2610 -0.0588
28808W        W45282   6.383   8.999   0.701  0.1118  0.0948 -0.0334
28809W        W45283   0.497   5.001  13.742  0.3481 -0.0741 -0.0917
28810W        W45284  12.734  12.086  11.176  0.0719 -0.1432  0.0096
28811W        W45285  11.905   4.501   4.645  0.0865  0.0952  0.0975
28812W        W45286   0.764  12.291  14.760  0.1070 -0.4285  0.0272
28813W        W45287   2.748  17.569   3.694  0.0025  0.4177  0.1813
28814W        W45288   7.257  13.865  12.426  0.2600 -0.1307  0.1011
28815W        W45289   6.716  16.293  11.048 -0.3074  0.1703 -0.2428
28816W        W45290   7.274  11.235   4.164  0.2390  0.1518  0.1320
28817W        W45291  16.825  10.508   3.558 -0.0494 -0.2484  0.1164
28818W        W45292   3.119   4.658   0.741  0.2802  0.0433  0.1955
28819W        W45293  16.454   9.450  12.087  0.1192 -0.2432 -0.2601
28820W        W45294  12.916  13.927  12.272  0.1660 -0.2091 -0.0867
28821W        W45295   3.542  10.243   0.100 -0.3262  0.3837  0.2997
28822W        W45296  16.874   1.460  13.245 -0.1090  0.0362  0.2529
28823W        W45297   5.959  10.440  10.584 -0.0406 -0.2125 -0.1670
28824W        W45298  13.169  11.808   2.314 -0.1276  0.1554 -0.1292
28825W        W45299   1.832   4.616  12.784 -0.1066  0.0847  0.0610
28826W        W45300   9.759   0.662   4.071  0.0698  0.0321  0.0851
28827W        W45301   4.292  15.747   3.653 -0.1638  0.0190 -0.1734
28828W        W45302  11.301   7.348   3.745 -0.1841 -0.3344  0.0610
28829W        W45303   4.267   6.640  14.696 -0.0919 -0.1245  0.1948
28830W        W45304  12.878  13.918  14.002  0.3718  0.0152 -0.1008
28831W        W45305   1.328  17.975   4.623  0.1291  0.0948  0.0405
28832W        W45306  17.904  11.756   3.563 -0.0338  0.0610  0.1218
28833W        W45307   1.641  11.438   0.629  0.0045 -0.1376 -0.4849
28834W        W45308   9.916   6.069  11.488  0.1044  0.1850  0.1754
28835W        W45309   3.881  10.294  10.662 -0.0744  0.0038  0.0842
28836W        W45310   2.334   4.096   3.625  0.2581  0.0372 -0.0947
28837W        W45311   9.012   3.779  13.546 -0.0357 -0.2683 -0.1431
28838W        W45312   6.149  15.367   6.051 -0.2994 -0.1411 -0.2305
28839W        W45313   4.613  12.547   5.605 -0.1931 -0.0787 -0.1284
28840W        W45314  19.046  12.141   0.999 -0.1527  0.4038  0.4006
28841W        W45315  16.240  14.575   1.852 -0.1239 -0.0760 -0.0716
28842W        W45316  14.290  19.102  13.977 -0.1614  0.0523 -0.0287
28843W        W45317  17.037   8.772   0.057 -0.1116  0.3025 -0.0248
28844W        W45318  13.571   0.990  10.678 -0.3459 -0.3347  0.0868
28845W        W45319   7.448  13.955   0.249  0.3255  0.2270  0.3121
28846W        W45320   4.630   7.670  14.780 -0.3069 -0.1184 -0.0972
28847W        W45321  10.724  11.801   3.628  0.0177 -0.1294  0.4808
28848W        W45322  10.526   0.511   2.971 -0.3195  0.0544 -0.1595
28849W        W45323   3.922   8.764  14.741  0.1675 -0.2499  0.0083
28850W        W45324  12.371   7.005   2.130  0.2101 -0.1153 -0.2481
28851W        W45325  14.530   8.590   2.658 -0.0176  0.0871 -0.0208
28852W        W45326   8.350   0.483   1.982 -0.1584  0.1060 -0.0622
28853W        W45327   7.117  17.011  12.033 -0.1696  0.2004 -0.3780
28854W        W45328  10.313  11.427   1.402 -0.1418  0.1189  0.1859
28855W        W45329  15.832   8.374   1.596  0.0416  0.0453 -0.1902
28856W        W45330  10.656  14.594  13.713 -0.1029 -0.1937 -0.0784
28857W        W45331   0.530   8.510  12.095  0.0472  0.2229  0.1245
28858W        W45332   3.398  18.303   0.250  0.1880  0.0206 -0.0726
28859W        W45333  10.683   5.736   3.164  0.2110 -0.1437 -0.4133
28860W        W45334   0.181   3.362   2.853  0.3354  0.2282 -0.2371
28861W        W45335  17.099  13.237   2.486  0.1900  0.3497  0.1699
28862W        W45336   1.748  18.104   4.910 -0.3114  0.0580 -0.0430
28863W        W45337  11.105   9.038   3.983 -0.2459  0.0307 -0.2181
28864W        W45338   4.633  14.318   4.378  0.2802 -0.0417  0.0346
28865W        W45339  13.863   5.844   3.046 -0.0376 -0.1157 -0.3607
28866W        W45340  13.849   5.414  12.764 -0.0692 -0.4095 -0.0132
28867W        W45341  18.778   3.914  14.248 -0.1380 -0.1409  0.1130
28868W        W45342   6.283  18.292  11.038  0.1886  0.4866  0.0219
28869W        W45343   5.221   1.124   2.407 -0.1990  0.0364  0.0755
28870W        W45344   6.490   7.801   0.031  0.1277 -0.2067  0.2858
28871W        W45345   2.189   7.656  14.198 -0.0761 -0.2730 -0.2589
28872W        W45346   6.137   8.524  12.192  0.0855  0.0971 -0.0228
28873W        W45347   9.315  11.764  10.613 -0.1926 -0.0348 -0.0015
28874W        W45348  17.655  15.028  14.335 -0.0130  0.1649  0.3248
28875W        W45349  19.320  17.573   3.036  0.4974  0.0376  0.1374
28876W        W45350   5.685  10.877   3.446 -0.1641 -0.1204  0.0558
28877W        W45351   7.961   8.299   1.586  0.0944  0.2473 -0.1623
28878W        W45352  17.960   7.595  11.999  0.1225 -0.1229  0.3653
28879W        W45353   4.048   4.327  10.101  0.1909 -0.0351 -0.3486
28880W        W45354   0.095  14.446  11.321  0.0483  0.2414 -0.0014
28881W        W45355   2.074   2.477   0.082 -0.0857 -0.0963 -0.0475
28882W        W45356   1.453  18.970  10.047  0.1164  0.1133  0.0124
28883W        W45357   4.800   4.623  12.099  0.1116 -0.0770 -0.1513
28884W        W45358  12.403  11.127  14.029  0.1927 -0.0780 -0.2578
28885W        W45359   4.563  18.455   2.228  0.2339  0.0336 -0.0242
28886W        W45360  10.337   7.972  12.692 -0.1391 -0.0236  0.2111
28887W        W45361  17.301  15.196   4.501  0.3219 -0.2016  0.2796
28888W        W45362  11.236  14.784  10.449  0.4098 -0.2164  0.1414
28889W        W45363  16.111   6.374   5.292 -0.2268 -0.1356 -0.1866
28890W        W45364  13.681  17.359   3.547  0.1547  0.0332 -0.1422
28891W        W45365   9.613  19.003   9.990 -0.0303  0.3270 -0.2179
28892W        W45366   4.634  14.830   5.718  0.1831 -0.0691  0.0163
28893W        W45367  10.796  11.327  13.123 -0.2133 -0.1533 -0.0431
28894W        W45368  11.180   0.072   0.773 -0.0543 -0.1248 -0.1265
28895W        W45369   5.192   3.581   1.244  0.1305 -0.1112 -0.0682
28896W        W45370  16.435  10.293  11.872  0.5436 -0.0980  0.1980
28897W        W45371   5.356  14.501   4.642  0.1599 -0.0293 -0.0304
28898W        W45372  17.535  13.533   4.816  0.2535 -0.2701  0.0850
28899W        W45373   4.351   3.709   0.523  0.1069 -0.2380  0.3013
28900W        W45374  11.366   2.974   5.570  0.3036  0.0578  0.1266
28901W        W45375  13.208  12.780  10.691 -0.1048 -0.2269  0.0773
28902W        W45376  17.961  14.569  13.250 -0.0349 -0.1724  0.0945
28903W        W45377  13.856   6.340   0.759 -0.0445 -0.1089  0.2117
28904W        W45378   9.124   5.799   4.788 -0.1399 -0.0910  0.0433
28905W        W45379   5.616   5.207   4.683 -0.0840 -0.1860 -0.0355
28906W        W45380   9.809   7.454  13.647 -0.1239 -0.0078 -0.1508
28907W        W45381  16.808   4.212  11.201  0.0910 -0.3744 -0.2407
28908W        W45382  10.890  14.969   3.553  0.1423 -0.4338 -0.0982
28909W        W45383   7.139   7.213   1.076 -0.2003 -0.1275  0.0211
28910W        W45384  18.750   4.150   3.674  0.1508 -0.2459 -0.1783
28911W        W45385   2.100   1.450  12.809  0.0544 -0.1510  0.4645
28912W        W45386  15.717  13.056   3.146  0.0434 -0.0227 -0.1027
28913W        W45387  15.033   2.280  14.810 -0.2604 -0.3615 -0.2518
28914W        W45388   3.615   8.635   5.482 -0.3402 -0.0161 -0.0480
28915W        W45389  12.630   0.461  11.560  0.0775  0.0466  0.1196
28916W        W45390   8.525  15.284  12.815  0.2281  0.1345 -0.1495
28917W        W45391   9.735   6.747  13.321 -0.3027 -0.0160  0.3374
28918W        W45392  18.521   2.472   3.454 -0.0570 -0.3682  0.5920
28919W        W45393   4.089   9.751   2.465  0.2720  0.3146 -0.5932
28920W        W45394  12.548   5.671   1.122 -0.0053 -0.4101  0.2279
28921W        W45395   9.879  16.740   4.046 -0.1437  0.3388  0.0104
28922W        W45396   6.636   9.783   2.594  0.1186  0.2626 -0.2561
28923W        W45397   7.609   3.741  13.007 -0.1965  0.1507  0.0964
28924W        W45398  14.024  17.420   2.568  0.2353  0.0805 -0.2046
28925W        W45399   6.132  17.785   0.993 -0.0362  0.3192  0.2971
28926W        W45400   5.913  10.404  13.637 -0.0178  0.1974  0.1148
28927W        W45401  17.436  15.140  13.257  0.0521  0.1271 -0.0640
28928W        W45402   5.674  13.170   2.053  0.0126 -0.1713  0.1649
28929W        W45403   2.805  13.368   5.448 -0.1925  0.1155 -0.2896
28930W        W45404  16.666  10.410  12.298  0.0385  0.0857  0.0004
28931W        W45405  10.903  10.878  10.396 -0.2917 -0.1526 -0.0029
28932W        W45406   5.165   0.187   4.491 -0.0073  0.1155 -0.0991
28933W        W45407   6.459   2.827  12.254  0.5632 -0.2661 -0.0674
28934W        W45408  13.330  10.294  11.142 -0.0186  0.2499  0.2330
28935W        W45409   8.753   7.986  11.276 -0.1238  0.1661  0.0361
28936W        W45410  14.129  10.675  11.669 -0.1358 -0.3146  0.2284
28937W        W45411   1.481  17.417   0.973 -0.2356  0.0190  0.3831
28938W        W45412   8.221  18.680  12.130 -0.0390  0.2623 -0.1801
28939W        W45413  11.679   1.115  12.853 -0.1023 -0.0503 -0.2592
28940W        W45414  10.701   3.351   1.176  0.0020 -0.0858 -0.0710
28941W        W45415  12.167  13.104  14.440  0.0889  0.1252  0.0128
28942W        W45416  13.733  14.625   5.182 -0.0191 -0.2372 -0.3225
28943W        W45417   7.519   3.109  10.259 -0.0530 -0.0214  0.1311
28944W        W45418   3.158  15.385   4.924  0.0103  0.2690  0.1388
28945W        W45419   8.664   2.439  12.441 -0.1728  0.3144 -0.1587
28946W        W45420   3.315  19.010  11.340  0.0238 -0.1474 -0.1810
28947W        W45421   2.703  15.393   2.060 -0.1393  0.2190  0.3803
28948W        W45422   7.022  13.465   0.994 -0.1268  0.1920 -0.0077
28949W        W45423  17.079   3.056  12.510  0.1471 -0.1132 -0.0975
28950W        W45424  18.876   7.807   5.328  0.2782 -0.0759  0.1715
28951W        W45425  16.338  19.074  13.828  0.1079 -0.0360  0.0897
28952W        W45426   2.780  17.455   2.761 -0.3258 -0.0835 -0.0642
28953W        W45427  19.131  17.263   1.259  0.0237  0.1238 -0.0615
28954W        W45428  13.821  12.617   4.429  0.0644  0.1449  0.2350
28955W        W45429   5.532   8.330   0.609  0.0057 -0.0619  0.0215
28956W        W45430  11.964   1.282  13.384  0.2667  0.0727 -0.1628
28957W        W45431   7.498   1.885  11.794 -0.0247 -0.0178  0.0637
28958W        W45432   2.935  13.865  14.675 -0.1517 -0.0251  0.2447
28959W        W45433   9.975  16.861   3.539  0.0100 -0.0283  0.0201
28960W        W45434  16.510  15.618   2.470  0.0497  0.0119  0.0046
28961W        W45435  10.541   5.918   5.089  0.0971 -0.0726 -0.1672
28962W        W45436  14.982   9.268   0.844  0.1394 -0.4022  0.2297
28963W        W45437  19.019  19.164   1.603 -0.0046  0.4589 -0.1503
28964W        W45438  11.770  13.488   2.711 -0.5305 -0.0127  0.0744
28965W        W45439   8.424  16.817  10.314  0.0092 -0.0479  0.4207
28966W        W45440  11.228   0.413  13.054 -0.0434  0.1504  0.2850
28967W        W45441  13.969  10.111   3.588 -0.2109  0.2270 -0.3291
28968W        W45442   7.480   7.802  13.361  0.0242  0.0500  0.0134
28969W        W45443  16.032   1.068  13.141  0.1012 -0.1012 -0.2138
28970W        W45444  12.798   0.738   0.656 -0.2092 -0.3895  0.0121
28971W        W45445   4.445   7.348   1.042  0.3522  0.0480  0.0744
28972W        W45446  15.644   9.072  13.662  0.0193 -0.3734  0.0164
28973W        W45447   1.381   6.058   2.259 -0.0315 -0.2246  0.0275
28974W        W45448  10.471  14.860  13.155  0.0013  0.3947 -0.1042
28975W        W45449   3.554  15.467   3.323 -0.2948 -0.1877 -0.0015
28976W        W45450  10.956  12.448   2.485  0.0643 -0.0748 -0.2401
28977W        W45451  18.989   4.223   0.974  0.1649  0.0540  0.0147
28978W        W45452  10.131   6.531   0.116 -0.1818  0.0458  0.1645
28979W        W45453   7.595  13.852   1.509 -0.0992  0.1280 -0.0238
28980W        W45454   7.154  16.056  12.096 -0.0876  0.2085 -0.1466
28981W        W45455   3.582  14.959  10.694 -0.1046  0.0502  0.1159
28982W        W45456  12.641  14.687  13.664  0.1655 -0.2574 -0.0880
28983W        W45457  18.951   7.983  10.822  0.1666  0.1717  0.2502
28984W        W45458  12.040   6.660   1.109  0.2349  0.1402 -0.1562
28985W        W45459  11.786   6.484   4.352  0.1722  0.0738  0.2257
28986W        W45460  13.068  16.353   4.012  0.1443  0.3299  0.1192
28987W        W45461  10.825  13.168  14.356  0.2436 -0.1348  0.1895
28988W        W45462   1.497  14.457   5.068 -0.2631 -0.0427  0.2357
28989W        W45463  11.402   9.077  10.330 -0.3039  0.0838 -0.3206
28990W        W45464   8.057   9.312   2.439 -0.1886 -0.2761 -0.1970
28991W        W45465   0.541   3.716   2.796 -0.0399  0.0568 -0.2054
28992W        W45466  15.570  17.485  13.866 -0.2303  0.1746 -0.1504
28993W        W45467   5.972   2.232   3.639 -0.1200 -0.3131  0.0435
28994W        W45468  15.219   3.848   1.646  0.3413 -0.2064 -0.1996
28995W        W45469  16.746   1.526  10.727  0.1449 -0.0775 -0.2684
28996W        W45470  14.624   3.793  10.864 -0.2750  0.0291  0.1510
28997W        W45471  14.715   9.042  13.938 -0.1020 -0.1554  0.2355
28998W        W45472  19.175  13.885  13.819  0.2129  0.0605 -0.1489
28999W        W45473   9.375  16.319  12.125  0.1344  0.1778  0.3613
29000W        W45474  13.388   1.283   0.075  0.3129 -0.0182  0.0448
29001W        W45475   3.550   2.641  10.858 -0.0195  0.3637  0.0967
29002W        W45476   4.437   9.604   3.015  0.1899  0.2216  0.2926
29003W        W45477  10.751   1.653  12.811 -0.2138  0.0847  0.0096
29004W        W45478   9.166   5.612  10.432 -0.0935  0.0535  0.1171
29005W        W45479  18.748   9.412  10.892  0.2522  0.0996 -0.2016
29006W        W45480   1.942   4.894  13.188  0.2674 -0.0446  0.1309
29007W        W45481  11.570  13.148   2.378 -0.1687  0.1115  0.1770
29008W        W45482  10.793   0.975  13.422  0.6354 -0.1722 -0.2330
29009W        W45483  19.365  15.460   2.880  0.3841  0.2056  0.1812
29010W        W45484   0.201   6.699   4.729 -0.1125 -0.3504  0.2038
29011W        W45485  17.867  18.779   1.905  0.0014 -0.0168 -0.1698
29012W        W45486   3.818  14.039   3.001 -0.2428 -0.0509  0.1326
29013W        W45487  11.580  16.739   4.294 -0.0220  0.1205 -0.1713
29014W        W45488   3.335  16.135   1.011 -0.1057 -0.0065  0.1036
29015W        W45489  17.160  13.608  13.099 -0.2306  0.0136 -0.1526
29016W        W45490   3.032  16.685  10.854 -0.0589 -0.0657 -0.2696
29017W        W45491  12.448   5.135   4.091 -0.0572  0.2732 -0.0969
29018W        W45492  10.451  14.521  14.498 -0.3010  0.0888  0.1094
29019W        W45493  17.203   4.879   2.384 -0.0821 -0.2653 -0.1445
29020W        W45494   5.699   1.014  12.256 -0.0926 -0.2195  0.0805
29021W        W45495   0.642   6.075   3.646 -0.1086  0.0502  0.2830
29022W        W45496  17.153   3.448  12.175  0.0703 -0.1640  0.1598
29023W        W45497  16.883  13.741   3.686  0.1088  0.1210 -0.1311
29024W        W45498   2.680  11.203   2.785  0.0587  0.0370  0.2873
29025W        W45499   2.107   0.822   3.279  0.1242  0.3557 -0.0438
29026W        W45500   9.560  19.382  13.470  0.0936 -0.0292  0.2086
29027W        W45501   0.817  16.805  14.841  0.0005 -0.0094  0.1226
29028W        W45502  14.148  12.568  14.523  0.2374  0.5255  0.0957
29029W        W45503   6.850   7.729   4.480  0.1050 -0.2878  0.1107
29030W        W45504  16.958  13.409  13.936  0.2324 -0.0166  0.3145
29031W        W45505   2.626  17.001   1.926 -0.2130  0.0247 -0.2055
29032W        W45506   4.986  18.614  12.349 -0.3954  0.3149  0.1565
29033W        W45507  11.536  16.433  11.775  0.1530  0.2021  0.1327
29034W        W45508  14.167  12.645   2.093  0.0691 -0.4035  0.0560
29035W        W45509   7.226   6.850  12.330 -0.2108 -0.0761 -0.0696
29036W        W45510   6.860  14.311  14.210 -0.1953  0.2130  0.0203
29037W        W45511  11.030   4.562   1.699 -0.1199 -0.2214  0.2466
29038W        W45512   8.456   8.688   1.695  0.3547 -0.0411 -0.1509
29039W        W45513   4.724   9.167  13.291 -0.2481  0.0803  0.2666
29040W        W45514  16.800   8.594  14.184  0.2339  0.3525  0.1784
29041W        W45515   7.067   4.051  12.384 -0.1996 -0.5190 -0.2137
29042W        W45516  13.909  11.611  13.295  0.1881  0.0093 -0.0021
29043W        W45517   1.836  10.975  11.499  0.1452 -0.0361 -0.3644
29044W        W45518   7.314  14.407  12.218  0.1202 -0.0869  0.2767
29045W        W45519   4.571   9.548   5.174  0.0591  0.1322 -0.3452
29046W        W45520  15.768   9.702  11.911 -0.2071  0.1403 -0.1942
29047W        W45521   9.724  16.578  10.229  0.0273 -0.0534  0.1741
29048W        W45522   4.185  18.278   3.055  0.1366  0.0296  0.2034
29049W        W45523  14.963  19.246   0.729  0.2293  0.3414 -0.2410
29050W        W45524  18.785   7.631   3.983  0.2052  0.1401  0.1857
29051W        W45525  16.676   3.016  12.135 -0.2059  0.0453 -0.5042
29052W        W45526   0.126  12.875   0.628  0.0902  0.0877 -0.0319
29053W        W45527  14.855   4.240   2.433  0.2694  0.0591 -0.4498
29054W        W45528  18.420   7.746  13.140 -0.0509  0.2667 -0.2655
29055W        W45529  16.537   1.054  13.252  0.2800 -0.1625  0.1786
29056W        W45530   7.745   1.109   2.391  0.0279 -0.0789 -0.1156
29057W        W45531   7.137  16.685   3.964  0.0621 -0.0616 -0.0676
29058W        W45532   7.596   4.287   9.783 -0.2233  0.0610 -0.1005
29059W        W45533   4.670  15.569  14.447 -0.3323 -0.1180 -0.0405
29060W        W45534   3.328  17.244  12.649 -0.1117  0.1968  0.1218
29061W        W45535  18.261   5.855   4.391  0.0229  0.0468 -0.0799
29062W        W45536  18.657  15.603  14.315  0.1308  0.0742 -0.0231
29063W        W45537  14.542  15.445   0.710  0.2017  0.3449  0.1956
29064W        W45538   2.414  17.348   4.200  0.1411  0.0979 -0.1871
29065W        W45539  11.128  11.121  13.444 -0.0118 -0.2925 -0.1862
29066W        W45540   9.687   3.147  11.035 -0.2109  0.1899  0.0950
29067W        W45541   9.140  19.364   3.581  0.0256 -0.2075  0.2286
29068W        W45542   5.725  13.142   0.336 -0.1831  0.1576  0.2195
29069W        W45543   0.488  19.195  14.500 -0.1046 -0.1289  0.2009
29070W        W45544  12.375   1.744  11.712  0.0747  0.2652 -0.1801
29071W        W45545   5.090  16.844   2.037 -0.0350 -0.1311 -0.1976
29072W        W45546  11.585  14.987  12.486 -0.0310 -0.1959 -0.3855
29073W        W45547  12.931  11.369  11.958  0.2165 -0.3741  0.1292
29074W        W45548  13.202   3.691   4.039 -0.0724 -0.2203  0.2292
29075W        W45549   5.062   3.211  12.723 -0.0019  0.3748 -0.1029
29076W        W45550   4.588  17.733  10.928 -0.0616  0.4683  0.1779
29077W        W45551  12.563  11.059  12.347 -0.1086  0.1356  0.0983
29078W        W45552  14.873   4.384   3.999 -0.1859 -0.0301  0.0074
29079W        W45553  13.923  12.403  12.667 -0.2074 -0.0431  0.2119
29080W        W45554  15.976   0.343  11.394 -0.1494  0.1015 -0.0468
29081W        W45555  13.289   5.317   4.861 -0.0786  0.0846 -0.0122
29082W        W45556  18.083  15.941  12.193  0.1936 -0.0137  0.0659
29083W        W45557  11.594   9.877   3.956 -0.4502  0.0978 -0.0110
29084W        W45558   5.485   9.971   1.886 -0.0613  0.0583  0.1277
29085W        W45559  13.830  13.758   5.470  0.0811 -0.0827  0.2006
29086W        W45560  14.220   3.740   4.388 -0.1625 -0.0481  0.0180
29087W        W45561   7.067   8.402   5.117 -0.0196  0.0301 -0.0177
29088W        W45562  10.818   6.869  11.690 -0.4109  0.2123  0.2498
29089W        W45563  11.945  13.935  11.331 -0.2670 -0.1225 -0.0320
29090W        W45564  11.913  13.573  10.979  0.0894  0.0888  0.0733
29091W        W45565  14.896  17.805   1.923  0.2048 -0.1499  0.0821
29092W        W45566  18.531   9.752  14.058  0.3651  0.0718 -0.5268
29093W        W45567   8.113   4.201   2.159 -0.0171 -0.2639 -0.1155
29094W        W45568  14.662   1.483   4.521  0.0287  0.1371 -0.0799
29095W        W45569   4.907   2.256  12.820  0.0858  0.1002 -0.0666
29096W        W45570   3.787   1.725  12.508 -0.1591  0.1589 -0.1285
29097W        W45571   1.478   9.995   4.226  0.0264 -0.0808  0.0955
29098W        W45572   4.926   4.670   3.114 -0.0119 -0.1035  0.0554
29099W        W45573   6.681   2.006   1.781 -0.0514  0.2058  0.2323
29100W        W45574   4.597   7.433   4.329 -0.3056 -0.1643  0.1620
29101W        W45575   8.289  18.325  10.709  0.2148  0.1700 -0.1374
29102W        W45576  16.899  14.435   2.996  0.2205  0.0749  0.1514
29103W        W45577   2.723   5.167  12.027 -0.0673 -0.1347  0.0253
29104W        W45578   7.587  16.768  10.660 -0.0101 -0.0627  0.0687
29105W        W45579  10.748   9.106   1.877 -0.2330  0.0442  0.1763
29106W        W45580   8.987  16.818   2.637 -0.1092 -0.2761  0.1933
29107W        W45581   8.275   9.776  12.862  0.4448 -0.0305 -0.2105
29108W        W45582  12.504  14.511  10.147  0.0133  0.1526 -0.0868
29109W        W45583  15.562  14.718   4.779 -0.1922 -0.4186 -0.0901
29110W        W45584   7.364  18.111  11.006 -0.2816  0.2063 -0.1970
29111W        W45585   5.568  10.425   0.194 -0.1395 -0.0419 -0.1226
29112W        W45586   6.077  10.049   2.569 -0.1651  0.0756 -0.0973
29113W        W45587  11.951   4.080  13.899  0.1028  0.0822  0.3702
29114W        W45588   1.947   9.208  14.795  0.0222  0.0569  0.0518
29115W        W45589  17.397  16.116  12.874  0.0239 -0.0377  0.1075
29116W        W45590  14.763   0.841  12.809 -0.0321  0.1872  0.4570
29117W        W45591   3.979  10.441  14.817 -0.1853 -0.1029 -0.2943
29118W        W45592   4.250   5.490  13.053 -0.3364 -0.1005 -0.0540
29119W        W45593   6.228  18.185   2.661 -0.1508 -0.4076 -0.0488
29120W        W45594  11.158  16.477   4.244 -0.0809 -0.1136 -0.2599
29121W        W45595  13.288   5.538  14.056  0.2113 -0.1732 -0.3061
29122W        W45596   1.445   3.794   3.076  0.0491  0.1188  0.2404
29123W        W45597   0.402   7.206   4.703  0.1266  0.1722 -0.1709
29124W        W45598  18.341  14.174  14.161  0.1089  0.3277  0.0460
29125W        W45599   2.302  13.706  12.062 -0.4226 -0.0844  0.3480
29126W        W45600   6.109   0.377  11.039  0.0126 -0.1470 -0.5723
29127W        W45601   8.891  15.766   9.309  0.0874  0.1755 -0.0333
29128W        W45602  11.473   4.221  14.485  0.1968 -0.0295  0.0405
29129W        W45603  13.860   0.830  11.901 -0.4496 -0.0017  0.1931
29130W        W45604   2.212   7.340  12.917 -0.0233 -0.1500 -0.2154
29131W        W45605   2.319   4.500  12.648 -0.0749 -0.1265 -0.1864
29132W        W45606   3.005   0.031  14.875  0.1115 -0.1148  0.0232
29133W        W45607   4.871  14.976   5.245  0.0919  0.1433  0.3974
29134W        W45608  14.098   1.726   1.607 -0.0144 -0.2807  0.3451
29135W        W45609  11.943  16.116  13.657 -0.0662  0.2544 -0.3447
29136W        W45610   2.300  14.145  12.314 -0.0819 -0.0193 -0.1109
29137W        W45611  18.542  15.425  12.549  0.0012  0.0959  0.0552
29138W        W45612   5.132  18.846   4.699 -0.0895 -0.1931  0.0394
29139W        W45613  16.762   1.402   0.464 -0.1613  0.2317 -0.2379
29140W        W45614   1.164  13.868  10.523 -0.1831  0.0206  0.0246
29141W        W45615  13.049   7.634   2.894  0.3008 -0.0618 -0.2393
29142W        W45616  18.403   5.013  10.644 -0.1089  0.1010  0.0534
29143W        W45617   2.424  17.277  12.652  0.3215 -0.4944 -0.0600
29144W        W45618   0.493  11.626   5.139  0.1650  0.2582 -0.0318
29145W        W45619   2.234  17.820  10.592  0.1082 -0.0364 -0.1383
29146W        W45620  16.161  10.442  12.282  0.2051 -0.1933  0.2754
29147W        W45621  15.844   4.685   2.268 -0.0545 -0.0196 -0.1104
29148W        W45622   6.454  16.186   2.334 -0.3027 -0.2081  0.4738
29149W        W45623   9.092   4.609   2.292  0.1064 -0.0387 -0.1060
29150W        W45624  16.639   9.794  11.803 -0.0892  0.3636 -0.0171
29151W        W45625  17.071  12.094   2.734  0.0215  0.1650  0.1196
29152W        W45626   3.081  14.373   0.336 -0.0683  0.0740  0.0213
29153W        W45627  16.072  18.488   1.536  0.0625 -0.0330 -0.2617
29154W        W45628  14.775   3.867   4.481  0.2547  0.1195 -0.0069
29155W        W45629  16.286  13.054   0.022 -0.1774  0.0753 -0.1319
29156W        W45630   4.948  14.276   1.115  0.0380 -0.0367  0.0719
29157W        W45631  17.407  12.505   0.523  0.1469  0.0707  0.2559
29158W        W45632   6.847   6.899   4.796 -0.1590 -0.4823  0.2350
29159W        W45633  13.384  14.695  12.604  0.1140 -0.1274  0.0157
29160W        W45634  14.971   0.587   1.586  0.1138  0.0566  0.1608
29161W        W45635   8.892  12.925   3.721  0.1224 -0.0343  0.0344
29162W        W45636  13.809   4.901  10.448 -0.1298 -0.2124  0.1048
29163W        W45637  17.084  12.065  14.459 -0.4311 -0.4095  0.2469
29164W        W45638  15.668  16.202  12.274 -0.1246 -0.2073 -0.0372
29165W        W45639   3.261   8.221   2.018 -0.0217  0.1156  0.2102
29166W        W45640   0.314   5.748  11.712  0.1833  0.2739 -0.0066
29167W        W45641  19.185  16.104   3.508  0.1216 -0.1247 -0.2142
29168W        W45642  17.928   5.958  11.915 -0.0248 -0.0179 -0.1582
29169W        W45643  10.271  12.212  12.613  0.1028  0.0217 -0.2211
29170W        W45644  11.008  10.082  12.066  0.1894  0.0455 -0.2561
29171W        W45645   5.007   6.871   1.252  0.1135 -0.0046  0.0851
29172W        W45646  11.613   5.836  14.349 -0.5288  0.3619 -0.1365
29173W        W45647   6.695  16.395  13.285  0.1090 -0.0503 -0.1583
29174W        W45648   9.616   3.905   1.573  0.0708 -0.0908 -0.1203
29175W        W45649  16.538  17.761   0.133 -0.0705 -0.1720  0.0847
29176W        W45650  18.279  10.929   3.735 -0.1830  0.1174 -0.0000
29177W        W45651  10.900  19.078   1.048 -0.1991 -0.0649  0.1513
29178W        W45652  11.871  18.608   2.432 -0.0951 -0.1615 -0.1062
29179W        W45653   9.749  13.144   4.398  0.2819 -0.2841 -0.0498
29180W        W45654  13.633   6.328   2.992 -0.2527 -0.0212 -0.0869
29181W        W45655  11.172   9.341  12.795 -0.1626  0.1504 -0.0354
29182W        W45656  12.543   4.816  13.663 -0.2543  0.0044 -0.3784
29183W        W45657   9.043  12.998   9.499 -0.3335 -0.0587 -0.1854
29184W        W45658   3.818  10.439  14.256 -0.0557 -0.0152 -0.0492
29185W        W45659  18.329   7.048   1.794  0.0113  0.1135 -0.1491
29186W        W45660  16.943  15.043   5.798  0.0784 -0.1515  0.1782
29187W        W45661  15.185  11.117  13.014 -0.3055  0.4587  0.0620
29188W        W45662   7.293  11.511  11.943 -0.2134  0.4296  0.0830
29189W        W45663  17.544  12.880  11.446 -0.1478 -0.3841 -0.0375
29190W        W45664   2.694   0.344  14.465  0.0854 -0.0782  0.1899
29191W        W45665   6.763  10.042   4.751  0.5616 -0.2309  0.0665
29192W        W45666  13.629   5.286   3.243 -0.1288  0.0188  0.1151
29193W        W45667  16.712  14.234  12.930  0.1656 -0.2401  0.1361
29194W        W45668  10.659  13.911   1.544 -0.1141 -0.1186  0.0365
29195W        W45669   9.859   6.577   2.039 -0.0491  0.0957 -0.1531
29196W        W45670   3.132   8.412  14.797 -0.0547 -0.1194  0.3072
29197W        W45671  17.181   1.479   3.709 -0.0393  0.1880 -0.3215
29198W        W45672   7.239  13.041  13.143 -0.1233  0.0420 -0.0304
29199W        W45673  15.195  18.699   2.016 -0.0001 -0.4046 -0.0004
29200W        W45674  12.355   1.600  13.523 -0.1499 -0.1010  0.0202
29201W        W45675   0.163  18.111  13.604 -0.4233 -0.1756  0.0171
29202W        W45676   1.418  19.158   3.991 -0.1091  0.0430 -0.1122
29203W        W45677   6.764   1.044   0.323 -0.3677  0.0759 -0.0437
29204W        W45678   3.108  18.632  11.739 -0.0247  0.0070 -0.0958
29205W        W45679  13.536   6.913  10.810  0.0600 -0.1404 -0.0158
29206W        W45680   6.354  14.099  13.284 -0.0841 -0.1761 -0.0400
29207W        W45681  15.518  19.222   2.816 -0.2370  0.0939 -0.1533
29208W        W45682   3.207   9.517   0.609  0.0427  0.0892  0.3011
29209W        W45683   8.782  11.500   0.541  0.1485  0.0810  0.2661
29210W        W45684   2.604  16.994   4.569 -0.2382 -0.2309 -0.1775
29211W        W45685   2.472   8.953   3.075 -0.0972 -0.1435  0.2650
29212W        W45686  13.837   0.104  14.730  0.2196  0.0542 -0.1653
29213W        W45687   7.456   1.495   1.329  0.1316 -0.0225 -0.1502
29214W        W45688  13.505  11.885  11.283 -0.2643 -0.1442 -0.0698
29215W        W45689   2.253  13.279   4.843  0.0874  0.0302 -0.0926
29216W        W45690   0.650   9.665   4.545  0.0797 -0.4142  0.0513
29217W        W45691   3.482   6.971   3.871  0.0724 -0.1917  0.0315
29218W        W45692   2.820   3.503  11.402  0.3661 -0.1710 -0.2291
29219W        W45693   8.832   7.340   2.896  0.4010 -0.1023 -0.3113
29220W        W45694   1.374   3.285   1.570  0.0796  0.0565 -0.0469
29221W        W45695   1.170  12.662   3.925  0.0390 -0.1441  0.1752
29222W        W45696   6.347   8.303  12.715 -0.1139 -0.1252 -0.1362
29223W        W45697  12.988   0.841  13.564 -0.2900 -0.2208 -0.0859
29224W        W45698   4.756  17.091   1.762 -0.0247 -0.0504  0.2906
29225W        W45699   8.225  10.407   3.835  0.0957 -0.0107 -0.0540
29226W        W45700  16.361  17.370   2.013 -0.2966  0.1231 -0.0433
29227W        W45701   5.134  18.982  12.048  0.2912  0.2651 -0.0048
29228W        W45702   2.661   1.361  10.810  0.0276 -0.0640  0.1776
29229W        W45703   1.872   8.461  12.327 -0.0798 -0.2417  0.0403
29230W        W45704  12.237  12.153   9.787  0.2744 -0.1388 -0.2220
29231W        W45705  13.156  16.247   3.005 -0.2206 -0.3389 -0.0129
29232W        W45706  17.789   1.168   4.325 -0.0195  0.2805 -0.0729
29233W        W45707   7.469   9.450   0.633 -0.3577 -0.1911 -0.1051
29234W        W45708   0.833  12.495   3.491 -0.5115 -0.2020 -0.1464
29235W        W45709   5.913   5.035  10.359 -0.1603 -0.2144  0.1818
29236W        W45710  17.204   9.598  11.236  0.1214  0.2676 -0.1577
29237W        W45711  12.783   0.139  13.329  0.1735 -0.1052  0.0598
29238W        W45712  16.127   5.702   0.199  0.1031 -0.0185 -0.4295
29239W        W45713   4.964  14.387   0.615  0.1052  0.0037 -0.0370
29240W        W45714  14.053   2.303   0.019 -0.0558 -0.0538  0.5512
29241W        W45715  10.996  15.913  11.566 -0.1404  0.0318  0.1066
29242W        W45716  11.490   0.657  12.020 -0.3444 -0.0380 -0.0217
29243W        W45717  15.926  13.006  10.782  0.3393  0.1194 -0.0372
29244W        W45718   9.242   4.067  12.324  0.4028  0.2484  0.2379
29245W        W45719   8.188  17.817  10.048  0.1178 -0.1180  0.2473
29246W        W45720  18.224  17.870   2.210  0.0816 -0.1073 -0.0151
29247W        W45721   9.337  16.000  10.490 -0.2182  0.0228  0.0700
29248W        W45722  12.651   8.875  14.450 -0.0008 -0.4735 -0.2352
29249W        W45723  12.631   4.391  12.387  0.4599  0.0378 -0.1544
29250W        W45724  16.719  15.478  12.638 -0.0135  0.1748 -0.0421
29251W        W45725   2.509   6.947   2.874 -0.2077  0.1570 -0.2394
29252W        W45726   2.128  15.221  11.859  0.2641 -0.1009  0.0028
29253W        W45727   4.969   7.562   3.973 -0.4096 -0.4796 -0.0789
29254W        W45728   0.927  14.528   0.084 -0.4092 -0.3181 -0.2373
29255W        W45729   3.039  14.954   9.689 -0.2797 -0.0886  0.1795
29256W        W45730   1.932   6.252   3.062 -0.0599 -0.2061  0.1507
29257W        W45731  17.429   9.985   9.995  0.0625 -0.4113 -0.1886
29258W        W45732   9.671   4.306   0.527  0.0014 -0.0256 -0.3069
29259W        W45733   1.601  11.238   2.161 -0.2363  0.1513  0.0693
29260W        W45734   3.945   4.088   1.628  0.2504 -0.2140  0.0241
29261W        W45735   7.824   9.826   3.070  0.0363 -0.1572 -0.1222
29262W        W45736  16.015  14.833  12.023  0.3074  0.1140  0.3800
29263W        W45737  12.506  11.160   3.355 -0.0607  0.1960 -0.3632
29264W        W45738  16.721  12.935  10.462  0.0582 -0.1445  0.0066
29265W        W45739  16.902   4.733  12.828 -0.0880 -0.1384 -0.0249
29266W        W45740  12.424  13.522   5.601  0.0343  0.3915 -0.0036
29267W        W45741  12.641  15.697  10.815 -0.2064  0.1394 -0.0970
29268W        W45742   3.688  10.679   2.483 -0.2247  0.0028 -0.2275
29269W        W45743   6.899   0.317  13.509 -0.1230 -0.1138  0.2579
29270W        W45744   1.879   3.197   3.176 -0.1042  0.5408 -0.1514
29271W        W45745   7.138   9.319   3.506  0.6411 -0.1529 -0.0548
29272W        W45746  17.661  19.284  11.001  0.2129  0.0332 -0.2056
29273W        W45747  18.131   9.427  10.124  0.0399 -0.0559  0.0960
29274W        W45748  10.034  18.303  12.748  0.0299  0.2692  0.1243
29275W        W45749  19.249  13.841  14.311 -0.2953 -0.1974 -0.0616
29276W        W45750   3.504   5.594   3.953 -0.0504  0.1470  0.2785
29277W        W45751  17.035   5.483  13.901 -0.3294  0.0069  0.0691
29278W        W45752  13.014  11.773  10.630 -0.1482 -0.0669  0.3196
29279W        W45753   4.729   1.549  10.126  0.1384  0.0025  0.2094
29280W        W45754  11.855   0.115  12.413 -0.0208 -0.0517  0.3507
29281W        W45755   1.863   4.097   1.926  0.1728  0.0865  0.1696
29282W        W45756   9.493   1.779  14.288  0.0632  0.1396 -0.1454
29283W        W45757   3.611  17.986  11.328  0.2700  0.2104 -0.1499
29284W        W45758   9.398  12.358  11.017  0.0397  0.1459 -0.2640
29285W        W45759   4.999   9.080   1.467  0.2822 -0.0012 -0.2262
29286W        W45760  13.888  13.310  11.064  0.1639  0.1376 -0.0060
29287W        W45761  18.047   2.900  11.634 -0.0904  0.1500 -0.0331
29288W        W45762  15.560  13.230   4.977 -0.1682 -0.1239  0.0412
29289W        W45763   0.971  13.654   2.105 -0.0229 -0.3511  0.1614
29290W        W45764  15.058  17.004   4.755 -0.0041 -0.1934  0.2399
29291W        W45765   3.367  15.757  11.008 -0.0083 -0.0468  0.0134
29292W        W45766  15.588   8.170   1.174 -0.2780  0.1178 -0.6878
29293W        W45767   5.680   0.099   3.613 -0.0089  0.0844 -0.0644
29294W        W45768  18.101   9.807   2.021 -0.1181 -0.0886 -0.2154
29295W        W45769  13.839  15.233   3.439  0.0038  0.0121  0.1082
29296W        W45770   5.493   0.410  10.684 -0.2475 -0.0128 -0.2484
29297W        W45771   2.777  17.430  14.026  0.1581  0.3248  0.1069
29298W        W45772   0.815  13.581  14.210 -0.3262  0.3960 -0.0458
29299W        W45773   2.356   8.545  12.015  0.1446 -0.2556  0.4057
29300W        W45774   1.136  18.361  10.734  0.2734 -0.1444  0.1167
29301W        W45775  11.083   4.295   0.963 -0.2239 -0.0859  0.0332
29302W        W45776   8.842  13.160  11.494  0.0674  0.4318 -0.0415
29303W        W45777   5.865   5.215  12.363  0.0722  0.3979 -0.0647
29304W        W45778  10.411  18.358   1.548  0.1843  0.1334  0.0092
29305W        W45779   6.523  16.033  14.290 -0.0814 -0.4652 -0.1597
29306W        W45780  15.398  12.265  12.752  0.1706 -0.2189  0.1262
29307W        W45781  12.963   4.726  10.739  0.2972 -0.0894  0.2491
29308W        W45782  13.019   2.364   4.308 -0.4232 -0.0983 -0.1324
29309W        W45783   4.479  18.954  13.598 -0.1509  0.1490 -0.1391
29310W        W45784   8.537   6.237   2.207  0.0482  0.0248 -0.1582
29311W        W45785   1.198  18.269   0.738 -0.0947 -0.3682 -0.0194
29312W        W45786   1.904  10.316  14.052 -0.1526  0.0413 -0.0025
29313W        W45787   6.111  17.751   1.485  0.0339 -0.4205 -0.0530
29314W        W45788  16.980   2.989   5.214  0.3506  0.1551 -0.1733
29315W        W45789   3.057   2.956   1.917  0.3475 -0.1993  0.0341
29316W        W45790  15.584  10.323   5.669 -0.1796 -0.1123  0.2787
29317W        W45791   0.811   2.582  12.748  0.3226 -0.1267  0.1459
29318W        W45792  13.778  13.826  11.915  0.1503  0.1407  0.3319
29319W        W45793   6.182   1.548   3.676 -0.1284  0.0722  0.3163
29320W        W45794  10.327   7.801  13.933 -0.1279  0.2457 -0.0318
29321W        W45795   3.452   5.167   2.644 -0.1041 -0.0753  0.0306
29322W        W45796   3.188   4.192   3.522  0.1464  0.2191  0.1114
29323W        W45797   9.589   6.343   2.778 -0.1411  0.1371  0.0791
29324W        W45798   2.374  16.528  13.641 -0.0568 -0.1268 -0.2580
29325W        W45799   1.740   3.213  10.995  0.0180 -0.2144  0.1596
29326W        W45800   2.177  18.410   4.230 -0.2522 -0.0884  0.0229
29327W        W45801  18.375   9.486   4.944  0.1840  0.4349  0.0905
29328W        W45802  16.470  17.815  13.470  0.0227  0.2900 -0.1736
29329W        W45803   7.754   4.523  14.327  0.0701 -0.2122 -0.1126
29330W        W45804   8.031  19.323   0.082  0.3760  0.1728 -0.1627
29331W        W45805   4.027   8.604   3.766  0.0300 -0.0918 -0.1923
29332W        W45806   7.957   4.375  11.137 -0.1999  0.1283 -0.2597
29333W        W45807   9.856   1.264  12.561 -0.0959  0.0098  0.1996
29334W        W45808   8.280  11.550   4.095  0.1033  0.0806 -0.1453
29335W        W45809  16.948  10.338  12.718 -0.3271 -0.1815  0.0842
29336W        W45810  16.906  14.921   4.599  0.0617  0.5217 -0.3247
29337W        W45811  10.597   7.568  14.275 -0.3077 -0.1603  0.1067
29338W        W45812  16.711   6.468  11.786 -0.2972 -0.1222  0.0558
29339W        W45813  15.185   6.728   5.008 -0.0216 -0.3120 -0.3324
29340W        W45814  18.362   9.039  14.541 -0.0094 -0.1576 -0.0838
29341W        W45815   0.036  18.116   3.528  0.2398  0.3856  0.1020
29342W        W45816   5.207  12.439  14.268  0.5833 -0.1014 -0.1738
29343W        W45817  10.431   6.292  11.418  0.1653 -0.0358  0.1254
29344W        W45818   8.824   1.606  13.015  0.1638  0.1275 -0.1211
29345W        W45819   5.758  10.037  13.071 -0.0688  0.1436 -0.0078
29346W        W45820  16.039  12.196   3.962  0.0589  0.1012 -0.3361
29347W        W45821  14.788   1.120  11.490  0.0509 -0.0230 -0.1194
29348W        W45822  16.072   0.072   3.556 -0.0387 -0.0578 -0.1235
29349W        W45823   3.250   5.439  11.918  0.4885 -0.4110 -0.0808
29350W        W45824  17.528   8.698  12.697 -0.2066  0.0375  0.1879
29351W        W45825   5.565   2.584   5.170  0.2412 -0.0719  0.2272
29352W        W45826   6.292   0.192   8.727  0.1002  0.2536  0.2806
29353W        W45827  18.605  11.434   2.447  0.2010  0.2053 -0.0044
29354W        W45828  18.087  12.596  12.337 -0.3141 -0.0082  0.1564
29355W        W45829   8.498  12.955   4.015  0.2400 -0.3043  0.0838
29356W        W45830  16.318  19.266   0.401 -0.0031 -0.3495 -0.1440
29357W        W45831  12.718   8.411  12.361  0.0176 -0.0400  0.3525
29358W        W45832  12.335  16.897   2.710 -0.0095  0.1826 -0.1232
29359W        W45833   3.349  15.302   1.807  0.3339 -0.0263 -0.3018
29360W        W45834  15.649  11.252  12.995 -0.1117  0.1356 -0.0742
29361W        W45835  18.134   8.320  14.197 -0.3105  0.0721  0.0508
29362W        W45836  17.781  16.386   0.113 -0.1405 -0.0389 -0.0309
29363W        W45837  11.730   0.474  13.653  0.1578  0.4528  0.2148
29364W        W45838  16.149   3.270  11.915 -0.3169 -0.1002  0.0296
29365W        W45839  15.476   1.835   1.715  0.3652  0.1857 -0.0318
29366W        W45840   0.025   0.723  13.804  0.2446  0.0976  0.2514
29367W        W45841  15.352   4.369   4.061 -0.3244  0.1185 -0.1867
29368W        W45842   5.979  18.130   4.016 -0.1525  0.0348 -0.0294
29369W        W45843   6.490  14.747   0.712  0.1392  0.0354  0.2494
29370W        W45844  10.333   0.238  11.957  0.1304 -0.1151  0.0344
29371W        W45845  10.874   9.272   0.582 -0.0861 -0.1498  0.2110
29372W        W45846   1.204  12.818   3.484 -0.1580  0.1506 -0.0988
29373W        W45847   2.317  19.361  13.896  0.0840  0.0806  0.2502
29374W        W45848   1.429   0.118  12.790  0.0406  0.1457  0.6904
29375W        W45849   2.703   7.467   0.181  0.1880 -0.2468 -0.0649
29376W        W45850   5.979  16.510   4.789  0.1213 -0.1711  0.1824
29377W        W45851  15.536   6.496   0.858 -0.0646 -0.1244  0.0976
29378W        W45852  12.906  12.786  14.853  0.0390 -0.2913 -0.1400
29379W        W45853   2.264  10.679   5.181 -0.0240 -0.0330  0.0495
29380W        W45854  11.544  10.015   0.929  0.0211  0.0416  0.0295
29381W        W45855   2.848  17.882  13.689 -0.0323  0.1752  0.0371
29382W        W45856  16.506  16.268   3.730 -0.0761 -0.0493 -0.3680
29383W        W45857   7.159   9.099   1.397 -0.2050 -0.0551  0.0165
29384W        W45858  12.801  19.118   2.267  0.1036 -0.1393  0.0933
29385W        W45859   7.610   2.656   2.806  0.1613  0.1021 -0.0588
29386W        W45860   5.585   0.287  12.678  0.4996 -0.2204  0.3061
29387W        W45861  14.751  19.014   4.411 -0.2527  0.1217  0.2115
29388W        W45862   4.304  16.442   5.364  0.2473  0.2578  0.4388
29389W        W45863  11.405   8.955  11.108 -0.0145 -0.2231  0.2822
29390W        W45864  13.321  11.455  14.186  0.3245 -0.0428  0.1395
29391W        W45865  17.549  18.472   1.209 -0.0595 -0.1429 -0.1241
29392W        W45866   6.555   9.502   0.022 -0.0453 -0.0923 -0.0160
29393W        W45867  10.803  11.086   2.150  0.1470 -0.0884  0.1302
29394W        W45868   6.009   0.266  12.902  0.1908  0.1799 -0.0721
29395W        W45869   5.172   2.177  12.402 -0.1716  0.3113  0.1002
29396W        W45870  17.490  10.105  12.638  0.2814  0.1208 -0.1955
29397W        W45871   9.083  10.977  11.720  0.0053 -0.0723 -0.1498
29398W        W45872   4.329  18.886  10.426  0.1044  0.0384 -0.1516
29399W        W45873  19.130  12.527   1.305  0.2361  0.0556  0.1978
29400W        W45874  15.340  17.942   1.100 -0.1897 -0.0068 -0.0772
29401W        W45875   9.631  11.695  12.368  0.0429 -0.0196  0.1058
29402W        W45876  19.048   8.753   5.986  0.1109 -0.2290  0.4294
29403W        W45877  11.034   6.714  12.715 -0.4052  0.1621  0.1796
29404W        W45878   1.612   4.407  11.828  0.2334  0.1671 -0.4471
29405W        W45879  14.572  16.986   4.579 -0.0374  0.0307  0.1317
29406W        W45880  11.462   1.727   4.664 -0.0500  0.0389 -0.5485
29407W        W45881   0.279  11.379  14.407 -0.2432  0.2327 -0.0879
29408W        W45882  10.239  15.958   2.776  0.0422 -0.2780  0.0300
29409W        W45883   0.370   4.724  12.249  0.0639  0.0605 -0.0891
29410W        W45884  10.094   8.201   3.209 -0.1782  0.0261  0.1431
29411W        W45885  17.323  17.005   1.746 -0.2246  0.1410 -0.1286
29412W        W45886  16.496  18.548  11.249 -0.2980  0.0839 -0.1831
29413W        W45887   4.911   1.965   3.714  0.2187  0.1585 -0.1795
29414W        W45888  14.014   6.935  11.748 -0.2235  0.3346 -0.0668
29415W        W45889  16.819   0.020   0.591  0.0134  0.1036  0.0373
29416W        W45890   9.015   8.740   3.265 -0.0906  0.2988 -0.2140
29417W        W45891  17.547   2.703   2.453 -0.2434  0.2589 -0.1028
29418W        W45892  14.774  15.854   3.269  0.1239 -0.2609  0.0956
29419W        W45893   5.635   0.814   2.651  0.3281  0.0675 -0.1538
29420W        W45894  11.717   0.425   2.836  0.1964 -0.0713  0.1168
29421W        W45895  17.353   5.556  12.758  0.0653  0.2587 -0.1960
29422W        W45896   8.768   1.344  10.064  0.2416  0.3936 -0.2782
29423W        W45897  12.807   0.967   4.852 -0.0178  0.1406  0.2021
29424W        W45898   4.026   6.922  12.092 -0.0483  0.2035 -0.3599
29425W        W45899  16.573  15.510   1.475  0.2100  0.1527 -0.1617
29426W        W45900   8.708  10.826   2.856 -0.2027  0.1711  0.0161
29427W        W45901  10.348  11.670  14.467  0.3309  0.1644 -0.0042
29428W        W45902   4.152   9.559  12.218 -0.3489  0.2700 -0.1443
29429W        W45903   9.886   9.980  12.380 -0.1289  0.2997 -0.4480
29430W        W45904  14.688  18.567   5.143 -0.0960  0.1989  0.0618
29431W        W45905   5.186  19.220  14.358 -0.0200  0.0864  0.0931
29432W        W45906   4.165   2.383   9.028 -0.0975  0.0339 -0.0090
29433W        W45907  17.177  15.280  14.319 -0.0268 -0.0165  0.1420
29434W        W45908   2.279   2.526  14.543 -0.0913 -0.0545  0.3112
29435W        W45909   4.089  10.073   1.710  0.1654 -0.1474 -0.0925
29436W        W45910   2.655  11.279  11.586  0.1047  0.4101 -0.1121
29437W        W45911   7.242  14.949   0.211 -0.1001 -0.1997 -0.1415
29438W        W45912   0.057   9.892   1.629  0.0104  0.2467  0.1163
29439W        W45913   0.462   8.504   3.108 -0.0918 -0.2881 -0.1364
29440W        W45914  18.944   0.547  12.229  0.1123  0.0436 -0.1243
29441W        W45915  10.201  16.326  14.558 -0.0495  0.2889  0.3914
29442W        W45916  17.758   5.449   4.420 -0.3970 -0.1901 -0.0496
29443W        W45917   3.170  16.599  13.259 -0.0026  0.3406  0.0301
29444W        W45918   3.510  14.923   3.374 -0.0330  0.1336  0.2177
29445W        W45919  14.499   6.834   0.315  0.0830  0.1770 -0.0740
29446W        W45920  12.771   6.516  13.566  0.0264  0.3855 -0.1049
29447W        W45921   4.211   7.589  14.600 -0.0988  0.1480 -0.0694
29448W        W45922   8.881   5.383   1.828 -0.1093 -0.2362 -0.0331
29449W        W45923  10.481   2.972   0.687 -0.0258  0.1409 -0.3727
29450W        W45924   0.053  18.261   3.992 -0.2423  0.1479  0.0200
29451W        W45925   9.193  16.243   4.157  0.1779  0.1925  0.3001
29452W        W45926  11.681  15.321   0.695 -0.0170  0.2798 -0.2284
29453W        W45927   6.422  10.407   0.179  0.0617 -0.1256 -0.2007
29454W        W45928   9.704  13.702  11.368  0.0186 -0.1821  0.1002
29455W        W45929   1.924   9.999  13.584 -0.0235  0.1807  0.0092
29456W        W45930   4.526  10.210   3.913  0.1349  0.0316 -0.1032
29457W        W45931   0.024   1.057   0.120  0.1175  0.3578 -0.0898
29458W        W45932   3.258  16.878   3.993 -0.1383  0.0166  0.2750
29459W        W45933  11.808   9.267  11.197  0.2585  0.1332  0.1395
29460W        W45934  14.955   8.014  14.742  0.0342  0.0596 -0.0492
29461W        W45935  12.830   3.559  13.732  0.1067 -0.0720 -0.1401
29462W        W45936   9.408   8.766   1.269 -0.1434 -0.2892 -0.1612
29463W        W45937  10.209  16.544   0.755 -0.2312 -0.2956 -0.1823
29464W        W45938   9.717   3.808  11.740 -0.1125 -0.3887  0.0398
29465W        W45939   5.225  17.594  12.041 -0.1479 -0.0406 -0.0537
29466W        W45940   5.601   1.713  11.895  0.0823  0.0960 -0.0858
29467W        W45941  15.622   0.739  11.953  0.3170 -0.1297  0.3795
29468W        W45942   3.008   9.181   3.305 -0.2745  0.1659 -0.0499
29469W        W45943  18.200   1.708   3.142  0.1255  0.0480  0.1293
29470W        W45944   6.599   6.702   0.310 -0.5040  0.0923  0.2909
29471W        W45945  12.315  10.026   2.390  0.2549  0.0439 -0.0362
29472W        W45946  17.233   9.323  10.860  0.1367  0.2172 -0.0818
29473W        W45947  14.524   1.899   2.300  0.2179  0.4453  0.0775
29474W        W45948  13.497   2.019  12.932  0.0198 -0.1062 -0.2246
29475W        W45949   1.307   3.357  13.838 -0.1885 -0.0517 -0.1718
29476W        W45950  13.578  16.341  14.636 -0.0099 -0.0569  0.1651
29477W        W45951  11.795  11.382   5.020 -0.2176 -0.1169 -0.1043
29478W        W45952  11.437  11.617   4.076  0.0869  0.1733  0.1582
29479W        W45953  18.470   3.391  11.736 -0.2936 -0.0160  0.2339
29480W        W45954  17.267   8.401  11.598  0.2921  0.0223 -0.0092
29481W        W45955   7.782  12.600  12.435 -0.0241  0.2113  0.0070
29482W        W45956   8.971   8.831   3.776  0.4421  0.0408 -0.0406
29483W        W45957   5.681   8.055   4.239  0.1435 -0.2146 -0.1294
29484W        W45958   7.296   6.431   4.149  0.2375 -0.0417 -0.0417
29485W        W45959   0.675  10.357  12.411  0.0527 -0.0220 -0.1569
29486W        W45960   0.787  11.524   0.709 -0.0566  0.1939  0.2188
29487W        W45961  11.297  16.845   1.613 -0.0017 -0.1421 -0.0855
29488W        W45962  16.246   6.961   3.640  0.1042  0.1468 -0.1053
29489W        W45963  11.923   9.840   2.608  0.2613  0.1711 -0.0095
29490W        W45964   3.085  12.495   3.155  0.1447 -0.2783  0.3969
29491W        W45965   3.016  13.652  13.605  0.1386 -0.0732  0.2568
29492W        W45966   3.894  19.131  14.447 -0.0041  0.0070  0.2920
29493W        W45967   1.926  11.723   1.404  0.0551  0.1192  0.0574
29494W        W45968   2.826  11.267  13.928  0.2588  0.2372 -0.3049
29495W        W45969   0.113   7.757   2.735  0.0207 -0.2169  0.0907
29496W        W45970  12.714  14.500   0.135  0.4730  0.0094  0.0898
29497W        W45971   9.035  15.925   3.660  0.3385  0.2624  0.2209
29498W        W45972  17.465  10.084   3.996 -0.1454 -0.0095  0.0881
29499W        W45973   1.441   9.325   2.458  0.2594  0.3818 -0.3880
29500W        W45974  10.582  18.173   3.324  0.0678  0.0382  0.1161
29501W        W45975   8.802   4.778   9.826 -0.1792  0.1751 -0.3188
29502W        W45976   5.379   4.740   4.214 -0.0732  0.0775  0.2477
29503W        W45977   6.591  11.965   3.731 -0.3926  0.1289  0.1387
29504W        W45978   4.055   3.473  13.990 -0.2398  0.3621 -0.0575
29505W        W45979  12.518  17.647  13.463  0.0622  0.1304 -0.1332
29506W        W45980   8.691   1.731  12.135 -0.4807 -0.3389  0.1851
29507W        W45981  10.290  17.462   0.212 -0.1422  0.3083 -0.0945
29508W        W45982  16.380  13.081  10.772  0.2481  0.3458  0.1063
29509W        W45983  19.009   0.353   0.745 -0.1681  0.0021 -0.2689
29510W        W45984  17.826   4.808  11.283  0.3207  0.0949 -0.0714
29511W        W45985   6.418  16.573   5.204  0.0236  0.2073 -0.1788
29512W        W45986   7.595   2.511   1.786  0.1808 -0.0724 -0.3817
29513W        W45987  11.650  16.162  12.250 -0.2448 -0.2877  0.0336
29514W        W45988   3.232   0.752   0.281 -0.2133  0.0388  0.0193
29515W        W45989  14.122  12.938  10.530 -0.2472  0.0768 -0.1620
29516W        W45990   5.360  15.820  10.510  0.2256 -0.1939  0.2192
29517W        W45991   3.979  13.179   4.089 -0.2304  0.2146 -0.0377
29518W        W45992  17.206  13.227   5.893  0.0847 -0.2515 -0.1271
29519W        W45993  13.940  17.619  11.559 -0.0646 -0.0590  0.0201
29520W        W45994  12.798   5.462  14.275  0.0332  0.2319 -0.4764
29521W        W45995   4.119   6.148  10.586  0.1075  0.0437 -0.0166
29522W        W45996   2.582   9.922  13.916  0.2049  0.0929  0.0955
29523W        W45997   7.379  10.892   2.440 -0.0429  0.1314 -0.3579
29524W        W45998   5.201  11.241  11.543  0.0855  0.1704  0.0435
29525W        W45999   5.812   4.792   9.251 -0.3677 -0.5287  0.0751
29526W        W46000  19.141  12.353   2.580 -0.0728 -0.0578 -0.0194
29527W        W46001  13.773   4.827  12.749  0.2323 -0.1134  0.0218
29528W        W46002   3.826   3.304   9.986  0.1785 -0.1457  0.1404
29529W        W46003   6.945   3.022   2.855  0.0800  0.1042  0.0934
29530W        W46004   1.675   2.688   1.373 -0.1522  0.1166 -0.1998
29531W        W46005  18.783   3.774   3.233  0.3451 -0.1136  0.1585
29532W        W46006   2.800  18.012   4.005 -0.2917 -0.1023 -0.2828
29533W        W46007  19.059   1.721  12.380  0.2041 -0.3539 -0.0368
29534W        W46008   4.815   5.483   3.230  0.0163  0.1435 -0.1050
29535W        W46009   4.784  11.402   1.219  0.0435  0.1100 -0.1679
29536W        W46010  13.931  12.489  10.755 -0.1736 -0.1783  0.1861
29537W        W46011   4.631  13.863  12.084  0.0576 -0.3648 -0.3805
29538W        W46012   2.436   2.098  12.318  0.0780 -0.0094  0.0906
29539W        W46013   5.297  19.270  12.585  0.1081  0.1720  0.5521
29540W        W46014  13.138   4.266  14.679  0.2156  0.1504  0.0747
29541W        W46015  15.285  17.560   2.064 -0.0725  0.1218 -0.4102
29542W        W46016  18.434   6.092  12.757 -0.0783 -0.0322 -0.1174
29543W        W46017  17.643   4.782   1.147 -0.2338 -0.0855  0.1304
29544W        W46018  10.776   1.836   0.993  0.0570  0.0766 -0.2102
29545W        W46019  18.734   7.156  14.557  0.2499 -0.0004  0.0475
29546W        W46020  11.258   8.147  13.909 -0.3913  0.2299 -0.1036
29547W        W46021  17.923   0.390   4.590  0.3236 -0.0679 -0.2213
29548W        W46022  16.790   8.168   0.652  0.0021 -0.1505 -0.1280
29549W        W46023  16.170  19.197  12.694 -0.0986 -0.0448  0.0099
29550W        W46024   9.632   8.131  11.895 -0.1416  0.2033 -0.0807
29551W        W46025   8.154  10.475  10.403 -0.0210 -0.0592  0.0688
29552W        W46026  17.782   9.116   1.288  0.1532  0.1520  0.0654
29553W        W46027   0.876   8.589   3.595  0.1057 -0.0953 -0.0003
29554W        W46028  18.387  15.914   3.359  0.2614 -0.0939 -0.1874
29555W        W46029  13.745   7.829   0.604 -0.1767 -0.3194  0.1613
29556W        W46030  11.045   2.368   4.957 -0.0204 -0.0303  0.1358
29557W        W46031  11.445  12.823   0.511 -0.1377 -0.0632 -0.1664
29558W        W46032   1.642  15.137   3.850 -0.0118 -0.3543  0.1663
29559W        W46033  13.153   9.776   1.895 -0.0617 -0.1083  0.2115
29560W        W46034   0.223  12.145   1.757 -0.1053 -0.1558 -0.0020
29561W        W46035  14.653   2.370   4.096 -0.1345 -0.0199 -0.0547
29562W        W46036  10.619   0.944  11.204 -0.0516  0.0196  0.1268
29563W        W46037   5.539  15.597   0.305  0.0735  0.1047 -0.1255
29564W        W46038   0.184   0.519  11.038  0.0197 -0.0927 -0.1521
29565W        W46039   7.429  13.308  11.938  0.1140  0.1869 -0.2654
29566W        W46040  10.160  17.402  11.279 -0.1679 -0.0166  0.0119
29567W        W46041  15.254  16.539  14.758 -0.1367 -0.0444 -0.3049
29568W        W46042   1.262   7.528   4.830  0.0277  0.1016  0.1393
29569W        W46043  15.789   6.932   0.789  0.1456  0.0143 -0.0664
29570W        W46044  16.348   6.822   1.440 -0.1906  0.2859 -0.0976
29571W        W46045   3.826   5.989   9.894  0.1956  0.3012  0.2209
29572W        W46046  19.091   3.205   2.092  0.0359  0.2178  0.1734
29573W        W46047   9.852   9.149  11.179  0.0276 -0.0534 -0.0839
29574W        W46048  16.386  18.372  13.136  0.0763  0.2335  0.1573
29575W        W46049   7.819   0.230   3.946  0.0141  0.0258 -0.0211
29576W        W46050  17.142   8.146   1.974  0.2131 -0.0495 -0.0688
29577W        W46051  14.148   8.056   0.932  0.0612 -0.0232  0.0238
29578W        W46052   2.817  11.575  10.110 -0.0610  0.0747 -0.1840
29579W        W46053  13.052   5.189  11.994 -0.0300  0.2681 -0.0864
29580W        W46054  14.580  12.744   2.365  0.2517 -0.2930 -0.0450
29581W        W46055   8.642  11.670  12.127  0.0720 -0.1725 -0.0974
29582W        W46056  18.949   7.178   9.767 -0.1290  0.1649 -0.2369
29583W        W46057  17.974   6.029   5.702 -0.4929  0.0202 -0.2444
29584W        W46058  19.273   7.358  14.604 -0.5199 -0.1001 -0.0485
29585W        W46059   8.520   2.943   8.241 -0.1806 -0.1828 -0.3413
29586W        W46060  13.794   7.718  11.386  0.2274  0.2083  0.1360
29587W        W46061   9.041  17.963  14.218  0.0708 -0.2378  0.2446
29588W        W46062  15.861   2.279  13.602 -0.1068 -0.2034  0.0842
29589W        W46063   2.815   3.673  11.911 -0.0896  0.3496 -0.0914
29590W        W46064  16.237  15.737  13.144 -0.1619 -0.4008  0.0532
29591W        W46065   2.218   9.579  11.094  0.0352  0.0996  0.1854
29592W        W46066  18.138  11.894   0.342 -0.0126 -0.0834 -0.0231
29593W        W46067  17.415   9.350   5.721  0.1989 -0.0048 -0.4051
29594W        W46068   0.168  17.131   0.076  0.2258 -0.1399  0.0719
29595W        W46069   6.276  11.416  14.463 -0.2474 -0.1183  0.0542
29596W        W46070   9.934  15.664   1.909  0.1834  0.0356  0.0636
29597W        W46071   1.882   8.055   4.255 -0.1895  0.4468  0.0870
29598W        W46072  12.635  12.277  14.278 -0.0258 -0.0786  0.0538
29599W        W46073   1.646   8.599  14.052  0.2116  0.3771  0.2556
29600W        W46074   1.892   0.708   5.456 -0.2789 -0.1638  0.0333
29601W        W46075   9.532  13.556   3.439 -0.1093  0.1124  0.1203
29602W        W46076   3.229  10.528   3.381  0.1252  0.0654 -0.2569
29603W        W46077   2.702  15.952  10.635 -0.0281 -0.2388  0.2275
29604W        W46078   6.840   4.060  11.813 -0.0047 -0.2259 -0.1662
29605W        W46079   3.335  15.213   5.863  0.1004  0.0465 -0.4721
29606W        W46080  19.005  12.171  13.209 -0.1011  0.3224  0.1178
29607W        W46081   6.589   0.980   9.688  0.1758  0.0023  0.2052
29608W        W46082   4.708  16.251  13.856  0.0704  0.0713  0.4312
29609W        W46083  18.540  10.972   0.063  0.5348 -0.0392  0.0308
29610W        W46084   0.417  16.556   4.148  0.0999  0.2301  0.0909
29611W        W46085  14.189  17.868   4.806  0.1218 -0.1940 -0.3539
29612W        W46086   6.153   7.126   2.816  0.3547 -0.1649  0.0649
29613W        W46087   6.004   7.069   9.984 -0.0640  0.1183 -0.2339
29614W        W46088  17.187  14.146   3.371 -0.0664  0.0868 -0.0323
29615W        W46089   9.831  10.410  14.443  0.1424  0.1233  0.1254
29616W        W46090  16.481  16.077   5.053  0.0726  0.5319  0.1441
29617W        W46091  16.663  18.902   0.498 -0.5492  0.1878 -0.0526
29618W        W46092   4.500  16.710   4.215 -0.1071 -0.0690  0.0397
29619W        W46093  17.803  14.372  12.763  0.0338  0.2238 -0.0165
29620W        W46094  15.150  11.147  11.525 -0.0559  0.1939  0.0712
29621W        W46095  13.029   4.143   4.101  0.1773  0.0890 -0.0799
29622W        W46096  18.395  12.037  11.259  0.2426 -0.1006 -0.0805
29623W        W46097  18.966   2.708   1.334 -0.1588  0.0600 -0.2017
29624W        W46098  15.321   4.928  14.529  0.1159 -0.0937  0.1147
29625W        W46099  12.669   7.823  12.306 -0.0092  0.3209 -0.1828
29626W        W46100  16.220   8.256  12.084  0.3369  0.0902 -0.0048
29627W        W46101   1.177   0.256   4.758  0.0136  0.1773 -0.1567
29628W        W46102  15.080  14.509   3.291 -0.1396  0.1122 -0.1760
29629W        W46103  10.574  17.093  11.038 -0.0929  0.1344 -0.1416
29630W        W46104  18.454  18.262   3.839  0.2195  0.0099 -0.0031
29631W        W46105  13.290   0.799  12.067  0.1574 -0.0894 -0.0754
29632W        W46106   3.671   4.395  13.478  0.1452 -0.1147  0.0106
29633W        W46107  17.582   7.762   0.119  0.0168  0.1101 -0.4201
29634W        W46108  16.455   0.136  12.988 -0.0162 -0.1294 -0.0530
29635W        W46109  16.926   5.266   3.101 -0.0283  0.1787 -0.0121
29636W        W46110  17.952  16.729  10.975 -0.1309  0.2280  0.0025
29637W        W46111   7.490  16.016   3.328  0.0681 -0.0762 -0.1967
29638W        W46112  12.391   2.595   2.020  0.1349  0.0458  0.1594
29639W        W46113  11.713   7.828  13.568 -0.1925  0.0795 -0.1302
29640W        W46114  17.675  15.983  14.664  0.0127  0.2666 -0.0382
29641W        W46115   8.346   3.450   3.733  0.0035 -0.1926  0.0108
29642W        W46116  15.878   4.266   3.896  0.1121  0.0019 -0.0068
29643W        W46117  18.452   9.541  13.586 -0.0774  0.2312  0.1205
29644W        W46118   7.125  11.340   0.693 -0.3478 -0.1881  0.2829
29645W        W46119  13.789  18.927  12.638 -0.0114  0.0756  0.2349
29646W        W46120   3.364  15.949   2.517 -0.1401  0.0048 -0.0892
29647W        W46121   8.180   0.345  10.238  0.0292 -0.0105  0.0599
29648W        W46122   7.293   5.930  13.126 -0.1026 -0.0244  0.0953
29649W        W46123  15.559  10.959   1.205 -0.1438  0.1150 -0.2799
29650W        W46124  14.204  12.704   3.697 -0.1115 -0.1284 -0.1299
29651W        W46125   4.996   6.561  10.218 -0.1191 -0.0674 -0.0969
29652W        W46126  11.560   5.960   0.074 -0.0728 -0.2115 -0.0327
29653W        W46127  15.527   4.893   4.526  0.0162  0.3733  0.1396
29654W        W46128   4.848   5.733   0.554 -0.0542 -0.1586  0.3362
29655W        W46129   5.741  18.256   0.054  0.0860 -0.5321 -0.1182
29656W        W46130   8.865   8.033  10.764  0.4238  0.1690 -0.1648
29657W        W46131  17.161   5.653   1.410 -0.0720 -0.0143  0.2603
29658W        W46132   5.634   3.216  11.892 -0.1340  0.3139  0.1184
29659W        W46133   0.173   2.251  13.012  0.0253  0.0853 -0.2147
29660W        W46134  18.533   9.972   1.736 -0.0037 -0.0447  0.1517
29661W        W46135  11.043   2.423   0.299 -0.1652  0.1742 -0.1385
29662W        W46136  10.333  10.087  12.165 -0.2452  0.3208 -0.0004
29663W        W46137  13.049  19.071  14.804  0.0096 -0.0462  0.1570
29664W        W46138  14.005  19.323   3.875  0.0480 -0.0036 -0.1766
29665W        W46139  13.106   7.802   1.981 -0.0730 -0.1824 -0.0267
29666W        W46140  14.336  10.061   1.361 -0.3179  0.0739 -0.2332
29667W        W46141   1.892  18.629  12.488 -0.1034  0.1519  0.2222
29668W        W46142   6.582  15.877   3.621 -0.1470 -0.0728 -0.4351
29669W        W46143  14.245  16.045   3.208 -0.1117  0.2760  0.0998
29670W        W46144   1.352  17.904   3.925  0.1243  0.0833 -0.1432
29671W        W46145   9.745  12.024  12.718 -0.1360 -0.2505 -0.0939
29672W        W46146  13.938   2.528  10.231  0.0347 -0.0207 -0.2005
29673W        W46147   5.279   9.102  14.749 -0.1510 -0.0803 -0.1904
29674W        W46148   9.659   2.588  11.398  0.1027 -0.1066  0.2603
29675W        W46149   4.037  14.604   1.310  0.0865 -0.2167  0.1791
29676W        W46150  16.210  16.536   4.933  0.2278 -0.6033 -0.2480
29677W        W46151   5.964   2.167  10.557 -0.2691  0.3765  0.2810
29678W        W46152   1.180   8.196   1.748 -0.1441 -0.0721  0.1411
29679W        W46153   2.618   8.885  13.228  0.0269  0.1522  0.5150
29680W        W46154   8.926   0.897   2.008  0.0205 -0.0015  0.1646
29681W        W46155   5.602   3.014  13.773  0.1018 -0.1816  0.1700
29682W        W46156   0.469   2.886  13.558 -0.2264 -0.1301  0.3768
29683W        W46157   6.021  14.875   0.490  0.1356 -0.0365 -0.0107
29684W        W46158   7.321  16.242   1.165  0.1304  0.1696  0.0891
29685W        W46159  11.890  16.067  11.787 -0.0209  0.2031  0.0161
29686W        W46160   6.375  14.795  10.530  0.3385 -0.3201  0.0337
29687W        W46161   9.886   4.692  13.450 -0.2616  0.1742 -0.1785
29688W        W46162  15.825  11.402   2.618  0.1177  0.0579  0.0300
29689W        W46163  16.153  19.188  11.727  0.0279 -0.1310  0.0334
29690W        W46164  10.261  15.100   4.111 -0.0923 -0.0158  0.0956
29691W        W46165   9.061   0.220  13.266  0.0239  0.0843 -0.0431
29692W        W46166   8.481  11.427   9.405 -0.1016  0.0717  0.1284
29693W        W46167  11.267  13.340  14.078 -0.2207 -0.0568 -0.1973
29694W        W46168  19.082   6.792   1.642  0.1317  0.0778 -0.0097
29695W        W46169  17.414   7.263  10.820 -0.1541  0.1708  0.3831
29696W        W46170   5.435  10.000   2.675  0.1077  0.0828 -0.1792
29697W        W46171  19.144   1.503  14.829 -0.2700  0.2439  0.0453
29698W        W46172   7.681  12.501  11.909  0.3212 -0.5389  0.2683
29699W        W46173   2.168  13.468  13.300  0.1377 -0.2129  0.1288
29700W        W46174  13.616   6.754  13.680  0.0170  0.2316  0.0288
29701W        W46175  12.382  13.681  13.455  0.0866 -0.1192 -0.0646
29702W        W46176   3.725  16.781   0.048  0.1164  0.2790 -0.2095
29703W        W46177  10.550   5.680   0.739  0.0127 -0.0543 -0.0121
29704W        W46178   8.819   9.298  14.567  0.2509 -0.1825  0.0719
29705W        W46179   1.838   0.795  10.603 -0.1628  0.0310 -0.0916
29706W        W46180   4.219  16.996   2.985  0.2129  0.3364 -0.0443
29707W        W46181  16.480  15.143   4.482 -0.1446  0.2709 -0.0671
29708W        W46182  18.343   1.788   3.584 -0.1312  0.2061  0.2894
29709W        W46183  17.861   9.680   4.894 -0.2529  0.2187  0.0501
29710W        W46184   4.832   2.001  14.658 -0.6677  0.1640  0.0353
29711W        W46185   5.164  10.159  13.588 -0.0364 -0.1516  0.1553
29712W        W46186   3.634  11.622   0.256 -0.4418  0.0397  0.1091
29713W        W46187  10.266   2.504  14.518  0.2810 -0.1760 -0.0899
29714W        W46188  16.065  15.483   3.851 -0.0641 -0.1257 -0.3842
29715W        W46189  13.774   7.568  10.036  0.1889  0.0383 -0.2784
29716W        W46190   0.657  19.081   5.162  0.4138  0.1084  0.1215
29717W        W46191   7.893   8.829  14.753 -0.0722 -0.1055  0.0267
29718W        W46192  12.560  15.265  11.786  0.2166 -0.0255  0.0609
29719W        W46193   4.840  10.584   3.038 -0.0046  0.1410  0.0903
29720W        W46194  12.083   9.395  11.616  0.1697  0.0625  0.0170
29721W        W46195  18.604  18.722   2.405  0.0796  0.3067  0.0541
29722W        W46196   9.809  18.357  10.030 -0.1027 -0.1853  0.1405
29723W        W46197   4.164  11.287   3.175  0.0138 -0.0410  0.3238
29724W        W46198   6.788  10.564   4.752  0.2912  0.0123  0.0690
29725W        W46199  17.194   9.111   2.064  0.3007 -0.1516  0.2108
29726W        W46200  17.463  12.191  12.846 -0.0943 -0.2222 -0.1545
29727W        W46201  14.720  18.841  12.842  0.3943  0.1373 -0.0224
29728W        W46202  17.248  11.408   4.453  0.2786  0.1685 -0.1476
29729W        W46203   0.450  10.374   3.421 -0.1587 -0.0399 -0.1148
29730W        W46204  10.997   9.648  11.414 -0.0221  0.4150 -0.0702
29731W        W46205  13.400  16.011  13.010 -0.4108  0.1757  0.2823
29732W        W46206   4.042   0.862  10.310 -0.0540  0.0993 -0.2492
29733W        W46207   9.351   6.108   0.099  0.2432  0.0235 -0.1003
29734W        W46208   8.265   0.796   1.459 -0.1849 -0.0845  0.2252
29735W        W46209  18.039   2.334   5.302  0.0598 -0.1148  0.1425
29736W        W46210  17.381   6.593   3.477  0.0579  0.4071 -0.2083
29737W        W46211  17.438   4.449   2.381 -0.0580 -0.2020 -0.1554
29738W        W46212   2.601   9.632   2.396 -0.0199  0.2283  0.1665
29739W        W46213  12.924   8.425   1.729  0.1900 -0.1304 -0.0604
29740W        W46214   2.278  17.385   3.679  0.1913  0.0975  0.0487
29741W        W46215  14.761   0.056   3.373  0.0216  0.1170  0.0230
29742W        W46216   7.292   9.440  12.396 -0.2408  0.1643 -0.0046
29743W        W46217   6.598   3.832   4.509 -0.0781 -0.2661 -0.0426
29744W        W46218   9.622  13.152  14.791  0.2879  0.1114  0.1251
29745W        W46219  10.534  11.009   5.012  0.0976  0.0184 -0.2507
29746W        W46220  15.763   6.480  12.512 -0.1674  0.1037  0.1995
29747W        W46221   7.259  15.042   2.188 -0.0124  0.2219 -0.0873
29748W        W46222   6.966  13.523  13.939  0.3903  0.0003 -0.0545
29749W        W46223  13.106  12.578   0.923  0.2208 -0.0105  0.3378
29750W        W46224  18.835   6.430  11.360  0.1163  0.0876 -0.1004
29751W        W46225   2.722  10.962   5.686  0.0573  0.4397 -0.0092
29752W        W46226   2.853  16.147  12.345 -0.0142  0.1515  0.2606
29753W        W46227   1.970   8.440   1.231 -0.2550  0.3710  0.1673
29754W        W46228   7.355   3.732   2.569 -0.0027 -0.3725  0.1237
29755W        W46229  17.438  11.674  14.661 -0.0605 -0.3467  0.0207
29756W        W46230   9.449  18.528   3.512 -0.0625 -0.0491 -0.1791
29757W        W46231   2.523  16.329  12.021 -0.1061  0.1920  0.0311
29758W        W46232  12.469   5.447  14.767  0.0770 -0.5560  0.1628
29759W        W46233  18.569  19.112   0.844  0.0715 -0.2274  0.0834
29760W        W46234   6.721  11.420  13.030 -0.0271  0.1166  0.1982
29761W        W46235   2.043  14.538  13.207  0.0661 -0.2984  0.1890
29762W        W46236  19.153  18.730   0.356 -0.1132 -0.0678  0.0605
29763W        W46237   1.506   7.429  13.064 -0.1030 -0.0396  0.2138
29764W        W46238   4.174  10.239   0.447 -0.1716  0.1956 -0.0869
29765W        W46239  17.380   5.015   2.878  0.1521  0.0023  0.2889
29766W        W46240  11.413   3.965  12.729 -0.3318  0.0622  0.4420
29767W        W46241  18.194  14.380  11.844 -0.1628  0.0709  0.3380
29768W        W46242  17.497  13.967  14.537  0.1678 -0.2445 -0.2054
29769W        W46243   6.372   2.252  13.969  0.1800 -0.2539 -0.1256
29770W        W46244   9.255  11.895  11.088 -0.0869  0.0424  0.1053
29771W        W46245  11.318  12.289  11.885 -0.1720 -0.0145  0.0997
29772W        W46246   5.757   9.039  11.668  0.0673  0.1598  0.4160
29773W        W46247   5.416  15.695   0.794 -0.2261  0.4155 -0.1442
29774W        W46248  13.199   3.360  11.410 -0.2456  0.2587  0.2868
29775W        W46249  18.114   2.221   3.388  0.1180 -0.0515  0.0777
29776W        W46250   3.528   1.039  11.951  0.0309  0.3695 -0.0006
29777W        W46251   2.993  18.412   0.895 -0.0981 -0.1945  0.1231
29778W        W46252  13.443  16.639  13.626 -0.0498  0.0599 -0.0617
29779W        W46253   4.098   3.852   4.487  0.2265  0.3391 -0.0185
29780W        W46254  14.164   1.130   1.874 -0.0985 -0.2384 -0.1380
29781W        W46255  19.213  11.400   2.320 -0.1835  0.1145  0.0212
29782W        W46256  16.640  15.914   2.058 -0.1322 -0.0171  0.1225
29783W        W46257   2.464   5.229   1.991 -0.3114  0.4502  0.1092
29784W        W46258   0.878  11.954   0.889 -0.2702  0.1656 -0.1094
29785W        W46259   4.048   6.321  13.356 -0.2763 -0.0223 -0.2385
29786W        W46260  11.519   2.301   0.043 -0.2414  0.2328 -0.1533
29787W        W46261   9.081  17.917   1.808  0.0261  0.1627 -0.1975
29788W        W46262  12.759  14.428   3.543 -0.1776  0.1046  0.0123
29789W        W46263   1.348   9.126  11.048  0.0020  0.0416  0.1486
29790W        W46264   3.440  13.853  10.718  0.0013  0.1876  0.0960
29791W        W46265   2.459  17.893  12.321  0.1785 -0.0851  0.3717
29792W        W46266   2.728  14.191  13.369 -0.1667  0.0900 -0.3655
29793W        W46267  12.202   2.734   4.650 -0.1845 -0.2342 -0.0355
29794W        W46268   7.101  12.642   1.200 -0.0916 -0.1459 -0.1087
29795W        W46269   9.181   5.646   0.538  0.1040 -0.0773  0.0918
29796W        W46270  13.984  16.145   4.630 -0.2569 -0.2584 -0.0840
29797W        W46271   1.829  18.843   2.786  0.2601  0.1547 -0.1389
29798W        W46272   3.683  17.368   2.215  0.1787 -0.0414 -0.4971
29799W        W46273  17.997  12.267  14.285 -0.1491  0.1427 -0.3025
29800W        W46274  11.629   3.520   4.590  0.3073 -0.2950 -0.0890
29801W        W46275  10.804  15.041  12.776  0.1293  0.0954 -0.0649
29802W        W46276   3.840  17.104  12.481  0.1135  0.2497  0.1811
29803W        W46277   1.919   1.350  13.605  0.1836  0.1667 -0.6443
29804W        W46278  12.587  10.392  13.408  0.1990 -0.0300  0.2157
29805W        W46279  17.311   4.803  10.129  0.2016  0.4749 -0.0380
29806W        W46280   8.571  16.871  11.103  0.2301 -0.0058 -0.4254
29807W        W46281  17.768  11.687   1.670 -0.0806  0.1170 -0.0280
29808W        W46282  13.459  16.817  13.127  0.1246 -0.0132 -0.2060
29809W        W46283  17.079   5.243   0.018  0.2665  0.1487 -0.0005
29810W        W46284  15.229  12.334   4.578 -0.1681 -0.2013  0.2562
29811W        W46285  12.703   9.798  13.751  0.3394 -0.1163 -0.1698
29812W        W46286  18.875  18.315   1.500  0.1416  0.0782  0.1943
29813W        W46287  16.106   4.996  13.304 -0.2315  0.1453  0.1723
29814W        W46288  13.372   2.887   4.293  0.0403 -0.0305 -0.1466
29815W        W46289  12.350   0.606  13.975 -0.0138  0.1526 -0.0819
29816W        W46290  18.185  12.975   5.315  0.1339  0.2423  0.1261
29817W        W46291  17.451  18.158   4.648  0.0494  0.2101  0.0826
29818W        W46292   0.792  16.973   5.742  0.0246  0.1156 -0.1697
29819W        W46293  13.096  16.939   3.294  0.3086  0.1988  0.3235
29820W        W46294   6.644  18.403  13.211  0.1579 -0.0672 -0.0189
29821W        W46295  13.103  13.652  13.394  0.1190 -0.3560  0.1778
29822W        W46296  15.183   3.508   2.607 -0.0285 -0.0850 -0.0812
29823W        W46297   7.023   4.658   3.520  0.0150  0.0900  0.1369
29824W        W46298   2.660  16.404   4.206 -0.1737 -0.4022  0.0661
29825W        W46299  11.974  15.766   2.081  0.0540  0.0218  0.0855
29826W        W46300  16.720   0.354   4.986 -0.1100  0.0106 -0.1290
29827W        W46301  13.624   9.314  11.333  0.0384  0.2777  0.3752
29828W        W46302   6.789  18.270   3.241  0.2146  0.1656 -0.1152
29829W        W46303  14.765   7.005  12.046  0.0806  0.0723 -0.0785
29830W        W46304   2.130  10.411  13.444 -0.2692  0.2934  0.4041
29831W        W46305  17.823   4.322   1.005  0.2244 -0.3732  0.1236
29832W        W46306  17.574   6.292  13.907 -0.2140  0.0166 -0.4125
29833W        W46307   4.426  16.477   0.464 -0.0941  0.1133  0.0140
29834W        W46308   4.374   5.711  10.655 -0.0891  0.0948  0.6411
29835W        W46309  13.347  13.083  12.503  0.0593 -0.1819 -0.0091
29836W        W46310  18.283  12.341   3.034 -0.1079  0.1741 -0.1039
29837W        W46311  11.401  12.461   3.627  0.0612  0.1480 -0.2610
29838W        W46312   6.824  11.964  12.286  0.2023  0.0065 -0.0847
29839W        W46313   8.561   6.241   0.802 -0.2359 -0.1038  0.1841
29840W        W46314  13.174   9.704  12.485 -0.0325 -0.1343 -0.3927
29841W        W46315   6.525   5.487  14.395 -0.0978  0.1415 -0.1486
29842W        W46316   0.107  14.672   3.404  0.0519 -0.2862 -0.0624
29843W        W46317  15.393  11.717   0.953 -0.1386 -0.2299 -0.1200
29844W        W46318   7.068   5.555   2.011  0.1115 -0.0799 -0.4448
29845W        W46319  15.238  14.527  10.858  0.4106 -0.1432  0.0664
29846W        W46320  12.281   0.479   4.407 -0.2632  0.3536  0.2467
29847W        W46321  16.782   3.651   0.508  0.1026  0.2762  0.1082
29848W        W46322   0.754   0.170   1.316  0.2863 -0.1295  0.1311
29849W        W46323  10.028  13.627   2.575 -0.0372  0.2832 -0.0416
29850W        W46324  12.038  19.015   2.674 -0.4499  0.0363 -0.1747
29851W        W46325  15.108   0.629  14.647 -0.0024  0.0240 -0.0350
29852W        W46326  12.161   2.651  14.793  0.0418 -0.2344  0.0929
29853W        W46327   8.090   0.853  10.342 -0.0699 -0.0726 -0.1505
29854W        W46328  12.617  18.795  11.154 -0.0401  0.1731 -0.0535
29855W        W46329   3.663  10.959  10.056  0.0403 -0.0721 -0.1475
29856W        W46330  15.320  18.485   1.092  0.2277  0.0079 -0.1070
29857W        W46331  14.308  14.800  13.456  0.0553 -0.1853  0.0364
29858W        W46332  10.106   8.855   0.552  0.1228 -0.1378 -0.2032
29859W        W46333   4.577   4.922   1.470  0.0000 -0.1178  0.2980
29860W        W46334   8.939   2.310   8.894  0.2274  0.1936  0.0581
29861W        W46335  10.930  17.108   2.546 -0.0170  0.1425 -0.2023
29862W        W46336   7.281  18.608  10.205 -0.2998  0.3564 -0.1035
29863W        W46337  12.778   2.980  11.546 -0.2485  0.0949  0.0113
29864W        W46338  15.029   3.638   3.060 -0.0516  0.2609  0.1312
29865W        W46339  18.982   6.807   3.941 -0.2592  0.2072  0.2035
29866W        W46340  17.196   3.069   2.684  0.0169 -0.3145  0.0247
29867W        W46341   5.257   6.038  10.929  0.2906  0.1816 -0.2448
29868W        W46342  11.199  11.625  13.240 -0.0283 -0.1794  0.0505
29869W        W46343  11.928  17.809   3.025 -0.0484 -0.4860  0.2832
29870W        W46344   7.739  16.862  12.977  0.2462  0.2639 -0.0517
29871W        W46345  16.720   7.770  12.119 -0.0406  0.4875  0.2987
29872W        W46346   8.311  10.615   0.558 -0.1832  0.1349  0.0426
29873W        W46347   6.220  17.359  10.524  0.0237 -0.0860  0.0201
29874W        W46348   3.325  10.101   4.589  0.3790 -0.0473  0.0838
29875W        W46349   2.539   9.015  12.734  0.1272 -0.4021  0.1724
29876W        W46350   5.335   2.326   1.888  0.0176 -0.1588  0.1950
29877W        W46351   6.177   7.495  12.072 -0.1096  0.3059 -0.0610
29878W        W46352   2.276   9.655   0.905 -0.1028 -0.0397 -0.2266
29879W        W46353   9.330   5.331   2.828 -0.1155 -0.1439 -0.0914
29880W        W46354   3.476   4.932   1.694  0.1071 -0.1965 -0.3848
29881W        W46355  12.170   0.244  13.409  0.1693 -0.0633 -0.4007
29882W        W46356   2.398  11.585   3.938 -0.1530  0.0922  0.0956
29883W        W46357  16.965  14.818  12.219 -0.0376 -0.1555  0.0229
29884W        W46358  11.231  13.175   4.686 -0.0653  0.0411  0.2238
29885W        W46359   4.204  11.373  13.216  0.1600  0.0494 -0.1541
29886W        W46360  15.946  17.259   3.277  0.1704 -0.2687  0.1616
29887W        W46361   4.281   8.215   1.936  0.1201  0.3506 -0.0500
29888W        W46362  15.872   6.759  14.792  0.0638  0.2277 -0.1830
29889W        W46363  13.252   8.524   2.941 -0.0436 -0.0332  0.0788
29890W        W46364  17.374   6.081   3.675  0.0481 -0.0803 -0.0095
29891W        W46365   3.848   2.062   9.250 -0.2019 -0.1667 -0.1324
29892W        W46366   1.060  12.645  13.717  0.0724  0.2323  0.0446
29893W        W46367  18.591   5.033   5.666 -0.2284 -0.2454  0.1819
29894W        W46368  17.497   1.807   0.590  0.2192 -0.2259 -0.1809
29895W        W46369   2.994  17.049  14.794  0.0791 -0.0149 -0.0814
29896W        W46370  15.509   6.322  14.822 -0.1094 -0.0988  0.2490
29897W        W46371   1.646   3.619  14.878  0.0527  0.1684 -0.1166
29898W        W46372  13.177  13.408   1.596 -0.2725  0.1536  0.0128
29899W        W46373  18.535  10.160   5.149  0.1018 -0.1931  0.0660
29900W        W46374   4.185  14.213   5.267  0.2035 -0.1715 -0.0053
29901W        W46375  11.390  17.317   2.322  0.2528 -0.1911 -0.1147
29902W        W46376   3.101   4.728   9.541  0.0635 -0.0649 -0.0464
29903W        W46377   7.388  11.228   4.978  0.1786 -0.1504 -0.1497
29904W        W46378   8.891   9.426   1.808  0.3178  0.0493 -0.1311
29905W        W46379  11.396  10.482  14.104 -0.1496  0.1717 -0.2627
29906W        W46380  16.006  15.309  13.342  0.0946 -0.1860  0.0303
29907W        W46381  11.173  12.062  14.559  0.4547 -0.6487 -0.0580
29908W        W46382   8.934   1.801  11.163  0.3725  0.4855  0.0200
29909W        W46383  15.483  18.454   4.231 -0.0206  0.1404  0.0487
29910W        W46384  14.391   2.305   2.621 -0.1676 -0.0271 -0.1569
29911W        W46385  10.243  12.735  12.435 -0.0537  0.1030  0.0399
29912W        W46386   0.764  17.703   0.466  0.0457  0.0186  0.2806
29913W        W46387   1.736  11.911   1.915 -0.1731 -0.4010  0.0773
29914W        W46388   6.408  14.546   3.965  0.0874  0.0883  0.1034
29915W        W46389  17.593   3.307  13.392 -0.2837 -0.3035 -0.0641
29916W        W46390   2.491  15.042  12.721  0.0681 -0.0238 -0.2301
29917W        W46391   9.412   0.521  14.366 -0.0371  0.1856  0.1019
29918W        W46392  12.530   4.699  11.736  0.0468  0.2236 -0.3242
29919W        W46393   1.001   6.644  11.718 -0.0701  0.0070 -0.1896
29920W        W46394  10.306   4.986  12.893  0.3275  0.0279  0.1239
29921W        W46395  12.507   4.698   4.763 -0.2190  0.0007  0.0457
29922W        W46396  13.354   4.271   4.924  0.0296 -0.0553 -0.0939
29923W        W46397  11.652  11.817   1.991 -0.2145  0.0602 -0.0135
29924W        W46398   4.082  12.193   1.585 -0.0174 -0.0467  0.1441
29925W        W46399  13.235  13.455   3.412 -0.0791  0.0396 -0.0661
29926W        W46400   2.222   2.065   9.686  0.2175 -0.0791  0.0775
29927W        W46401  18.555   0.934  10.747  0.2642 -0.0272 -0.4257
29928W        W46402   2.054  10.917  12.374  0.1184  0.0752 -0.0823
29929W        W46403   6.176  10.510   1.144  0.1111 -0.0033 -0.0484
29930W        W46404  14.255  13.342  13.158  0.1604 -0.1420  0.1068
29931W        W46405   6.159   1.173  10.855  0.0486  0.1030 -0.3425
29932W        W46406   5.599  10.751   9.683 -0.0239  0.2159 -0.3603
29933W        W46407  16.532  12.579  11.292  0.3638  0.0913 -0.1325
29934W        W46408   0.128   0.357   3.233  0.1721 -0.0019  0.2266
29935W        W46409   3.181  12.068  10.712  0.1692  0.1318 -0.2205
29936W        W46410   1.265   0.751   0.073 -0.0463 -0.1279  0.3519
29937W        W46411  14.621   1.391  14.589  0.1412  0.1476  0.0209
29938W        W46412   7.442  11.921  11.108  0.0566  0.1474 -0.1588
29939W        W46413  10.672  10.110   0.708 -0.1263  0.0287  0.3436
29940W        W46414  16.296  17.401  14.722 -0.0617 -0.2451  0.2531
29941W        W46415  13.570   9.918  11.444  0.2328  0.2828  0.1911
29942W        W46416   6.798   2.560   2.155  0.1564  0.3473 -0.0846
29943W        W46417  13.129   3.812  12.956 -0.0010  0.1002 -0.2425
29944W        W46418   1.908  14.035   2.710  0.0087 -0.1220 -0.2494
29945W        W46419   3.180   5.253  13.725  0.5772 -0.2598  0.0645
29946W        W46420  13.824  13.717   3.405 -0.1736 -0.1182  0.1226
29947W        W46421  11.777   7.299  13.771 -0.1839 -0.1267  0.1232
29948W        W46422  16.229  11.938  12.452 -0.1845  0.2230  0.1995
29949W        W46423  18.640   3.131   0.416 -0.1285 -0.3960 -0.0377
29950W        W46424   4.168  12.650  12.105 -0.1388 -0.1322 -0.2148
29951W        W46425   3.455  13.893   1.525  0.0934 -0.2822  0.1247
29952W        W46426   6.677  12.438  12.192 -0.1099 -0.0739 -0.2388
29953W        W46427  11.738  15.876  14.117  0.0738 -0.1027  0.3123
29954W        W46428  18.268  13.594   2.539 -0.0098 -0.1808  0.0060
29955W        W46429   0.301  10.446   1.565 -0.2511  0.0117 -0.0763
29956W        W46430  16.385   1.612   1.215 -0.0075  0.1530 -0.0082
29957W        W46431  14.651   7.995  10.760 -0.0508  0.0695 -0.1952
29958W        W46432  17.836  11.972  14.727  0.1864  0.0037  0.0365
29959W        W46433   6.973   2.470  11.470  0.4056  0.2051  0.0294
29960W        W46434  13.681  14.493  12.256 -0.1670  0.0056  0.0738
29961W        W46435  13.762  12.755  13.781  0.0374  0.3417  0.2152
29962W        W46436  18.831  16.257   4.334 -0.1841  0.0320  0.3449
29963W        W46437  15.616   1.248  14.105 -0.1726 -0.1577 -0.0732
29964W        W46438   9.237  15.606   0.252 -0.0562 -0.2919 -0.1560
29965W        W46439   7.360  12.819  11.729  0.0418  0.2124  0.1284
29966W        W46440  12.909  15.042   0.136  0.1782 -0.1009  0.0938
29967W        W46441  13.516   8.236   4.563  0.3280  0.0782 -0.2328
29968W        W46442   9.992   2.826  14.770 -0.1806 -0.0014  0.1781
29969W        W46443  12.169  12.034   3.852  0.1152  0.0940  0.0521
29970W        W46444  14.245   7.913   9.945 -0.0852  0.2568 -0.0038
29971W        W46445   1.723   9.537  11.001 -0.1926  0.2612 -0.1868
29972W        W46446   6.427   1.588  12.525  0.1435 -0.2124  0.0917
29973W        W46447  14.771  14.886  12.824 -0.1727  0.1163 -0.0114
29974W        W46448   5.196   5.750   3.007  0.2265  0.0964  0.3242
29975W        W46449   6.723   6.125  10.137  0.0048  0.4048 -0.0500
29976W        W46450   3.412   8.056   4.873  0.2621  0.1139  0.0937
29977W        W46451   9.763   4.252  14.830 -0.2000 -0.0362  0.0015
29978W        W46452  17.636  16.349  10.145 -0.2681 -0.2380  0.0869
29979W        W46453   2.757   6.052   4.627  0.1759 -0.1439  0.3251
29980W        W46454   3.130   9.569  12.013  0.0494  0.0403 -0.1503
29981W        W46455  10.744  17.677   0.288  0.0094 -0.1733  0.1825
29982W        W46456   9.485   3.700   3.874  0.0621  0.0575 -0.1873
29983W        W46457  16.973   7.025   2.249  0.2116  0.0852  0.2313
29984W        W46458  13.797  16.898   2.410 -0.2146  0.0252 -0.0668
29985W        W46459   6.118   0.265   3.366 -0.0718  0.1250  0.0574
29986W        W46460   5.272  17.052   1.461 -0.0615  0.0244  0.0300
29987W        W46461  17.760  16.334   5.811 -0.0098 -0.3250  0.1410
29988W        W46462   3.041  16.526   0.972  0.1330  0.0232 -0.0799
29989W        W46463   8.491   8.105   0.613  0.0430 -0.0628  0.0516
29990W        W46464   1.763  17.138   3.641  0.1487 -0.1497  0.2826
29991W        W46465   7.731   2.122  11.342  0.4005  0.0227  0.0324
29992W        W46466   4.540   9.809  14.587 -0.1704 -0.3165  0.2644
29993W        W46467   3.516   3.074  12.188  0.3332  0.3001  0.0367
29994W        W46468  12.482   8.088   9.328 -0.0196  0.0295 -0.1602
29995W        W46469  10.589  10.045  13.206  0.2409  0.1513 -0.0260
29996W        W46470  11.938   7.076   4.946 -0.1928 -0.1738  0.4121
29997W        W46471   3.660  16.711   4.161  0.2275 -0.0094  0.4423
29998W        W46472  11.957  19.081   0.231  0.0712 -0.1891  0.1043
29999W        W46473  17.047  11.097  11.117  0.2204 -0.2257  0.0953
30000W        W46474   4.578   9.864  13.851 -0.2190  0.0232  0.0791
30001W        W46475  13.829   3.599  10.822  0.0891  0.3052 -0.0808
30002W        W46476  17.878  17.452   2.840  0.2879  0.1186  0.1561
30003W        W46477   2.634  19.302  13.407 -0.0870 -0.0640 -0.0514
30004W        W46478   6.623   5.927   3.803  0.0171 -0.2826 -0.2324
30005W        W46479  11.811   3.628  11.573  0.0630  0.1446 -0.0783
30006W        W46480   2.879   6.362   0.136 -0.1948  0.0805  0.0342
30007W        W46481   2.791   7.619   5.537 -0.1286 -0.2833  0.2899
30008W        W46482   3.599   2.173   0.316  0.1932 -0.0172 -0.2347
30009W        W46483   2.913  16.930  11.308 -0.2792 -0.1402  0.0947
30010W        W46484   3.931  10.791  10.993  0.5793  0.2553 -0.1368
30011W        W46485   4.122  15.061   3.979 -0.1724  0.3836 -0.0731
30012W        W46486  13.691   3.728  11.320 -0.0090 -0.0084 -0.2166
30013W        W46487   3.056  12.581   1.526 -0.1729  0.0629 -0.1811
30014W        W46488   2.338  17.418   1.830 -0.1717 -0.0331  0.1051
30015W        W46489  18.298   4.649  10.233 -0.1994 -0.0579  0.3505
30016W        W46490  13.527  11.903  13.360 -0.0665 -0.1033  0.1115
30017W        W46491  15.169  11.855   3.157  0.3062  0.2260  0.0817
30018W        W46492  18.609  13.698  11.607  0.1288  0.2274  0.0590
30019W        W46493   9.728  16.702  11.971 -0.0931 -0.1396 -0.3087
30020W        W46494  17.589   1.063  10.563  0.2163  0.0342 -0.0036
30021W        W46495  13.621   3.638   2.329  0.0268  0.0672 -0.1241
30022W        W46496   9.335   4.033  11.479 -0.2271  0.1808  0.3616
30023W        W46497   0.705  11.563  13.329 -0.2660  0.0449  0.0252
30024W        W46498  12.884  17.385  13.158  0.0539 -0.0932  0.0631
30025W        W46499  10.742   5.690  13.595  0.1749 -0.4102  0.0312
30026W        W46500   6.055   1.911  11.801 -0.0797  0.0516 -0.0509
30027W        W46501   3.110  11.075  13.607  0.1920 -0.2691 -0.0412
30028W        W46502   4.929   1.277   0.420 -0.1422  0.2005 -0.1012
30029W        W46503   2.216  19.193  10.505  0.1065  0.1665 -0.0451
30030W        W46504   8.595   4.596  11.174  0.3064  0.0902  0.0128
30031W        W46505  17.505  14.962   0.428  0.1245  0.0581 -0.1482
30032W        W46506  14.816  16.269   5.817  0.0038 -0.1474  0.0127
30033W        W46507  14.983   7.404  13.851  0.0720 -0.1539  0.0429
30034W        W46508   9.593  15.113   5.535 -0.0909  0.0161 -0.2163
30035W        W46509  11.659   8.672  12.268  0.2058  0.0468 -0.0544
30036W        W46510  17.041  15.650  13.010  0.1243 -0.0826 -0.0457
30037W        W46511   6.769  16.699  12.869  0.2085 -0.2129 -0.0261
30038W        W46512  13.128  16.422  13.220  0.2988 -0.1076  0.0300
30039W        W46513  15.781   4.482  12.110 -0.0874 -0.2365  0.2221
30040W        W46514  18.316  17.437   1.035 -0.0833 -0.1622  0.2099
30041W        W46515  18.567   9.120   4.616  0.1972 -0.0452  0.0606
30042W        W46516  13.148  15.807  13.514 -0.0344 -0.0583  0.2060
30043W        W46517   2.354   3.396   3.011 -0.0883  0.1054 -0.2234
30044W        W46518  10.477   5.696  10.408 -0.3214  0.2157  0.2286
30045W        W46519  14.727  18.136   2.719  0.1467  0.3550 -0.1524
30046W        W46520  17.699   9.448   2.273 -0.3533  0.1261  0.2464
30047W        W46521  16.794  13.222   1.592 -0.1319 -0.4238  0.2600
30048W        W46522   0.415  11.485   4.239 -0.0483  0.1340 -0.3668
30049W        W46523   9.446  17.892  13.907  0.1186  0.2992  0.0612
30050W        W46524   2.015  15.301   3.506  0.1884 -0.0748 -0.2326
30051W        W46525  14.053  19.284   2.938  0.1141  0.1243 -0.2513
30052W        W46526   3.841   6.412  12.935  0.1777  0.0564 -0.1543
30053W        W46527  15.666  12.571  14.704 -0.2071  0.3387 -0.1858
30054W        W46528   1.470   9.493   1.215  0.1169  0.0765 -0.1799
30055W        W46529   3.731  11.488   2.914  0.0003 -0.0799 -0.2593
30056W        W46530  16.170   6.598   3.997  0.3757 -0.5102 -0.2495
30057W        W46531  10.871  14.347   1.243  0.1890 -0.1857  0.0745
30058W        W46532  15.348  10.073  12.001 -0.2212 -0.2769  0.1991
30059W        W46533  18.655   1.834   1.844 -0.0637 -0.0008  0.1731
30060W        W46534  11.017   8.728   9.699  0.0480  0.0033 -0.0331
30061W        W46535   0.547  15.000  10.191  0.2216  0.2398  0.1139
30062W        W46536  17.289   8.222   0.827  0.4765 -0.1734 -0.0216
30063W        W46537   8.469  19.031   2.979 -0.3272  0.0983  0.1263
30064W        W46538   1.164   2.083   3.543  0.1205  0.3402  0.3596
30065W        W46539   8.009   8.933  13.308 -0.0255 -0.2868  0.1986
30066W        W46540   2.148  10.015  13.135  0.0556 -0.4160  0.1218
30067W        W46541   5.878   2.165  12.922  0.0245 -0.2167 -0.1852
30068W        W46542  16.726  10.438   0.490 -0.0627  0.1446  0.2375
30069W        W46543   0.082  11.014  14.759  0.1636 -0.1522 -0.0295
30070W        W46544  18.911   1.764   0.231  0.1929 -0.0401  0.1476
30071W        W46545  14.047   8.512  11.941  0.0645  0.0224 -0.2372
30072W        W46546   3.854  12.542  13.170 -0.3390 -0.0234 -0.1137
30073W        W46547  16.240   8.471  12.525  0.0818  0.1989  0.2281
30074W        W46548   9.809   5.550   9.700  0.2942  0.1400 -0.3333
30075W        W46549   9.828   8.163  10.861  0.0512  0.2755 -0.1369
30076W        W46550  14.854   4.458  13.591  0.3045  0.5291  0.3125
30077W        W46551   3.343   0.230  13.932  0.0765  0.1691 -0.2865
30078W        W46552   4.565  13.787   3.587 -0.3732 -0.0868  0.0809
30079W        W46553   5.987  16.646  14.098  0.0873 -0.2524 -0.3294
30080W        W46554  13.828  18.188   4.987 -0.1344 -0.0737  0.0953
30081W        W46555  13.829  14.908   0.774 -0.3514 -0.1385  0.2256
30082W        W46556   8.702  13.468  13.144 -0.1125  0.0641 -0.0855
30083W        W46557   9.161   0.112  11.873 -0.3298 -0.3781 -0.0275
30084W        W46558   6.887   0.608  10.593 -0.3265  0.1840 -0.0143
30085W        W46559  13.717  14.427   0.744  0.0868  0.1813  0.0239
30086W        W46560  19.050   8.906  14.794 -0.3611 -0.2169  0.1912
30087W        W46561  18.534   2.076   0.672 -0.1128  0.3989  0.3171
30088W        W46562  16.057   8.500  14.855 -0.1020 -0.0223 -0.4330
30089W        W46563  11.462  14.393   0.046  0.2078 -0.4212  0.0076
30090W        W46564  10.261  16.546  13.228 -0.2263 -0.0787  0.1606
30091W        W46565  10.572  18.130   4.720 -0.1810 -0.2726  0.4421
30092W        W46566   8.313   4.677  10.784 -0.3419 -0.3017 -0.1101
30093W        W46567   1.232  10.043  12.639  0.1365  0.1213  0.2245
30094W        W46568  16.874  11.542  10.934  0.2656  0.0614  0.0745
30095W        W46569   9.013   9.489   3.919 -0.0467 -0.3230 -0.0308
30096W        W46570   0.676  11.160   0.243  0.1382 -0.2157  0.2127
30097W        W46571   1.923   3.893   4.335 -0.0369 -0.3223 -0.1980
30098W        W46572   6.959  13.265   1.941 -0.2641  0.0278 -0.1331
30099W        W46573  17.265   1.001   3.547 -0.2287 -0.1681  0.1775
30100W        W46574   4.467   2.374  14.788  0.2116 -0.0323  0.3590
30101W        W46575   0.343  17.468   0.539  0.0695  0.1271  0.0148
30102W        W46576   4.240  15.994   1.472  0.0318 -0.0069 -0.0532
30103W        W46577  17.393  16.139   0.366  0.1767  0.0472  0.1982
30104W        W46578   5.172  12.237   5.213  0.2637 -0.0473  0.5004
30105W        W46579  16.712   8.451   2.469  0.0139  0.3545  0.1423
30106W        W46580   2.497  13.157   9.769 -0.0196  0.0050  0.0715
30107W        W46581   3.863  18.877  12.961  0.1805  0.2732 -0.0155
30108W        W46582  11.085   6.902   2.365 -0.0268 -0.2789  0.2782
30109W        W46583  12.821  13.417  13.740  0.1961 -0.2271  0.0340
30110W        W46584   8.883  19.295   4.382  0.0192  0.2492  0.1621
30111W        W46585  11.074   5.821   0.346 -0.1357 -0.0740  0.0308
30112W        W46586  10.012   3.495  10.846  0.0367 -0.0752  0.1012
30113W        W46587  12.364  12.492  10.653 -0.4133  0.3455  0.0851
30114W        W46588   1.961  15.650  11.993 -0.5675  0.2230 -0.1683
30115W        W46589   1.349   6.262  10.816 -0.1617  0.1483  0.1701
30116W        W46590  11.791  15.963   0.595  0.1193  0.1004 -0.1254
30117W        W46591   1.354  14.743  13.874 -0.0817  0.0393  0.2008
30118W        W46592   3.224   1.045  14.150  0.0745  0.2059 -0.1714
30119W        W46593   8.059   9.413  13.091 -0.1912 -0.1125  0.1596
30120W        W46594  16.502   2.231   0.050 -0.0747 -0.0956 -0.1302
30121W        W46595  10.317  16.954   3.906 -0.1001 -0.3996  0.1200
30122W        W46596  11.297   6.208   3.115 -0.2574  0.1166 -0.0782
30123W        W46597   3.755  17.807   4.091  0.0395  0.0964 -0.0134
30124W        W46598  13.111   8.794   4.818  0.0303  0.1656  0.0497
30125W        W46599  11.650   7.345  11.705  0.2534  0.1215 -0.0014
30126W        W46600  11.168   9.771   0.626  0.1544 -0.2421  0.0292
30127W        W46601  14.323   5.130   2.760 -0.2049  0.1016 -0.1962
30128W        W46602  15.207   5.420   2.490 -0.1646 -0.2543  0.2893
30129W        W46603   2.189   8.711  14.649  0.1031  0.3607  0.0623
30130W        W46604   7.729  14.224  12.566  0.3612 -0.2999  0.2115
30131W        W46605   2.134   5.468   2.290 -0.1852  0.0157  0.0898
30132W        W46606   0.829  16.310   4.456  0.2707  0.2901 -0.2380
30133W        W46607   7.114   1.653   3.317  0.1496  0.1445  0.6515
30134W        W46608  10.584  11.360  12.419 -0.2229 -0.0292 -0.1917
30135W        W46609  13.012   4.490  12.014  0.1822 -0.1454 -0.1169
30136W        W46610   4.046  12.522  11.639 -0.3684 -0.1492  0.1422
30137W        W46611   3.175  14.608  10.360  0.4723 -0.0401  0.3263
30138W        W46612  15.744  16.338   3.664  0.2805  0.0059  0.1644
30139W        W46613   3.777   3.681   1.466  0.2186 -0.1076  0.4183
30140W        W46614   1.606   8.770   2.527 -0.1090  0.2592 -0.3727
30141W        W46615   5.131  15.163  14.589 -0.0264  0.0567  0.1799
30142W        W46616   5.887   9.673   5.178 -0.3190  0.0174 -0.0507
30143W        W46617  11.109   3.091  12.879 -0.4270 -0.1787  0.3306
30144W        W46618   1.787  16.201   4.550  0.0924  0.1792  0.0783
30145W        W46619   0.800  18.659   2.401  0.2506 -0.0144  0.0840
30146W        W46620  13.955   2.209  11.019  0.0659  0.0434 -0.0316
30147W        W46621  10.827  13.054   4.034 -0.2886 -0.2449 -0.2972
30148W        W46622   6.520   0.676  12.287 -0.1210  0.1655  0.0880
30149W        W46623  11.767   4.854   1.171 -0.2731  0.1519 -0.0413
30150W        W46624   3.471   4.363  14.326  0.1369 -0.0017  0.0852
30151W        W46625  10.974   5.633  10.440 -0.0575  0.2474 -0.1613
30152W        W46626   4.719   8.792   0.497  0.0459 -0.0222  0.3634
30153W        W46627   2.125  11.312  10.616  0.0503 -0.1278  0.1964
30154W        W46628  12.252  14.656   0.256  0.0647  0.0315 -0.0423
30155W        W46629   5.599  19.139  12.172 -0.0299  0.0069 -0.1883
30156W        W46630  11.569   8.711  13.692  0.0642 -0.0675 -0.1864
30157W        W46631   5.112   3.959   4.918 -0.1575 -0.3433  0.1121
30158W        W46632   6.341  16.329   3.695  0.4614  0.0675  0.1697
30159W        W46633  14.830  13.569  12.727  0.4320 -0.2390  0.2166
30160W        W46634   0.796   6.740  13.312  0.0864  0.2400 -0.2480
30161W        W46635  15.378   0.090   0.629  0.0757  0.0121  0.0687
30162W        W46636  17.005   7.624   0.144 -0.1586  0.0560 -0.3234
30163W        W46637  13.443  12.359   0.567  0.0121  0.0566  0.2219
30164W        W46638  17.408   8.280  13.914  0.0632  0.3244  0.1616
30165W        W46639   9.108   5.972  12.727 -0.2896 -0.0750  0.0036
30166W        W46640   6.159  14.190   1.416  0.0752 -0.0204  0.1245
30167W        W46641  13.106  10.546  14.551 -0.1680 -0.0133  0.0782
30168W        W46642   1.056   7.609  13.074  0.0553  0.0124 -0.2725
30169W        W46643   0.324   6.029   3.128 -0.1045  0.1586  0.2553
30170W        W46644  11.764  17.900  14.108 -0.0618 -0.2129  0.1530
30171W        W46645   6.120  10.951  11.308 -0.0302  0.2898 -0.1746
30172W        W46646  19.323   4.800  13.124  0.3474 -0.3247  0.2874
30173W        W46647   4.987  17.837   0.330 -0.0167 -0.2451  0.1020
30174W        W46648   2.194  11.990   3.244 -0.1504 -0.1756  0.0908
30175W        W46649  10.523  12.000  14.808 -0.1326 -0.1336 -0.1987
30176W        W46650   9.441  14.149   3.455 -0.1332 -0.1450  0.2095
30177W        W46651   7.486  18.579   1.669 -0.1220  0.3364 -0.0796
30178W        W46652   3.931   1.028  13.371 -0.0311  0.3881  0.1250
30179W        W46653  15.915  16.206  14.039 -0.5183 -0.3830  0.3072
30180W        W46654   7.888  18.315   2.821  0.2360  0.1354  0.2292
30181W        W46655   2.367   3.271  12.947 -0.1308  0.2036  0.1429
30182W        W46656  12.910  18.867   0.380  0.1216 -0.0067 -0.1874
30183W        W46657   5.597   3.299  12.785  0.1089  0.2211 -0.0079
30184W        W46658  10.760  14.459   3.845 -0.2838  0.4104  0.0099
30185W        W46659  11.254   0.991  14.725  0.0093  0.0188  0.1054
30186W        W46660  13.514  11.654  10.731 -0.0407 -0.0403  0.1100
30187W        W46661   6.629   2.099  11.257 -0.1197 -0.0230 -0.0085
30188W        W46662   6.941  14.723  11.966 -0.0571  0.5662 -0.1658
30189W        W46663   2.913   9.273   5.446 -0.1016 -0.0711  0.0331
30190W        W46664   7.389  12.424  10.083  0.0470  0.1765  0.1116
30191W        W46665   4.858  13.845   1.234 -0.2288  0.3542  0.1179
30192W        W46666   3.750   9.207  12.293  0.0579  0.0772 -0.3188
30193W        W46667  19.203  12.471   1.815  0.0074  0.1771 -0.0874
30194W        W46668  10.138   9.843   2.045  0.3474 -0.0722 -0.0618
30195W        W46669   8.676  13.146   1.918  0.2858  0.1262  0.3227
30196W        W46670   4.346  14.885  13.284  0.1187  0.2422  0.0069
30197W        W46671   1.580  16.502  13.991  0.1138  0.0350  0.0772
30198W        W46672   3.981  15.593  13.860 -0.2986  0.2392  0.0259
30199W        W46673  17.828  15.112   1.552  0.0073 -0.1130 -0.1689
30200W        W46674   4.515   1.636  14.808 -0.1590 -0.1568 -0.0502
30201W        W46675  17.764   3.846  12.209 -0.0257 -0.0034 -0.2640
30202W        W46676  13.456   4.900  11.888  0.0911 -0.0336 -0.1486
30203W        W46677  10.247   2.735  12.491  0.2479  0.1379 -0.0244
30204W        W46678   0.389   3.840  14.239 -0.3126  0.1567  0.0476
30205W        W46679   7.047  17.883  10.686  0.1797 -0.3593 -0.1973
30206W        W46680  13.325   5.559   9.660  0.0620 -0.0819 -0.0849
30207W        W46681  17.434  14.291  10.048 -0.0310 -0.4321  0.2982
30208W        W46682   4.172   0.131   4.419  0.1772 -0.1240  0.2357
30209W        W46683  12.770  10.811   2.936 -0.0364  0.3546 -0.1902
30210W        W46684   1.591  14.094   3.831  0.0583  0.2463  0.0337
30211W        W46685   0.819   5.570   2.178  0.0646 -0.0861 -0.2439
30212W        W46686   6.916   4.347   0.025  0.2241  0.1116 -0.2602
30213W        W46687   3.203  12.994   0.066  0.0416  0.1454  0.0534
30214W        W46688  13.650   3.371   0.987  0.0447  0.0811 -0.0459
30215W        W46689   0.330  13.664   1.929 -0.0708 -0.2708  0.1039
30216W        W46690   5.655  16.256   5.072 -0.2355 -0.2056  0.3344
30217W        W46691   9.743   5.648  13.883  0.2833  0.0726  0.1192
30218W        W46692   5.516  12.924  11.501  0.1449  0.2168 -0.0082
30219W        W46693   3.767   6.465   5.422 -0.0549 -0.0575  0.1941
30220W        W46694   0.203   3.939   4.363  0.2956 -0.3836  0.1073
30221W        W46695   1.809  14.735   0.502 -0.0547 -0.1665 -0.2400
30222W        W46696  10.254  17.303   3.157 -0.1649  0.1820  0.1955
30223W        W46697  15.603  10.750  13.062  0.0126 -0.1250  0.1740
30224W        W46698  13.401  18.734   3.889 -0.1613  0.0526  0.0352
30225W        W46699   2.428   2.275   1.633  0.2705  0.1350 -0.0160
30226W        W46700   5.573   0.806   2.074  0.1131 -0.3701  0.3951
30227W        W46701   7.914  15.612   5.589 -0.2144 -0.1408 -0.0898
30228W        W46702  12.496   6.565   1.382  0.0355 -0.2476 -0.1278
30229W        W46703   5.851  15.761   4.768  0.0548  0.4761  0.1014
30230W        W46704   0.887   2.554  10.602 -0.0297 -0.1961 -0.1338
30231W        W46705  17.640   5.639  13.167  0.1115 -0.1292  0.1070
30232W        W46706  15.347  13.341  10.688  0.2460 -0.2643  0.0245
30233W        W46707  19.304  12.467  12.075  0.0556 -0.2499 -0.3096
30234W        W46708   2.179   4.491   2.338 -0.3808  0.0439  0.1692
30235W        W46709  15.393  14.081  12.329 -0.3920  0.0143 -0.1920
30236W        W46710   6.792   9.055  11.201  0.4013 -0.0361 -0.7024
30237W        W46711   6.731  10.254   4.302  0.0547  0.1734  0.2469
30238W        W46712  18.527   1.769  11.069 -0.4603 -0.1661 -0.4085
30239W        W46713   1.388  16.051  10.970  0.1749 -0.1316  0.0041
30240W        W46714   4.556   8.335   0.670 -0.0444 -0.3360 -0.0403
30241W        W46715  16.796   3.162   4.201  0.0518 -0.1519 -0.1381
30242W        W46716  16.755   4.477   4.517 -0.2523  0.1545 -0.0296
30243W        W46717   5.107  12.940   3.692 -0.3248  0.2378 -0.0321
30244W        W46718  15.743   0.186   2.334 -0.1248 -0.1337  0.0054
30245W        W46719   4.228   8.666  14.170 -0.0359  0.1229  0.0938
30246W        W46720   9.350  12.242  12.569  0.1840  0.2250 -0.0293
30247W        W46721   2.067   1.130   2.068  0.2355  0.1761  0.0255
30248W        W46722   2.408   4.579  14.022  0.3851  0.1933  0.4324
30249W        W46723  19.310   9.635   5.054 -0.3411 -0.1047  0.2142
30250W        W46724  18.266   8.766  11.300  0.4478 -0.1537 -0.1823
30251W        W46725  10.325  11.726  11.781 -0.1226 -0.2264  0.2318
30252W        W46726  16.526  16.844   4.569  0.2090  0.2663 -0.2717
30253W        W46727   3.437  17.568   4.395  0.1827 -0.0327 -0.0904
30254W        W46728  16.754   4.499   3.322 -0.2515 -0.1605  0.0385
30255W        W46729  15.592   3.289   1.739 -0.0397  0.2939 -0.1514
30256W        W46730   1.599  12.019  11.486  0.0391  0.0229 -0.0803
30257W        W46731  16.147   3.498   5.531 -0.4186 -0.1873  0.0155
30258W        W46732  19.069   4.180  13.840  0.0948  0.2473  0.0920
30259W        W46733  14.816   3.337  12.359  0.1080 -0.2191  0.4208
30260W        W46734  19.173   9.421  10.137 -0.0702  0.2127  0.2127
30261W        W46735  11.349   8.021   0.728  0.2179  0.1653 -0.1354
30262W        W46736   4.738   5.562   4.314 -0.0556  0.1690  0.0213
30263W        W46737   5.953   2.924   2.414  0.1036 -0.3580  0.0599
30264W        W46738  10.076   7.003  13.577  0.0512 -0.3534  0.1710
30265W        W46739   3.517  13.079   4.274  0.0107  0.2102 -0.1452
30266W        W46740   6.881  14.233  12.252  0.0634  0.3062 -0.0494
30267W        W46741  13.944   2.867   0.567 -0.0296  0.2293 -0.4203
30268W        W46742  13.471  13.931   0.714  0.1010 -0.4017  0.0769
30269W        W46743  11.983   4.458  14.849 -0.1898 -0.0423 -0.0619
30270W        W46744   4.222  15.151  13.669 -0.1690  0.0383  0.0690
30271W        W46745  14.098   0.028  11.298  0.0189  0.0517  0.1439
30272W        W46746  19.379   5.509   2.416  0.1436 -0.2192  0.1067
30273W        W46747  10.608   1.406   1.207 -0.1748  0.0904  0.1436
30274W        W46748   4.404  12.510   3.571  0.2039  0.2272 -0.2411
30275W        W46749  15.633  12.157  10.896 -0.1299 -0.0528 -0.0153
30276W        W46750  10.569   6.215  12.254 -0.2973  0.2240  0.1029
30277W        W46751   4.739  11.968   0.947 -0.0770  0.0024  0.2623
30278W        W46752   4.407  14.538  11.235 -0.1026 -0.0871 -0.1244
30279W        W46753  15.097   9.786  13.702  0.1045 -0.0729  0.1901
30280W        W46754   2.646  16.754  12.826 -0.2089 -0.2419  0.1722
30281W        W46755   1.934  18.480   0.523  0.1184 -0.0629  0.0821
30282W        W46756   3.481   4.192   0.807 -0.2184 -0.1723 -0.0097
30283W        W46757  18.494   5.941   1.007 -0.2078  0.0921 -0.1732
30284W        W46758  10.414  12.112   3.282 -0.1634 -0.0856  0.2358
30285W        W46759   8.657  18.541   0.016  0.0624 -0.1107  0.1096
30286W        W46760   2.859   6.140  12.195 -0.0794  0.0780  0.0817
30287W        W46761  14.487  17.992   1.718  0.2785  0.0741 -0.0140
30288W        W46762   4.269  14.992   0.809 -0.1445 -0.0017 -0.0605
30289W        W46763   1.975   6.099   3.995 -0.0058  0.3137 -0.1551
30290W        W46764   9.829  11.830   3.060  0.0718  0.0821  0.1264
30291W        W46765   0.747   5.434   2.827 -0.1769  0.0270  0.1507
30292W        W46766  18.946   8.588  14.438 -0.1790  0.3669  0.1676
30293W        W46767  12.536   8.391  10.352 -0.0818  0.0320 -0.3653
30294W        W46768   0.969   7.206   3.213 -0.0475 -0.1014 -0.0759
30295W        W46769  10.417   9.265  11.963  0.0403 -0.2793  0.0318
30296W        W46770  18.593   8.353   4.091 -0.1054 -0.0051  0.2832
30297W        W46771  19.050  14.929   3.833  0.5000 -0.1142  0.0771
30298W        W46772  17.418   5.876   0.964  0.1209 -0.2439  0.1774
30299W        W46773  14.742  15.429   3.586  0.1598 -0.0297 -0.1870
30300W        W46774  14.088   7.512   1.913  0.1825 -0.1964  0.3472
30301W        W46775  14.364   3.346  11.006  0.1580 -0.1926  0.0191
30302W        W46776   1.193  14.977  12.083 -0.2246 -0.2585 -0.0677
30303W        W46777   7.000  10.166  14.360 -0.3195 -0.2884 -0.0642
30304W        W46778  10.437   5.835  14.544 -0.0078  0.0494 -0.0732
30305W        W46779  15.015   7.173  13.070  0.1061 -0.1934 -0.0670
30306W        W46780   1.051   2.925  14.311  0.1394  0.2267 -0.0908
30307W        W46781  11.965   1.074   5.002 -0.1795 -0.0643  0.2184
30308W        W46782  18.782  13.215   3.762 -0.2237  0.0910 -0.0803
30309W        W46783  11.303   8.346   2.430  0.0907 -0.2342 -0.3836
30310W        W46784   9.201   2.400   3.580 -0.3005  0.1700  0.4478
30311W        W46785   2.286  17.104   1.008  0.2010  0.3314  0.0697
30312W        W46786  18.769  14.078   1.934  0.0995  0.0069  0.2171
30313W        W46787  12.851  19.087  10.827  0.1447 -0.0658  0.2813
30314W        W46788  15.559   8.780  11.276 -0.2117  0.3316  0.2274
30315W        W46789  17.952  15.879  13.085  0.1094  0.1248  0.1159
30316W        W46790   9.542  10.408   1.667 -0.0902 -0.1310  0.1040
30317W        W46791   4.037  10.773  11.616 -0.2475 -0.3585  0.2036
30318W        W46792  13.381   8.808   0.970  0.2284  0.1845 -0.1669
30319W        W46793  16.905   0.791  10.354 -0.0279  0.3214 -0.3677
30320W        W46794   3.983   5.069   1.691  0.2866  0.0442  0.1076
30321W        W46795   7.755   3.176  13.482 -0.0788 -0.0960  0.2348
30322W        W46796  16.688   4.062   3.707  0.1870  0.0681  0.1410
30323W        W46797  19.119  18.863  13.205 -0.2377 -0.0615  0.2259
30324W        W46798   7.119   9.867   4.420  0.0406  0.3513  0.3080
30325W        W46799   4.920   4.211  12.408 -0.2136  0.1942  0.2739
30326W        W46800  17.672   2.330   4.163 -0.0699  0.3226 -0.2164
30327W        W46801   4.707   5.928  11.578  0.2382 -0.1574 -0.0564
30328W        W46802   1.210   9.184   0.397  0.2795 -0.3575  0.0202
30329W        W46803   3.505   2.511  12.106 -0.0596 -0.2530  0.0666
30330W        W46804  11.496  14.726   2.906 -0.0967  0.0529  0.0383
30331W        W46805   2.657   9.611   4.134 -0.1864  0.0762 -0.0855
30332W        W46806  13.027   0.538   3.285  0.0482 -0.3072 -0.3426
30333W        W46807  18.917   1.871  14.562  0.0085 -0.1630 -0.1425
30334W        W46808   7.151  18.824   0.047 -0.0018  0.1595  0.1048
30335W        W46809   6.030  17.577   0.546  0.0137  0.2164 -0.0275
30336W        W46810   5.034  16.574   9.444  0.1592  0.0879 -0.3842
30337W        W46811   3.367   4.561  12.881  0.1491 -0.3330 -0.0479
30338W        W46812   9.984   7.995   3.766  0.0593 -0.2030  0.0120
30339W        W46813  10.507  11.488  11.067 -0.1867  0.0481  0.0986
30340W        W46814  10.639  16.399  13.607  0.0947  0.4578  0.0136
30341W        W46815   2.582  10.801   0.164  0.2169  0.0642  0.3015
30342W        W46816   3.637  11.687  11.930  0.2152 -0.0229  0.2422
30343W        W46817  10.476  16.225   2.015  0.0679  0.2270 -0.0986
30344W        W46818  13.002  16.864  13.945  0.1698 -0.2246 -0.3242
30345W        W46819   7.142  14.595   1.394 -0.1904  0.2691  0.0620
30346W        W46820   2.035  11.662   3.618  0.2752  0.1050 -0.1942
30347W        W46821   7.524  15.028   1.647 -0.0505  0.1777  0.0637
30348W        W46822   2.372   3.743  14.444  0.4316 -0.0740  0.1246
30349W        W46823  13.208   2.816   1.875 -0.1211 -0.0306  0.0537
30350W        W46824  15.519   8.318  11.026  0.0598  0.2644 -0.1225
30351W        W46825   9.806  14.249   4.793  0.1021 -0.0919 -0.1610
30352W        W46826   2.965  15.394   1.080  0.0042  0.1388 -0.1662
30353W        W46827  17.507  17.894   9.844  0.1720  0.0024 -0.2437
30354W        W46828   1.387  13.263  12.639 -0.1194  0.0537  0.1494
30355W        W46829  12.138  12.570  14.199 -0.2341 -0.2266 -0.2198
30356W        W46830   6.659   4.013   3.095  0.0287  0.2578  0.0582
30357W        W46831   9.758   9.676   1.097 -0.1251  0.1493  0.2627
30358W        W46832  11.881   3.289   3.337 -0.2452 -0.1923 -0.0559
30359W        W46833  17.511  18.261  14.211 -0.3022  0.2084  0.1043
30360W        W46834   7.624   8.482  11.647  0.3404 -0.2679 -0.1909
30361W        W46835   9.700  16.297   4.178  0.1102 -0.1747 -0.1275
30362W        W46836  11.474   3.100   1.589  0.2021  0.1811  0.0909
30363W        W46837  11.966   2.959   2.941 -0.0189  0.3302  0.1466
30364W        W46838   6.070   8.672   2.234 -0.0664  0.1184  0.0523
30365W        W46839   6.036   0.238  12.375 -0.2714  0.2289  0.1749
30366W        W46840  14.439  15.080  12.426  0.1376 -0.0151  0.3746
30367W        W46841   4.658  15.028  14.377  0.2091  0.3549  0.0775
30368W        W46842  18.791  10.693  12.999  0.1642  0.2043 -0.0615
30369W        W46843   4.520   9.937  12.099 -0.1248 -0.0542 -0.1314
30370W        W46844   9.120   2.739   1.719 -0.3626  0.1468 -0.2245
30371W        W46845   7.639   4.037   1.172 -0.2824 -0.0576  0.1788
30372W        W46846  14.594   2.658  14.010 -0.1220 -0.2507 -0.0493
30373W        W46847   7.804   3.292  12.940 -0.1560 -0.3808  0.1141
30374W        W46848  18.737  10.225  12.739 -0.1200 -0.4049  0.1737
30375W        W46849   4.021  16.415   9.838  0.3439  0.0675  0.1702
30376W        W46850  18.223   3.782  11.118  0.2966  0.0275  0.0782
30377W        W46851  16.033  11.215   2.245  0.1238 -0.0770  0.1712
30378W        W46852   2.756  10.610  12.838 -0.1569  0.1678  0.3120
30379W        W46853   4.640  17.428   9.308  0.0087  0.1167 -0.1462
30380W        W46854  16.521  16.042  11.291  0.1793 -0.3428  0.1670
30381W        W46855  17.475   7.373   4.680  0.1339 -0.1009 -0.1824
30382W        W46856  13.597   2.441   4.150 -0.3314 -0.1075 -0.2313
30383W        W46857   8.352  13.267  12.305  0.0874 -0.0637 -0.1946
30384W        W46858   2.378   3.063   3.497 -0.0682  0.0453 -0.0335
30385W        W46859   4.013  11.241  11.910  0.1810  0.0117 -0.2633
30386W        W46860   8.388  18.128  12.859 -0.0474 -0.0321  0.0778
30387W        W46861  14.116  13.996   1.001  0.1975 -0.0263 -0.4098
30388W        W46862   9.164  13.274  13.099 -0.1512 -0.3169  0.1193
30389W        W46863  10.514   7.350   3.900 -0.2519  0.3332 -0.1392
30390W        W46864   9.513  11.045  12.812 -0.1063  0.0653 -0.0528
30391W        W46865   7.095  13.299   0.192 -0.2133 -0.0908 -0.0679
30392W        W46866  19.051   9.318   2.147 -0.2427  0.0701  0.1180
30393W        W46867  18.348  11.944  10.260 -0.3543 -0.0949  0.0729
30394W        W46868   3.746  14.616  10.225 -0.0524 -0.1699 -0.1794
30395W        W46869  13.942   3.416  12.682 -0.2729 -0.1079 -0.2561
30396W        W46870   9.087  11.468   3.592 -0.2918 -0.2741  0.0419
30397W        W46871   1.841   2.382  12.739  0.0633  0.1996  0.2400
30398W        W46872   3.324   8.417   4.460  0.2690  0.1638  0.1652
30399W        W46873   2.032  13.520   2.665  0.3323 -0.1320  0.2784
30400W        W46874   4.546   2.224  14.296 -0.1045 -0.0341  0.0512
30401W        W46875  12.705  16.593   5.638  0.0193 -0.0191  0.1479
30402W        W46876  13.878  15.660  11.235  0.1641  0.1208  0.2158
30403W        W46877  19.175   9.214  12.984  0.0794  0.4083 -0.0212
30404W        W46878   0.158   0.984   4.226 -0.2116  0.1085  0.0891
30405W        W46879   9.463   4.119   3.660 -0.1016  0.1995 -0.0813
30406W        W46880  19.196   4.554  11.245  0.1208  0.1248 -0.3681
30407W        W46881  18.152   0.154   1.325  0.0472  0.0636  0.0707
30408W        W46882  16.905  18.994  10.306  0.0020  0.0388  0.3520
30409W        W46883   7.276   5.898  10.317 -0.2357 -0.2489 -0.2670
30410W        W46884  15.933   5.658  10.869 -0.1007  0.0529  0.2396
30411W        W46885   6.550  10.895   0.202 -0.3398 -0.0469 -0.2075
30412W        W46886  14.284   0.750   0.876 -0.1366 -0.1955 -0.3260
30413W        W46887  10.913   4.764  14.324  0.2576 -0.1002 -0.1051
30414W        W46888   0.098   0.256  11.603  0.1476  0.4350  0.2274
30415W        W46889  12.512  12.963   4.516  0.1919 -0.0700 -0.0114
30416W        W46890  12.436  13.500  14.778  0.0413 -0.4081 -0.2080
30417W        W46891   0.950   1.948  10.575 -0.0471  0.0373  0.0658
30418W        W46892   3.514  11.929   0.842  0.1106 -0.0837  0.0104
30419W        W46893  12.016   7.544   4.142 -0.0804  0.3550  0.0229
30420W        W46894   2.356  19.009  14.827 -0.0565  0.0946 -0.0007
30421W        W46895  18.033   3.534  10.705  0.1047 -0.3360 -0.1081
30422W        W46896   7.271  15.733  11.629 -0.1320  0.0199 -0.1880
30423W        W46897   7.914   3.573  14.834 -0.2099  0.3103  0.1189
30424W        W46898   4.758   9.524   1.286 -0.2394 -0.1595 -0.1816
30425W        W46899   4.773  10.014   1.025 -0.4797 -0.1365  0.2877
30426W        W46900   9.729  18.224   9.541  0.0188 -0.0101  0.5586
30427W        W46901   3.704   9.950   2.072 -0.2508 -0.2994 -0.0291
30428W        W46902   5.730   6.318  14.779 -0.0234  0.2912  0.0357
30429W        W46903   9.999   5.785  11.929  0.2464  0.2647 -0.0006
30430W        W46904   7.995   5.723  11.260  0.0698 -0.1071  0.1326
30431W        W46905  19.033  10.339   1.807 -0.1476 -0.0101  0.3465
30432W        W46906   3.668  10.779  10.549  0.0301 -0.0228  0.0630
30433W        W46907   7.230   2.795  12.515 -0.0495  0.2627 -0.2422
30434W        W46908   7.801  10.663  14.401 -0.0036  0.1532  0.0218
30435W        W46909  12.655   5.892   0.076 -0.0526 -0.1548 -0.0666
30436W        W46910   7.221  16.496  11.235 -0.2616 -0.1465 -0.1508
30437W        W46911  16.163  18.232  13.585 -0.1381  0.1162  0.4950
30438W        W46912   6.214   0.056   4.673 -0.1128 -0.2086 -0.3717
30439W        W46913  10.429   6.056  13.636 -0.1670  0.1112 -0.0746
30440W        W46914   3.727   3.251   3.739  0.0897  0.2391  0.0675
30441W        W46915  14.517  12.428   0.583 -0.0121 -0.1138  0.0917
30442W        W46916  12.345  10.369  10.325 -0.3061 -0.1213  0.1071
30443W        W46917  16.497  13.056   1.002 -0.1592  0.3500 -0.0092
30444W        W46918   2.293   8.925   4.564 -0.1544  0.2671 -0.0788
30445W        W46919   1.937   9.028   5.530 -0.3632  0.0315  0.1327
30446W        W46920  13.029  13.974   3.571 -0.2663 -0.1322 -0.0255
30447W        W46921   6.968   6.849  11.028  0.0639 -0.1611  0.3230
30448W        W46922   6.285   4.559   0.170  0.2957 -0.2080 -0.4066
30449W        W46923   0.333  12.359  12.802  0.1213 -0.0113 -0.5539
30450W        W46924   7.530   9.502   2.678 -0.2370  0.4014 -0.0897
30451W        W46925   2.663   3.667   1.748 -0.0782 -0.0545  0.3909
30452W        W46926  12.316  15.393   1.304 -0.1409  0.0603 -0.1171
30453W        W46927   2.434  17.750  12.822  0.1499  0.0991 -0.2903
30454W        W46928  10.811   3.359   2.093  0.0728  0.3544  0.0776
30455W        W46929   9.105   5.521  11.386  0.2135 -0.0862 -0.0258
30456W        W46930  12.364   7.447   0.797  0.0543 -0.1367 -0.0428
30457W        W46931  16.844   4.740  13.871 -0.5511 -0.1077 -0.4233
30458W        W46932  16.188   2.751  10.715  0.2614 -0.2512  0.2185
30459W        W46933  14.272  17.879   1.272  0.1998  0.0353 -0.0012
30460W        W46934  17.288   8.765   2.459  0.1077 -0.0034 -0.2437
30461W        W46935   5.006   9.220  10.871  0.0622 -0.1715  0.2377
30462W        W46936  15.336   8.781  14.600  0.0602 -0.1168 -0.0568
30463W        W46937  10.363   4.900  10.369  0.0798  0.1557  0.0793
30464W        W46938   2.501  14.321  14.832  0.0495  0.4449  0.1530
30465W        W46939   8.199  16.931   0.746  0.0024  0.2483  0.0793
30466W        W46940   7.097   6.643   1.038  0.3592  0.1136 -0.1384
30467W        W46941   9.310   1.730  13.854 -0.0150 -0.3750  0.2373
30468W        W46942   9.072  10.432   1.501  0.2610 -0.0768  0.0091
30469W        W46943  18.039  10.995   0.249  0.1787 -0.3984 -0.0494
30470W        W46944   1.034   0.314   0.840  0.0811  0.3913  0.1146
30471W        W46945  11.969   4.838   5.079  0.4591 -0.1480 -0.2182
30472W        W46946   9.655  19.009   3.376  0.1122 -0.0347  0.3032
30473W        W46947  10.976   6.200   4.827 -0.1049 -0.1372  0.0025
30474W        W46948   8.444   7.643  10.647  0.0200  0.2853 -0.0658
30475W        W46949  14.805   1.008   2.720  0.1014  0.4082 -0.0997
30476W        W46950  10.487  13.357  13.975 -0.1709  0.3715 -0.1880
30477W        W46951  15.698  14.575  12.291 -0.3206 -0.0628  0.1245
30478W        W46952   2.940  12.283   5.102  0.1019  0.3383  0.1731
30479W        W46953  15.087   7.936   1.129  0.0303  0.1832 -0.1976
30480W        W46954   4.091   8.716   5.241 -0.1794 -0.0772  0.0286
30481W        W46955   7.680   4.401   2.188 -0.1455 -0.0600  0.1203
30482W        W46956  15.270  14.145   2.346 -0.1244 -0.0621  0.2095
30483W        W46957   8.220   4.124   3.997  0.2253  0.0973  0.1528
30484W        W46958  16.275   2.912   1.537 -0.2784 -0.0752 -0.0079
30485W        W46959  18.951  19.101   2.267  0.3434 -0.1043  0.2842
30486W        W46960  19.379   0.799  14.506  0.1328  0.2806  0.1529
30487W        W46961  11.232   1.457   5.033 -0.3410 -0.0680  0.3916
30488W        W46962   3.904   4.679   0.869  0.3697 -0.2756 -0.0944
30489W        W46963   6.579   9.237  10.486  0.0323 -0.1573 -0.0458
30490W        W46964   1.059   5.115  11.175 -0.0647  0.3287  0.1395
30491W        W46965  11.183   0.056  14.624 -0.1659  0.0407  0.0648
30492W        W46966  14.031   6.448  11.868 -0.1753 -0.1108  0.0774
30493W        W46967  18.552  13.043   0.859 -0.0674 -0.4884 -0.1489
30494W        W46968   3.220   2.478   1.428  0.1603  0.0741 -0.4121
30495W        W46969   7.692   5.553   9.786 -0.0466 -0.3136  0.0848
30496W        W46970   8.161   7.308  10.901 -0.2165 -0.0683 -0.1001
30497W        W46971  16.686   3.657   3.987 -0.0869 -0.3406  0.0453
30498W        W46972   9.296  16.379   2.781  0.4775  0.2694  0.1691
30499W        W46973  11.591   4.792   1.841  0.3373  0.1168 -0.0631
30500W        W46974   7.428  11.468  10.855 -0.1043  0.0214 -0.2207
30501W        W46975   6.857  17.588   2.898  0.2391 -0.0212  0.2385
30502W        W46976   3.001   1.742  10.953 -0.1575  0.1025 -0.2853
30503W        W46977  10.399   0.760  14.271 -0.1850 -0.0295 -0.0124
30504W        W46978   0.381   5.375   4.689  0.0014  0.0590 -0.2961
30505W        W46979   8.905   3.820   1.933  0.0357  0.3340 -0.1425
30506W        W46980  13.171   3.983  11.293 -0.2085 -0.1906  0.3360
30507W        W46981  14.817  16.511   4.779  0.0522  0.0206 -0.3532
30508W        W46982  17.097  17.354   3.187  0.1573 -0.1802 -0.1998
30509W        W46983   4.728   7.497  13.454 -0.0434 -0.3306 -0.0936
30510W        W46984   4.120  10.525   3.662  0.0454  0.1240 -0.5194
30511W        W46985   1.031   2.937   3.911  0.0533  0.0284  0.3567
30512W        W46986   7.949   3.157  10.678 -0.0093  0.1704  0.1454
30513W        W46987  15.172   3.493   4.811 -0.1246  0.1978 -0.1538
30514W        W46988   4.551   1.469   9.673 -0.1462  0.0255  0.3334
30515W        W46989  14.382   0.002   4.329  0.4342 -0.0534 -0.0971
30516W        W46990   4.827  11.711   1.593 -0.0350 -0.2745  0.1864
30517W        W46991   9.774  15.515  11.849 -0.0290 -0.0580 -0.0832
30518W        W46992   7.261  14.813  14.085  0.0537  0.1899  0.3150
30519W        W46993   9.995  15.147  14.418 -0.3595  0.2050  0.1460
30520W        W46994   9.239   3.205  10.306 -0.1272 -0.0443  0.4759
30521W        W46995   1.702  10.287   4.626 -0.1905  0.1072  0.2119
30522W        W46996  12.900   5.834   2.886  0.3992  0.3575 -0.0836
30523W        W46997  17.598   9.263  12.645 -0.2136  0.1323  0.5856
30524W        W46998  17.203  12.647   0.964  0.0998 -0.3291 -0.1505
30525W        W46999  17.101  17.804   2.487  0.2066 -0.2145  0.2123
30526W        W47000   1.947   3.808   3.835  0.1395 -0.1810  0.2042
30527W        W47001   1.628  18.329   4.321  0.2375  0.1113  0.0141
30528W        W47002   3.110  14.188  14.300  0.1485 -0.0854 -0.2570
30529W        W47003  19.206   1.304  11.013  0.0238  0.4002  0.1854
30530W        W47004  16.754   4.875   2.080  0.0490 -0.4456  0.0414
30531W        W47005   9.244  18.250   5.037 -0.2267 -0.0001 -0.0868
30532W        W47006   8.786  14.713  10.902 -0.1730  0.4267  0.2522
30533W        W47007  18.348  16.634  14.164  0.0718 -0.1302  0.1167
30534W        W47008   8.796   5.164  12.409 -0.2656  0.0462 -0.0066
30535W        W47009  14.639  14.788   4.884  0.2910  0.0092  0.0621
30536W        W47010  12.165  18.125   0.546 -0.1182  0.0112  0.1559
30537W        W47011   8.886  13.711  11.431  0.1504 -0.1834 -0.0025
30538W        W47012   3.586  18.558   3.632 -0.2230  0.3071 -0.1759
30539W        W47013  15.015   5.493  11.125 -0.0967  0.1695 -0.0322
30540W        W47014  12.484  18.076   2.340 -0.2306 -0.1787  0.1399
30541W        W47015  18.445   5.850  14.242 -0.6642  0.3471  0.0725
30542W        W47016  17.074  11.026  14.051  0.0401  0.0236  0.2394
30543W        W47017  17.130   2.521  12.568 -0.0005 -0.1349 -0.1529
30544W        W47018  16.740  13.424  10.836  0.1690 -0.0371 -0.0983
30545W        W47019   2.407   0.007   9.529 -0.2993 -0.1054 -0.0964
30546W        W47020  13.664  10.116   1.046 -0.0673  0.2621 -0.0922
30547W        W47021   2.711   7.315  11.825  0.0617  0.0365  0.0822
30548W        W47022  12.797   7.622   1.180 -0.2634  0.1454  0.0000
30549W        W47023   3.015   8.855  12.826 -0.1408 -0.2007  0.1668
30550W        W47024   4.272   0.137  13.627  0.0681 -0.1113 -0.1729
30551W        W47025   5.661  10.754   4.345 -0.0763  0.0969 -0.0882
30552W        W47026   0.039   0.865  12.154 -0.0943 -0.1374 -0.0498
30553W        W47027   9.600   3.487   0.607  0.3966  0.1705 -0.0272
30554W        W47028   1.898   8.562   2.164  0.1716  0.1990  0.3051
30555W        W47029   6.532  17.968  14.512  0.0134  0.0400  0.0299
30556W        W47030  17.660  18.346   1.749 -0.2208 -0.0732 -0.4029
30557W        W47031  16.891   4.778   2.872 -0.1968 -0.0223 -0.2412
30558W        W47032   5.791   8.597   1.059  0.0733 -0.0436 -0.0360
30559W        W47033  18.209  11.695  13.369  0.0256 -0.0596 -0.1894
30560W        W47034  13.035   0.640   4.059  0.2206 -0.2203 -0.1185
30561W        W47035   6.526   8.151  10.858  0.2151  0.3279  0.4097
30562W        W47036  16.392   8.006  13.453  0.1392 -0.2476  0.1220
30563W        W47037   1.023  13.919  11.991 -0.0520 -0.2126  0.2016
30564W        W47038  11.049   2.800   3.335  0.0320  0.1064  0.1997
30565W        W47039  14.943  10.243  13.197  0.1635 -0.1650 -0.1027
30566W        W47040  15.396   2.159  10.866 -0.1702 -0.3939 -0.0999
30567W        W47041  12.497   0.425  12.036 -0.3442  0.1408 -0.3604
30568W        W47042   1.833  18.905  11.883  0.0031 -0.3974  0.0432
30569W        W47043   5.572  15.658   3.395 -0.3472 -0.2234 -0.3652
30570W        W47044   8.356   0.691  11.583  0.1013  0.0659  0.3070
30571W        W47045   3.845   1.892  10.564 -0.3398  0.0614  0.2155
30572W        W47046   5.332  15.081  12.664 -0.2848  0.3827 -0.0618
30573W        W47047  17.633  14.845  11.269  0.2398  0.1014  0.3227
30574W        W47048  19.152  14.420  10.059 -0.2039 -0.3636 -0.0315
30575W        W47049   8.524   3.633   2.659  0.3598 -0.0258  0.0194
30576W        W47050   7.720  11.601   3.365  0.1423 -0.0350  0.0603
30577W        W47051   4.989   8.205  11.646 -0.1220 -0.5814  0.1258
30578W        W47052  11.976   3.314   2.499 -0.1398  0.1024 -0.0656
30579W        W47053   7.654   3.502   1.763 -0.1746  0.0606 -0.1958
30580W        W47054   7.897  13.469   4.570 -0.3339  0.0138 -0.1529
30581W        W47055  11.884   2.364  12.302  0.1138  0.0887 -0.0070
30582W        W47056   9.187  16.974   3.080  0.5520 -0.0155 -0.0041
30583W        W47057  15.383  11.176  11.106  0.3150 -0.2226 -0.1238
30584W        W47058   9.105  18.616   4.225 -0.2017  0.1648 -0.0657
30585W        W47059   1.088   8.023   4.795  0.0252 -0.3555 -0.2172
30586W        W47060  16.105   3.602   3.374 -0.0610  0.0196 -0.1381
30587W        W47061  16.957   6.051   1.169 -0.2645 -0.2309 -0.0885
30588W        W47062   9.922  13.777   9.667  0.0729 -0.0640 -0.0928
30589W        W47063  12.597  16.877   5.211 -0.0983  0.2189 -0.0078
30590W        W47064   2.539   6.742   4.208 -0.0887 -0.4335 -0.3216
30591W        W47065   8.744  14.906  10.436 -0.4306 -0.0552  0.3370
30592W        W47066   3.812   7.905   0.728  0.3630  0.2357 -0.0090
30593W        W47067   6.195   1.904   1.743 -0.1249  0.1215  0.0499
30594W        W47068   4.476   0.511   2.682  0.0098  0.0444  0.3134
30595W        W47069   5.207   3.569   4.642 -0.1597 -0.0604  0.2231
30596W        W47070  11.885  19.032  11.020 -0.1995 -0.1555 -0.0810
30597W        W47071  17.781   7.763   1.368  0.1133  0.0737 -0.2124
30598W        W47072   1.383  14.395   0.176 -0.0344 -0.0843 -0.1137
30599W        W47073   4.069   3.183  11.854 -0.3534  0.0250  0.0295
30600W        W47074  10.344  10.874  13.861 -0.3025  0.0732 -0.2456
30601W        W47075  15.007  18.349  12.352 -0.2926  0.1086  0.0472
30602W        W47076   4.848  18.774  14.797 -0.5015 -0.0506 -0.4155
30603W        W47077   1.030  13.223  11.389  0.0317 -0.1704 -0.2745
30604W        W47078   0.364   8.270   0.177 -0.1599 -0.0706 -0.0845
30605W        W47079  17.724  11.592  11.596 -0.0169  0.0719 -0.0260
30606W        W47080  10.902  16.404  11.560 -0.1405  0.1696 -0.1586
30607W        W47081  16.516  12.363   5.661 -0.1666 -0.0168 -0.3013
30608W        W47082   3.887   1.548   0.582  0.1517 -0.0875 -0.0084
30609W        W47083  17.180   1.878  11.329 -0.1718 -0.2130  0.1193
30610W        W47084  14.853  15.613  14.520  0.0194  0.0697  0.0752
30611W        W47085   4.447   5.933   2.026 -0.2839 -0.1486 -0.0958
30612W        W47086   0.645  16.926   2.510  0.0174 -0.2608  0.0458
30613W        W47087   4.747   6.038   4.621  0.2814  0.0970  0.0734
30614W        W47088  17.072   2.298   2.581 -0.1200  0.2776  0.0109
30615W        W47089  14.350  11.742  14.167  0.1348  0.1022 -0.1417
30616W        W47090  11.574   1.077  12.232  0.1754 -0.1215  0.4916
30617W        W47091   5.276  13.019  13.025  0.0260  0.4148 -0.1568
30618W        W47092  10.466  16.127   4.747  0.0331  0.4291  0.1279
30619W        W47093  10.672   7.479  12.953  0.1631 -0.0957 -0.0307
30620W        W47094   1.651   8.147  14.252 -0.1750  0.0940 -0.0738
30621W        W47095   9.551  11.565  12.844  0.1456 -0.0245 -0.3643
30622W        W47096  16.626  11.377   0.827 -0.1155 -0.0792  0.1233
30623W        W47097   7.389  13.428   5.101  0.2467  0.7277  0.1018
30624W        W47098  12.901   6.853   0.782  0.0767 -0.1502 -0.0133
30625W        W47099  17.958   6.036   2.664 -0.2675 -0.1107 -0.1845
30626W        W47100   5.249  10.738  12.896  0.0551 -0.0723 -0.1872
30627W        W47101  16.467  13.297  12.761  0.1119 -0.1605 -0.1805
30628W        W47102  14.804   5.539   9.467 -0.0347  0.0056 -0.0026
30629W        W47103  17.869   4.380   5.805 -0.1284 -0.1061  0.2290
30630W        W47104  17.865   8.717   3.167 -0.1693 -0.1700  0.1115
30631W        W47105   3.596  18.628   2.444 -0.0583  0.2244 -0.2833
30632W        W47106  10.144  17.791  13.389 -0.0601 -0.2213 -0.1107
30633W        W47107   6.689  10.598   0.975 -0.0947  0.0854  0.1568
30634W        W47108   2.381   7.298  13.376  0.2457 -0.0062  0.3269
30635W        W47109   8.056   9.037   0.701  0.1054  0.3399  0.0632
30636W        W47110   6.509   5.051   9.671 -0.1261 -0.1027  0.2101
30637W        W47111   4.988  16.124   0.130 -0.0654 -0.2024  0.3060
30638W        W47112  12.887  10.386   4.631  0.1625 -0.0274  0.0359
30639W        W47113  19.008  14.843   5.230 -0.0032 -0.1935 -0.2478
30640W        W47114   0.978  12.690   2.985 -0.0564 -0.0409  0.2419
30641W        W47115   3.607   5.566   0.572 -0.0115 -0.0697  0.1549
30642W        W47116   2.506   7.288  13.874  0.0786 -0.0420  0.3384
30643W        W47117  16.040  17.985   1.494 -0.0889 -0.1574  0.0883
30644W        W47118   8.949  17.820   5.087 -0.0667 -0.2736  0.0696
30645W        W47119  16.245  18.118   4.997  0.0242  0.0931  0.0118
30646W        W47120   7.838  14.430   3.702  0.1546 -0.1969  0.1765
30647W        W47121   3.841  14.935   4.481  0.0455  0.3576 -0.2405
30648W        W47122  15.800   2.841   9.742  0.1406  0.0520 -0.0517
30649W        W47123  14.136   0.004  11.801 -0.2239  0.0807 -0.1719
30650W        W47124   2.980   9.111  13.543  0.0173 -0.2431 -0.1744
30651W        W47125   3.235   6.620  11.512  0.2709  0.3601  0.0717
30652W        W47126   9.456  18.276  14.413  0.0006 -0.5126 -0.1295
30653W        W47127  17.675  13.406   4.051  0.1045  0.0505 -0.1290
30654W        W47128  18.347  10.042   3.330 -0.0610  0.1895 -0.0659
30655W        W47129  12.647  19.204   3.458 -0.1773  0.1807 -0.2216
30656W        W47130   5.660  15.011  12.254 -0.2305 -0.1889 -0.0679
30657W        W47131  13.466  13.125   0.181  0.3289 -0.3648 -0.0596
30658W        W47132  18.904   7.667  12.378  0.0827 -0.0320  0.0020
30659W        W47133  16.788  18.546  12.935 -0.2493 -0.1093  0.0940
30660W        W47134  12.857   9.592  13.058 -0.3095 -0.2616 -0.1992
30661W        W47135  17.665  18.741   4.119  0.2478  0.4112  0.0390
30662W        W47136   0.726   2.569   3.149  0.0142  0.1277  0.0150
30663W        W47137  18.660  18.230  11.468  0.1878  0.4561  0.0744
30664W        W47138   9.197  15.908   5.609  0.2329 -0.3103 -0.0920
30665W        W47139   3.063  19.164   1.857  0.0277  0.2191 -0.3134
30666W        W47140   1.891   3.591   2.915  0.0256 -0.2284  0.2541
30667W        W47141   5.425   8.773   0.155 -0.0484 -0.1219 -0.1723
30668W        W47142   1.624  18.286   2.102  0.2012 -0.1003  0.1581
30669W        W47143   0.713  16.841  13.726 -0.2538  0.1028 -0.1076
30670W        W47144   7.325   1.888   4.359 -0.2768 -0.0770 -0.1107
30671W        W47145  15.844   1.723  14.884 -0.0057  0.0128 -0.0739
30672W        W47146  18.162   2.422  12.480 -0.0859  0.1195 -0.0476
30673W        W47147   1.659   6.773   1.731  0.2757 -0.0161 -0.1325
30674W        W47148  17.434  18.011   5.526  0.0770  0.1376 -0.2069
30675W        W47149  15.232   2.076  14.351 -0.1218 -0.1809  0.4020
30676W        W47150  13.058   8.503   1.068  0.0076  0.0967 -0.1888
30677W        W47151  10.692   8.332   0.764 -0.0234 -0.0581  0.0331
30678W        W47152  14.559  10.654  12.132 -0.4631  0.2526  0.2044
30679W        W47153  16.464  12.484   3.320  0.1627 -0.2694 -0.1488
30680W        W47154   6.165   4.232   1.932  0.2772  0.3405  0.4612
30681W        W47155   0.858   8.787   4.277  0.2647 -0.2873 -0.0245
30682W        W47156  18.445   9.206  13.977 -0.1048  0.0388  0.0077
30683W        W47157  12.649   8.110   3.482 -0.2439 -0.0693 -0.0541
30684W        W47158   0.022   8.550   3.315  0.1295 -0.1924  0.1353
30685W        W47159  16.632  13.335   2.700 -0.2357  0.0914 -0.1409
30686W        W47160   9.632   6.796   3.044  0.0819 -0.1657  0.1014
30687W        W47161   3.650   9.440  11.182  0.0479  0.3112 -0.4146
30688W        W47162   2.143  15.072  13.156 -0.0397 -0.1680 -0.1087
30689W        W47163   4.358  18.316  11.038  0.0140 -0.1769 -0.0651
30690W        W47164   6.888  12.284   2.160 -0.0549 -0.2234 -0.2740
30691W        W47165   6.336  18.805   3.300  0.1325 -0.2186  0.1512
30692W        W47166   3.615   6.342   2.179  0.0056  0.3088  0.2273
30693W        W47167  14.649   1.059  14.150 -0.2219 -0.0685 -0.4495
30694W        W47168   8.511  15.116  12.339  0.0434  0.0030  0.1210
30695W        W47169   0.829  17.912   4.581 -0.1537 -0.1209 -0.0578
30696W        W47170   3.331  16.086  11.478 -0.0302  0.0776 -0.0272
30697W        W47171   6.901  15.624   4.466  0.2238  0.1464  0.1427
30698W        W47172  14.990  16.810  13.707  0.0125 -0.3608  0.2464
30699W        W47173   0.544  14.424   9.498  0.3775  0.4921 -0.1045
30700W        W47174   9.363  15.159  11.698  0.0590 -0.2768  0.1844
30701W        W47175  12.238   7.780  13.667 -0.3368 -0.1026  0.0095
30702W        W47176  17.039   2.689   0.541  0.0813  0.0421 -0.3156
30703W        W47177   3.168  10.554  11.496 -0.4515 -0.1054 -0.1038
30704W        W47178  18.291  15.857   1.749  0.1398 -0.1531  0.0200
30705W        W47179  13.371   7.577   3.990  0.4061  0.1601 -0.0478
30706W        W47180  12.210   2.490  12.680  0.5124 -0.2906 -0.1779
30707W        W47181  18.491  16.527   5.379  0.4311 -0.1741  0.2870
30708W        W47182   3.658   1.324   0.129 -0.0771  0.0281 -0.2899
30709W        W47183  13.722   6.656  13.176 -0.1999 -0.2719  0.3733
30710W        W47184  15.677   9.997  10.722 -0.0452  0.2991 -0.2560
30711W        W47185  19.236   2.080   3.544 -0.0769 -0.0891 -0.0603
30712W        W47186   6.355   4.021   4.026 -0.2200  0.3219  0.1264
30713W        W47187   3.773  16.250   1.344  0.1849  0.0717 -0.1144
30714W        W47188  16.504   4.002   4.602 -0.1082  0.1057  0.5054
30715W        W47189  11.592   5.222  10.640  0.1546  0.2317  0.1883
30716W        W47190  11.017   6.421  14.037 -0.0930 -0.0832 -0.1681
30717W        W47191  13.760  14.509  14.704  0.3625 -0.2778  0.2055
30718W        W47192   9.501  17.209   5.271 -0.2737  0.2255  0.1114
30719W        W47193   3.864   9.685  13.443 -0.1099 -0.1317 -0.0298
30720W        W47194  13.100   9.461   2.671  0.1039  0.1622  0.3831
30721W        W47195   5.633  14.137   3.533 -0.1512  0.0507  0.3504
30722W        W47196   9.535  10.969   0.935 -0.1593  0.0179 -0.1371
30723W        W47197  16.140   2.004  11.610  0.1512 -0.0148 -0.0209
30724W        W47198  14.067  10.229   0.157 -0.1074  0.1366  0.1736
30725W        W47199  15.011  12.167   0.991 -0.0869  0.1553 -0.2209
30726W        W47200   3.075   5.273  14.222  0.1838  0.0154 -0.1704
30727W        W47201  12.287   1.328   3.190 -0.0632  0.3784  0.3162
30728W        W47202   9.435  16.695   2.159  0.0434 -0.0683  0.1512
30729W        W47203   5.244  17.586   4.699 -0.2063 -0.1956 -0.1968
30730W        W47204  11.611   3.572   2.354  0.0380 -0.1660 -0.1939
30731W        W47205  17.587  16.114   1.686 -0.0412  0.1384  0.1447
30732W        W47206  14.486   7.661   3.869 -0.2058 -0.1946 -0.2084
30733W        W47207   7.515   0.452  11.253 -0.1435 -0.3028  0.1024
30734W        W47208   2.039  12.851   2.167  0.0589  0.0930  0.0424
30735W        W47209  10.891  18.840   2.388 -0.1071 -0.0097  0.2504
30736W        W47210  14.435  10.601   4.437 -0.3318  0.3265 -0.0099
30737W        W47211   5.121  18.941   2.065  0.2183 -0.1876 -0.1022
30738W        W47212  16.978   8.665   0.641  0.0292 -0.0543 -0.0797
30739W        W47213  15.859  18.785  11.492  0.0430  0.1372 -0.1299
30740W        W47214  15.698  11.291  11.605  0.2335  0.0739 -0.2024
30741W        W47215   7.049   6.831   0.552  0.3206  0.0642  0.0051
30742W        W47216   2.310   5.555   1.003 -0.0537  0.0994 -0.2030
30743W        W47217   0.499   3.930  12.946 -0.1596  0.3540 -0.0670
30744W        W47218  15.678  14.781   5.561 -0.0207 -0.0015 -0.1852
30745W        W47219   5.115   6.288   0.047  0.0460  0.0702  0.0996
30746W        W47220  16.879   0.916   0.292 -0.3434  0.0866 -0.2545
30747W        W47221  15.601  10.339  11.595  0.1196 -0.0705  0.3239
30748W        W47222  14.153   0.383   1.161 -0.4088  0.0892 -0.1288
30749W        W47223  10.987  10.779   9.914  0.0572  0.4662 -0.0077
30750W        W47224   6.592  15.374   3.576  0.2592  0.0144  0.3288
30751W        W47225  12.640   2.245  12.483  0.1168  0.1019  0.0484
30752W        W47226  11.346  11.561   2.747 -0.1798 -0.1608  0.0894
30753W        W47227  15.803  13.111  14.758 -0.2905 -0.0236 -0.1381
30754W        W47228   9.526  16.198   5.162  0.0998 -0.2532 -0.2404
30755W        W47229   2.188  17.752  14.337 -0.4912  0.0869  0.0969
30756W        W47230   6.711  17.485  10.445 -0.2518  0.1432 -0.2454
30757W        W47231   9.568   2.184   1.613 -0.1405 -0.0797 -0.3329
30758W        W47232   9.049   4.749   1.801  0.0570  0.2874 -0.0742
30759W        W47233   4.824   2.395  12.067 -0.1619  0.2963 -0.3022
30760W        W47234   2.961   4.981  13.365  0.1987  0.0865  0.1540
30761W        W47235  10.158   2.016   9.244 -0.1617  0.1541 -0.0489
30762W        W47236  18.367   0.820  13.969  0.3267 -0.1077  0.1964
30763W        W47237   8.742  18.903   4.093  0.4730 -0.0543 -0.0493
30764W        W47238   9.367   5.469   9.944  0.0118  0.2762  0.0354
30765W        W47239   6.054   5.234   8.943  0.3170  0.2098 -0.1858
30766W        W47240  13.342   6.014   1.278 -0.2846  0.1492 -0.1930
30767W        W47241   5.104  14.983   0.161 -0.3086  0.1495 -0.0369
30768W        W47242  11.016  10.146   0.316 -0.2448  0.1590  0.3377
30769W        W47243   4.678  15.930  13.494 -0.1741  0.3071  0.1434
30770W        W47244  11.391  16.313   5.217  0.3706 -0.4561  0.2341
30771W        W47245  10.761  13.324   4.520  0.0155 -0.1565  0.0152
30772W        W47246   1.599  15.510  14.850  0.0219  0.2119 -0.3897
30773W        W47247   0.050   2.853   1.396 -0.0435  0.1945  0.0801
30774W        W47248  18.905   8.546  13.893  0.0555 -0.2523  0.2746
30775W        W47249   3.533   6.026  10.351  0.1926 -0.1041  0.1840
30776W        W47250  14.967  16.463  14.090  0.0778  0.3014  0.0711
30777W        W47251   6.642  16.812  11.955 -0.3581  0.0469 -0.0053
30778W        W47252  13.181   8.911   4.205 -0.0601  0.2206 -0.1679
30779W        W47253   2.128   8.367  11.291 -0.0061 -0.3387 -0.3218
30780W        W47254   6.347  15.247   2.249 -0.0312 -0.0330  0.1858
30781W        W47255   6.892   1.785   4.177  0.1644 -0.1872  0.1543
30782W        W47256   1.820   3.962  13.394  0.1065 -0.1773  0.1703
30783W        W47257  11.775   8.016   1.917 -0.0582 -0.1507 -0.1663
30784W        W47258   6.415  10.681   1.545  0.0714  0.3944 -0.0290
30785W        W47259   5.674   2.147  11.611 -0.2299 -0.1892 -0.0535
30786W        W47260  12.048   2.523   1.459  0.0849  0.0664 -0.0658
30787W        W47261   8.669  12.859   2.291 -0.0952 -0.0747  0.0807
30788W        W47262   2.746  11.865  10.620  0.3028 -0.3392 -0.0723
30789W        W47263   2.570   6.096  14.659 -0.0152 -0.2532  0.3752
30790W        W47264   7.755  12.006  12.816  0.0601 -0.1118  0.0356
30791W        W47265   7.650   7.039  12.589 -0.0484  0.1288 -0.0569
30792W        W47266  16.768   0.130  10.558 -0.1107  0.1073 -0.0073
30793W        W47267  13.255   6.599  13.372 -0.2672 -0.1649  0.0229
30794W        W47268   3.602   6.087  13.201  0.1234  0.1726 -0.2590
30795W        W47269  11.241  17.806   2.282 -0.0619  0.2241  0.0021
30796W        W47270  15.054  12.100  14.008 -0.1593  0.0126  0.2179
30797W        W47271   3.825  17.705  11.677  0.0635 -0.1692 -0.1571
30798W        W47272  12.743   6.031  14.464 -0.1007  0.2654  0.0071
30799W        W47273  16.318  12.392  12.076  0.0417  0.0528  0.2817
30800W        W47274  15.443   5.697   3.509  0.3007  0.0701 -0.3144
30801W        W47275  18.342   7.829  14.116 -0.2067 -0.1607 -0.1583
30802W        W47276  13.785   5.944  10.909 -0.1596  0.2493  0.0268
30803W        W47277   5.974   1.549   0.504 -0.0246  0.0174 -0.0064
30804W        W47278  12.654   8.609   4.772 -0.2097 -0.1575  0.3392
30805W        W47279  14.253  10.274   4.766 -0.0473  0.0563  0.0724
30806W        W47280  10.175   6.116  10.163  0.1641  0.2626  0.1315
30807W        W47281   9.767   0.934   2.756 -0.1275 -0.2940  0.0641
30808W        W47282   9.908  13.366   0.346  0.0709  0.1867 -0.1632
30809W        W47283   3.673   8.077  13.082 -0.1219 -0.1709  0.1823
30810W        W47284  12.756  14.917   5.364  0.1755  0.2570  0.0485
30811W        W47285  13.538   8.625  12.596 -0.3098  0.1409  0.1072
30812W        W47286  12.077  17.294  14.242 -0.1993 -0.0931 -0.1296
30813W        W47287   3.995   7.588   2.455  0.1675  0.1236 -0.4033
30814W        W47288  19.046  10.552   5.271  0.0548  0.0666  0.1569
30815W        W47289  14.316   7.271  14.436 -0.3881  0.0458 -0.1666
30816W        W47290  11.113  14.827   4.062  0.1010 -0.0923 -0.0032
30817W        W47291   3.592   9.432   2.495 -0.0259 -0.0826 -0.0547
30818W        W47292   2.965   8.621  13.732 -0.1905  0.0972  0.1257
30819W        W47293   5.669  17.755   4.248 -0.2580  0.0332  0.2683
30820W        W47294   4.398  10.476   1.856 -0.0688  0.0184  0.0570
30821W        W47295  11.424   6.839   3.102  0.3020 -0.1454 -0.2556
30822W        W47296  14.759   1.418   0.978  0.2081  0.1677  0.1541
30823W        W47297  15.233   7.606  11.566 -0.3453 -0.0002  0.0401
30824W        W47298  15.364  11.153   1.885  0.0745 -0.1486 -0.0396
30825W        W47299   2.152   8.969  12.319  0.0556 -0.2238  0.1357
30826W        W47300  18.136   4.802   4.444  0.0771 -0.1252  0.0390
30827W        W47301   6.853  15.598   4.954  0.2283 -0.1246  0.0370
30828W        W47302   7.776   5.077   1.543  0.0801  0.1993 -0.2773
30829W        W47303   2.581  18.040   1.209  0.1956  0.0289 -0.0462
30830W        W47304  11.513   5.745   4.269  0.1448  0.0359 -0.1158
30831W        W47305  12.547  10.585   1.313 -0.1200  0.1454 -0.0932
30832W        W47306   7.676  17.447  14.401  0.1442 -0.1740 -0.3330
30833W        W47307  12.005   9.509   1.924 -0.1702 -0.1920 -0.0882
30834W        W47308  11.362  14.037   9.761 -0.3072  0.2832  0.0568
30835W        W47309   2.924   6.386  11.778 -0.1827  0.1158  0.1061
30836W        W47310   9.830   2.411  13.323  0.0162 -0.1938 -0.0910
30837W        W47311   4.181   0.585  11.308  0.2510  0.3102 -0.1405
30838W        W47312  18.973  19.274   0.676 -0.0526  0.0621  0.2653
30839W        W47313   7.194  18.394  12.619  0.3961  0.0580  0.4153
30840W        W47314   7.929  17.611   4.723  0.1504  0.0131  0.1948
30841W        W47315   0.340   0.879   2.787  0.0021 -0.1095  0.0228
30842W        W47316   1.683   6.929  12.347  0.1069  0.0436 -0.1105
30843W        W47317  10.037  11.281  10.159  0.1829 -0.2482 -0.1420
30844W        W47318   6.817   7.274  13.914 -0.0581  0.0939  0.1259
30845W        W47319  12.749   5.384   3.740 -0.4141 -0.0562 -0.1241
30846W        W47320  12.134   5.091  13.532 -0.0271  0.0251  0.3169
30847W        W47321   6.183   2.228  11.383 -0.1726  0.0668 -0.1946
30848W        W47322   0.726   5.636  13.862  0.1800 -0.1655 -0.0903
30849W        W47323  11.150  10.512   3.656 -0.1886 -0.0379  0.0868
30850W        W47324  13.522   4.097  10.790  0.1880  0.0530 -0.1354
30851W        W47325  14.159  10.853   0.908  0.0707  0.0802 -0.1364
30852W        W47326   2.810   8.532   3.184  0.1637  0.1601  0.0409
30853W        W47327   0.611   2.342   1.424  0.0597  0.2973 -0.2411
30854W        W47328   2.323   5.498  14.862  0.0317  0.0457 -0.0761
30855W        W47329  16.994   8.994   9.574  0.0888  0.2715  0.2289
30856W        W47330   9.788  19.067  14.619 -0.1114  0.0178  0.1288
30857W        W47331   0.483   8.497   4.465  0.1098 -0.2344 -0.4284
30858W        W47332  12.942   0.262   3.668  0.1842 -0.0176 -0.2236
30859W        W47333   5.624   9.216   0.194  0.2448 -0.0370  0.4219
30860W        W47334   9.013  12.727  10.815  0.0169 -0.2035  0.2684
30861W        W47335   8.117  13.625   0.854  0.3022 -0.0340  0.0646
30862W        W47336   7.813  18.794  13.871 -0.2310 -0.0343 -0.1065
30863W        W47337   0.450   8.199   5.314 -0.0436 -0.1842 -0.0088
30864W        W47338  16.859  12.081  13.035  0.2891  0.0461  0.2182
30865W        W47339  13.867  15.200   0.353 -0.1944 -0.2118 -0.0676
30866W        W47340   5.735   3.834  14.843  0.2056 -0.3240  0.1482
30867W        W47341   7.066  17.054  10.376  0.2994  0.1136 -0.1470
30868W        W47342  11.551   7.595   2.108  0.0354  0.1929  0.2853
30869W        W47343  16.205   3.932   2.583  0.1320  0.0626  0.0178
30870W        W47344   2.495   5.493   3.936 -0.0352  0.0008 -0.0887
30871W        W47345  10.137   1.676   4.949 -0.0995  0.0296 -0.3458
30872W        W47346   0.256  19.091  13.266  0.2132  0.2625 -0.2536
30873W        W47347  15.366  13.947  13.876  0.1923  0.2171  0.1995
30874W        W47348  11.875  16.242  12.927 -0.0613  0.0817 -0.2805
30875W        W47349   7.966   1.812   2.275 -0.1800 -0.1611 -0.1586
30876W        W47350   0.075   1.156   4.940 -0.0210  0.2107  0.2785
30877W        W47351  14.581  17.124  11.440 -0.2174  0.1529 -0.0522
30878W        W47352   6.032  10.685   0.105 -0.0469 -0.1866  0.0557
30879W        W47353  15.224  12.751  11.421  0.0749 -0.0678  0.1304
30880W        W47354   6.899   6.703  10.522  0.0714 -0.0087 -0.1629
30881W        W47355   1.024  19.016   3.340 -0.1820  0.1557 -0.2474
30882W        W47356   7.535   9.754  11.052 -0.0130 -0.0811  0.1221
30883W        W47357   6.884  17.348   0.605  0.1047 -0.4302 -0.2026
30884W        W47358   1.076   2.926   2.747 -0.0688 -0.1503 -0.1902
30885W        W47359  11.400  15.842   1.087  0.1196 -0.0751 -0.1470
30886W        W47360   1.364   3.839   2.188 -0.0854 -0.0153 -0.0368
30887W        W47361   6.995  19.328  14.765  0.1908 -0.0192 -0.1616
30888W        W47362   0.766  16.597   1.632  0.2230 -0.1110  0.0591
30889W        W47363   9.266   6.510   3.874 -0.0440  0.3442 -0.1953
30890W        W47364   3.992  15.880  14.224 -0.3687 -0.0761  0.1649
30891W        W47365  16.369   6.289  10.755  0.2089 -0.0692  0.2054
30892W        W47366  15.921   0.804   2.808 -0.0976  0.1473  0.0054
30893W        W47367   3.500  18.366   4.846  0.2843  0.1217  0.1218
30894W        W47368   6.879   7.952  14.666 -0.1076 -0.1533 -0.0658
30895W        W47369   1.157   1.653  11.759  0.0777 -0.1147 -0.0555
30896W        W47370   8.731   2.097  14.202  0.0332 -0.2330 -0.1478
30897W        W47371   0.970   6.537  10.418  0.3013 -0.4205  0.1689
30898W        W47372  13.806  17.349   3.017 -0.0106 -0.2708  0.0463
30899W        W47373  15.873  11.881   0.841  0.0448  0.3048  0.1353
30900W        W47374  14.271   7.887   5.182  0.1882  0.2455  0.0872
30901W        W47375  13.031  17.211   2.166  0.1045  0.1342  0.0055
30902W        W47376   4.036   0.444   4.853  0.0805 -0.0356 -0.4586
30903W        W47377  12.529  10.574   1.923 -0.1029  0.0144  0.0120
30904W        W47378   1.318   2.085  14.490  0.1560 -0.2286  0.1401
30905W        W47379   5.222   5.887  11.440 -0.1194 -0.0393  0.0481
30906W        W47380   6.569   4.227  13.142 -0.0117  0.0811 -0.2316
30907W        W47381  12.650  14.158  13.575 -0.0958 -0.2476  0.2408
30908W        W47382   7.937   1.942   2.777  0.2019  0.0595 -0.0038
30909W        W47383   5.482  18.276  11.760  0.0260  0.1673 -0.4943
30910W        W47384  16.433   6.625   1.889 -0.1626 -0.0438  0.3643
30911W        W47385  16.011   8.223  13.798 -0.0554 -0.1906 -0.0245
30912W        W47386  18.343  17.759   5.182 -0.0525  0.0023  0.0508
30913W        W47387  10.105  16.406  13.776 -0.5515  0.2546  0.0597
30914W        W47388   2.004  19.157   3.601  0.0532  0.0715  0.1203
30915W        W47389   5.205  18.257  12.632  0.1296  0.0283 -0.1044
30916W        W47390   8.224  12.082  14.133  0.1270  0.0910 -0.3133
30917W        W47391   6.135  13.722  12.382  0.3158 -0.0986  0.0460
30918W        W47392  16.124  14.019   3.318  0.1994 -0.1780 -0.0686
30919W        W47393   7.892   9.566   9.763  0.0100  0.0861 -0.0702
30920W        W47394   4.665  17.772  12.024 -0.0228 -0.0623  0.0787
30921W        W47395   9.043  13.251  13.613 -0.1421  0.0743 -0.1611
30922W        W47396   2.656   4.829   2.373  0.0504  0.1617  0.0811
30923W        W47397  18.482   5.263   1.527  0.1840  0.2450  0.1105
30924W        W47398   9.864   3.748   9.754  0.3395 -0.0063 -0.1000
30925W        W47399   5.800   9.568   1.698 -0.3597  0.0564 -0.0728
30926W        W47400  10.888   3.146   2.854 -0.0110 -0.0402  0.2599
30927W        W47401  10.605   3.775   0.499  0.1715 -0.0973  0.0931
30928W        W47402   0.447   5.117   3.367 -0.2485 -0.2009  0.0632
30929W        W47403  11.950   3.908   3.240  0.0960  0.1954 -0.4237
30930W        W47404   9.901  16.725   1.282  0.3055  0.1069 -0.1964
30931W        W47405  17.245  17.030  11.379  0.1571 -0.2887 -0.2305
30932W        W47406   8.541   2.589  14.044 -0.0519  0.4393 -0.1582
30933W        W47407   7.895   5.278  13.099  0.0271 -0.0528  0.2082
30934W        W47408   7.905   5.760  13.233 -0.0090 -0.0434  0.0342
30935W        W47409  17.728  18.294  10.478  0.0594 -0.3429 -0.1478
30936W        W47410   5.297   4.517   1.691 -0.0548 -0.2487 -0.1841
30937W        W47411  15.422   6.577  10.923 -0.0603 -0.1199  0.2755
30938W        W47412  13.967   4.941   1.578 -0.2114  0.1282 -0.0646
30939W        W47413   1.299   7.668   1.899  0.0114 -0.2181  0.2120
30940W        W47414  10.394  17.357  14.590 -0.0023 -0.1866  0.0366
30941W        W47415   7.222   7.412   4.189  0.3261  0.2237 -0.0523
30942W        W47416   4.389  18.171   4.590  0.0085  0.2131 -0.0224
30943W        W47417   4.299   2.722   3.195 -0.1266 -0.5369  0.0470
30944W        W47418  19.244   1.339  11.926 -0.0408 -0.0847 -0.1897
30945W        W47419   4.827  14.308   3.895  0.0414 -0.1096  0.1359
30946W        W47420   5.325  14.819   2.901 -0.0457 -0.1201 -0.4834
30947W        W47421   2.647   3.425   2.148  0.0462 -0.0761  0.0472
30948W        W47422  11.879  11.230   3.266  0.0756  0.2248  0.3356
30949W        W47423   8.600   3.344   1.905  0.0131  0.2052  0.5066
30950W        W47424   2.763   4.152   3.905 -0.2085  0.1017  0.2202
30951W        W47425   1.967   6.531   2.041  0.0998 -0.0246  0.0571
30952W        W47426  18.602  17.407  10.902  0.1328 -0.4031  0.0761
30953W        W47427  12.056  18.699   3.511  0.0501 -0.1304 -0.2882
30954W        W47428   5.842  18.015  11.280 -0.1088 -0.0815  0.0230
30955W        W47429  12.700  19.364  11.837 -0.0483  0.2158 -0.0146
30956W        W47430  10.814  14.498  12.813  0.1792  0.0990  0.0999
30957W        W47431   1.204  11.999  13.254 -0.2388 -0.2014 -0.1660
30958W        W47432   4.633  12.701   2.811 -0.0386  0.0551  0.0996
30959W        W47433  15.883  15.040   3.103  0.4350 -0.0359  0.3659
30960W        W47434   8.432  10.726  13.180 -0.1980 -0.3238 -0.2679
30961W        W47435  11.261  17.035   0.862  0.0427  0.0783  0.2477
30962W        W47436  16.598  17.428   1.416 -0.0021  0.1692 -0.1130
30963W        W47437   8.028   3.673   2.049  0.3057  0.2423  0.3404
30964W        W47438  11.404  17.419   3.627 -0.2193  0.1243 -0.1001
30965W        W47439  12.760  10.122   2.640  0.0894  0.0676 -0.0600
30966W        W47440   6.221  13.316   0.561 -0.0254  0.0657  0.0214
30967W        W47441  15.189  18.793   4.458  0.2332 -0.3277  0.0261
30968W        W47442  13.243   3.191   2.162  0.1507  0.1245 -0.1680
30969W        W47443  11.760  15.224   1.237  0.3738 -0.2597  0.3676
30970W        W47444   8.589   8.575   2.199 -0.2299  0.2734  0.1560
30971W        W47445  19.158   2.204   4.596 -0.1210 -0.0855  0.2580
30972W        W47446  15.640   7.641   5.019  0.1612 -0.0202 -0.1449
30973W        W47447  10.357  11.644   3.253 -0.1872  0.0474 -0.2900
30974W        W47448   1.884  19.281   4.237  0.2325  0.0138 -0.0826
30975W        W47449  13.984   6.564   1.684  0.2486  0.1338 -0.0482
30976W        W47450   6.702   7.589   3.981 -0.2946 -0.3302  0.2436
30977W        W47451  17.485   5.041  13.475  0.0118 -0.1810 -0.2218
30978W        W47452   8.504  10.892   9.534  0.1640  0.2511 -0.4995
30979W        W47453  13.501  16.803  10.968  0.1461  0.3425  0.0593
30980W        W47454   5.462  15.641   4.460  0.0929  0.2598 -0.1543
30981W        W47455   2.210   8.353  14.287  0.0513  0.3581  0.0499
30982W        W47456  10.444   0.015   2.760 -0.1552  0.1182  0.3088
30983W        W47457   2.397  15.808  14.743  0.0424 -0.1773  0.0676
30984W        W47458  15.977  18.958   1.644  0.2731  0.1237  0.0591
30985W        W47459   0.328   5.622  14.646 -0.0281  0.1967 -0.1279
30986W        W47460  18.546   5.084   0.073 -0.1177 -0.1496 -0.1590
30987W        W47461  18.756   5.107   2.177  0.2495 -0.2326  0.4499
30988W        W47462   6.059   6.293   1.568  0.0499 -0.0082  0.2049
30989W        W47463   6.349  12.885   4.597  0.2357  0.0832  0.0472
30990W        W47464   9.878   2.076   2.023  0.2020 -0.2080  0.1260
30991W        W47465   3.440   2.769   1.135  0.3798  0.1409  0.0122
30992W        W47466  13.477  18.033  11.075  0.0570  0.5390 -0.0398
30993W        W47467   9.831   9.176   4.149 -0.1060 -0.0489 -0.0565
30994W        W47468   9.132  13.902   4.118 -0.3141  0.0972 -0.3029
30995W        W47469  16.623   5.997   2.503  0.2495 -0.0577  0.3468
30996W        W47470   1.117  12.171   2.305  0.1171 -0.2033 -0.1233
30997W        W47471   1.599  17.052  14.006 -0.3281  0.0598 -0.3287
30998W        W47472   1.896   0.231  12.563 -0.0380  0.1388  0.0695
30999W        W47473  15.817  18.610   1.995 -0.2496 -0.3678  0.2643
31000W        W47474  13.752   0.949  12.385  0.0480  0.0839  0.3107
31001W        W47475  17.041  14.379   1.695 -0.0502 -0.0977  0.2694
31002W        W47476  15.978   3.859  12.735 -0.2475  0.2315 -0.1252
31003W        W47477  10.890   6.977  14.196  0.2616  0.1550 -0.2989
31004W        W47478  17.835  13.339  11.404 -0.0070 -0.2779  0.1052
31005W        W47479  12.136   3.017  14.117 -0.0584  0.1408  0.2864
31006W        W47480   7.993   4.824  13.704 -0.0366 -0.1219  0.0369
31007W        W47481  16.728   9.418  12.950  0.1042 -0.1964  0.0357
31008W        W47482  15.033  19.218  12.840 -0.0156  0.1717  0.0571
31009W        W47483   9.820   7.355  11.581  0.1654  0.1444  0.2036
31010W        W47484  18.671  18.445   2.902 -0.1000  0.0825  0.4109
31011W        W47485   5.074  14.185   4.305  0.1518 -0.2334 -0.1224
31012W        W47486   6.560   2.191   4.137 -0.2106  0.1540 -0.1722
31013W        W47487  12.778  11.358  13.135 -0.4626 -0.3757  0.3165
31014W        W47488   1.572   6.403   3.943  0.1016  0.0153  0.3495
31015W        W47489   1.986   3.874   4.913 -0.0172  0.1573 -0.1094
31016W        W47490  14.086  17.101  11.694 -0.0122 -0.5196  0.1650
31017W        W47491  10.376   1.026   1.611  0.0688  0.2862 -0.1023
31018W        W47492   4.199   8.776  12.502  0.0075 -0.2694  0.1368
31019W        W47493   9.175  11.226   2.664 -0.0455  0.2553  0.3152
31020W        W47494   9.330   2.765   9.913 -0.1662 -0.0561 -0.0157
31021W        W47495   3.965  16.847  10.518 -0.0479  0.1873  0.0800
31022W        W47496  11.617  16.476   0.656  0.1764  0.0315 -0.1309
31023W        W47497   8.362  11.941  14.746  0.0127  0.0812  0.0937
31024W        W47498   7.486   6.791  11.879  0.7018 -0.0452  0.0909
31025W        W47499   1.070   5.067  10.199 -0.1379 -0.1569 -0.0787
31026W        W47500  13.297   2.403   0.855  0.3484 -0.0939 -0.2289
31027W        W47501   2.350   9.381   0.418 -0.1017 -0.1314  0.1029
31028W        W47502   4.322  16.232   0.952 -0.0089  0.3043 -0.1716
31029W        W47503  15.787   2.427  10.478 -0.1565 -0.0426  0.0113
31030W        W47504   8.924  11.573   4.020  0.1898  0.1798 -0.1113
31031W        W47505   8.303  18.504   2.530 -0.0111 -0.1773 -0.0631
31032W        W47506  15.225   5.662   0.771 -0.2707 -0.1385  0.0580
31033W        W47507  12.727  16.588   3.527  0.0909 -0.1827 -0.0495
31034W        W47508   7.972   2.290   2.460 -0.1459 -0.0969 -0.0769
31035W        W47509   4.356   9.834   5.531 -0.2362 -0.0291  0.0302
31036W        W47510  14.563   8.986   3.597 -0.3002  0.0085 -0.1625
31037W        W47511  16.455  16.599  10.482 -0.2571  0.0439  0.1192
31038W        W47512  13.323   3.757  11.719  0.3774  0.1305 -0.2312
31039W        W47513  17.446  17.009  13.160 -0.1498  0.1210  0.3012
31040W        W47514  13.683   7.881   1.149 -0.1982  0.1993 -0.2610
31041W        W47515  11.539   5.803  11.906 -0.3742  0.2272  0.1458
31042W        W47516   9.939  17.232   1.388  0.1833  0.1818  0.0552
31043W        W47517  15.602   1.477  13.192 -0.3921  0.0330  0.1473
31044W        W47518  19.024   8.368   5.134  0.0725 -0.2728  0.1841
31045W        W47519  15.231  11.952  13.244 -0.0547 -0.4002  0.1288
31046W        W47520   7.374   5.776   2.435 -0.0364  0.2663  0.1067
31047W        W47521  14.209   7.147  12.564 -0.4169 -0.0147 -0.3556
31048W        W47522  17.767  18.749  12.421  0.0273 -0.0552  0.1361
31049W        W47523  17.044  18.615  11.273  0.2212  0.0282  0.2416
31050W        W47524  12.426  16.559   1.046 -0.1531 -0.0074  0.0789
31051W        W47525  18.825  12.059  10.474  0.2816 -0.2081  0.0165
31052W        W47526  17.856   6.253   2.231 -0.0432  0.0266  0.0232
31053W        W47527  16.454   2.800  13.691  0.2479  0.3083  0.0958
31054W        W47528  18.805   9.190  10.397 -0.3485 -0.0660 -0.0887
31055W        W47529  14.552   5.281  14.383  0.0270  0.0827  0.0250
31056W        W47530   3.926   6.922   4.154  0.0026 -0.0596  0.3338
31057W        W47531  18.771   2.731   2.736  0.3194  0.1040  0.0960
31058W        W47532   8.027   7.106   3.175 -0.0088 -0.2316  0.2773
31059W        W47533  18.323  14.926  12.462  0.2259  0.3532  0.1129
31060W        W47534  18.258   1.380   0.739 -0.1101  0.0465 -0.0812
31061W        W47535   2.646   2.275   5.192 -0.0599 -0.1195  0.0306
31062W        W47536  17.160  17.048  12.746  0.3120 -0.0830  0.0411
31063W        W47537  19.150   6.946  11.700  0.3235  0.3045  0.1611
31064W        W47538   1.743  16.688   1.570 -0.2578 -0.2269  0.4031
31065W        W47539  15.284  15.517   1.728 -0.0572 -0.2608  0.0447
31066W        W47540  16.512   0.358   3.512 -0.1964 -0.1729 -0.2131
31067W        W47541   9.467   3.641   1.166  0.0398  0.0205 -0.0128
31068W        W47542  18.283   2.163   2.852 -0.0351 -0.0662  0.3492
31069W        W47543   1.699  16.629  14.836 -0.2359 -0.2013 -0.2883
31070W        W47544   8.311   4.148   1.683 -0.1107 -0.0939  0.2838
31071W        W47545  16.902  16.164  12.983 -0.1507 -0.0393  0.1013
31072W        W47546  13.772   3.766  14.643 -0.0394  0.1644 -0.0764
31073W        W47547   6.705  18.078   2.678 -0.0811  0.1841 -0.1601
31074W        W47548   6.675  12.797  13.202  0.2000  0.0041 -0.0463
31075W        W47549   3.739   4.360  11.328  0.1659 -0.2447 -0.1235
31076W        W47550   7.136  17.934  12.446 -0.0842 -0.4886 -0.0525
31077W        W47551   7.725  18.871   3.672 -0.0297 -0.1881 -0.3106
31078W        W47552   8.044   7.046   0.779 -0.3498  0.1260 -0.1642
31079W        W47553  11.364   7.160  13.430 -0.1543  0.1164 -0.3279
31080W        W47554  10.931  13.366   2.434 -0.1362 -0.0951  0.3617
31081W        W47555  10.976  18.882  13.361 -0.1138  0.0707  0.0626
31082W        W47556   7.884   9.491   3.928 -0.0002  0.0198  0.0972
31083W        W47557  12.021   7.720   2.289 -0.0782 -0.1062 -0.2184
31084W        W47558  14.737  12.478  12.983  0.0534 -0.0781 -0.1114
31085W        W47559   1.582   5.041   9.678  0.1666  0.2696  0.0671
31086W        W47560  13.817   8.648   1.605  0.0269  0.0461 -0.1151
31087W        W47561  17.771   3.660   2.999  0.1910 -0.1850  0.2518
31088W        W47562  11.400  16.495   1.966  0.1069  0.0195 -0.0602
31089W        W47563  17.562   6.193   5.127 -0.0329 -0.1907 -0.1161
31090W        W47564  13.785  11.599  14.629  0.1183  0.3892  0.0995
31091W        W47565  18.211   2.894   0.215  0.0306  0.0976  0.3096
31092W        W47566  18.317   6.380   2.804 -0.1451 -0.0210 -0.0374
31093W        W47567  10.766   7.660  11.278 -0.0078  0.1711 -0.3995
31094W        W47568   9.291   3.428   4.268  0.0435  0.1646 -0.1399
31095W        W47569  17.464  11.060   6.084 -0.2164 -0.2848  0.1939
31096W        W47570  18.774  19.356   3.141 -0.2882 -0.2997  0.0308
31097W        W47571   2.005  10.719   4.801  0.4938 -0.1035 -0.1935
31098W        W47572   2.117  16.125  11.615  0.2183 -0.1411 -0.1566
31099W        W47573   3.211   3.077   1.404  0.2231  0.1589 -0.0033
31100W        W47574  10.708  11.129  13.648  0.2063 -0.0620  0.0909
31101W        W47575   9.067   8.341  11.222 -0.0331 -0.0009 -0.3641
31102W        W47576   2.776  11.493   4.469 -0.1043  0.2767  0.0781
31103W        W47577   5.509  15.487  11.728 -0.3032  0.6205 -0.0414
31104W        W47578  10.398   0.972  10.279  0.0347  0.0648 -0.2468
31105W        W47579  10.279  11.263  12.906  0.0090 -0.1930 -0.2269
31106W        W47580   7.666   8.700   0.807  0.0041 -0.1350 -0.0078
31107W        W47581   7.993   0.302  14.100 -0.0015 -0.5413 -0.0377
31108W        W47582  12.246  15.210   2.894 -0.2774  0.3804 -0.1405
31109W        W47583   0.320   2.636  12.565  0.0219  0.1253  0.0339
31110W        W47584   4.128  16.194   4.899 -0.0704  0.1490  0.0074
31111W        W47585   7.386   2.313   0.192 -0.2798  0.1755  0.0540
31112W        W47586   7.026   4.824  12.238  0.0979 -0.0253 -0.1323
31113W        W47587   7.739   1.486  14.166 -0.0645 -0.3470 -0.1048
31114W        W47588   0.295  16.536  10.950 -0.2087 -0.1142 -0.0760
31115W        W47589  10.135   3.211  12.817 -0.1494  0.2089 -0.2131
31116W        W47590   6.214   5.650  12.271  0.1694  0.0679  0.1521
31117W        W47591   7.012  17.853   0.593 -0.3352  0.1844 -0.0974
31118W        W47592   9.261   3.753  11.967 -0.0845 -0.0064 -0.1123
31119W        W47593  11.922  16.642  13.796 -0.0589  0.0882  0.3150
31120W        W47594   6.732  11.778   3.289  0.2118 -0.1857  0.0653
31121W        W47595  14.122  13.717   2.215 -0.2575  0.1317  0.1258
31122W        W47596   8.827   0.157  10.735 -0.0097  0.2847  0.4200
31123W        W47597   0.337  11.187   4.883  0.0821  0.0196  0.1086
31124W        W47598  17.262  10.144   4.422 -0.0563 -0.1017  0.1033
31125W        W47599  14.443  18.567   0.365 -0.0253  0.2013  0.2745
31126W        W47600   9.141   3.748   1.546  0.0977  0.2419  0.0653
31127W        W47601   1.766   6.718  11.636 -0.1452  0.1310  0.1669
31128W        W47602   4.998  13.596   0.315 -0.0022  0.2144  0.0373
31129W        W47603   1.497  13.441  14.602  0.2040 -0.0294  0.0335
31130W        W47604   5.758   6.498  12.045 -0.0275  0.3475 -0.0298
31131W        W47605  14.059   4.006  14.338  0.2006  0.2864  0.0055
31132W        W47606   3.710  16.113   4.584  0.3103  0.1801  0.2168
31133W        W47607  12.920  18.863   3.154  0.2053  0.0987  0.3487
31134W        W47608  15.848   1.509   4.890  0.2479  0.1758  0.0188
31135W        W47609   6.972  18.940  12.492  0.0521  0.2570 -0.0671
31136W        W47610  16.919  16.367   0.462  0.0581  0.0394 -0.0717
31137W        W47611  18.130   5.789  11.439  0.1174  0.3365  0.2809
31138W        W47612   1.214   5.804   0.853  0.2186 -0.4029  0.1273
31139W        W47613  10.932  10.566   5.491 -0.0238  0.3422 -0.0918
31140W        W47614   7.302   4.225   1.624 -0.1855 -0.2531  0.2844
31141W        W47615  12.942   6.249  14.838 -0.2099 -0.2738  0.4273
31142W        W47616   5.212   4.232  10.705  0.3043  0.2102 -0.3167
31143W        W47617   6.390  17.727   2.508  0.3694  0.1546 -0.3250
31144W        W47618  14.082   1.597   5.383  0.0365  0.2278 -0.0623
31145W        W47619  15.919  10.583  14.101  0.2379  0.0393  0.0063
31146W        W47620   6.123   0.926   1.914  0.0302  0.3289 -0.0847
31147W        W47621   8.158  12.454   1.645  0.4329 -0.1093 -0.0661
31148W        W47622   3.024  14.112   5.782  0.1147 -0.0155  0.2013
31149W        W47623  10.989   1.482  13.397 -0.3270  0.0338 -0.1176
31150W        W47624   6.448  11.196   2.298  0.2232 -0.0059 -0.0277
31151W        W47625   7.241   7.481  13.632 -0.0082 -0.1809 -0.3641
31152W        W47626  11.663   3.257  12.451  0.3661 -0.3080  0.0255
31153W        W47627  13.107  13.009   1.843 -0.2701  0.2724 -0.0474
31154W        W47628  11.016   1.294  14.311 -0.0628 -0.0437 -0.3207
31155W        W47629  12.444   9.475  14.474 -0.0431  0.1032 -0.1546
31156W        W47630   1.180   8.189   3.699 -0.0043 -0.2813  0.0595
31157W        W47631   7.838  13.052  12.117  0.3222 -0.5090 -0.0026
31158W        W47632  11.046   1.061   4.565 -0.0440 -0.0126  0.2002
31159W        W47633   4.774  19.067  12.550  0.3718  0.0828 -0.1315
31160W        W47634  13.395   2.988   3.238  0.0862  0.0221 -0.0599
31161W        W47635   4.199  11.564  12.257  0.0861 -0.1434 -0.0459
31162W        W47636  13.198   5.455   3.405  0.0559 -0.3368  0.0466
31163W        W47637   7.020  13.255  11.655 -0.0503  0.2586 -0.0230
31164W        W47638  13.600  12.843   3.722  0.1431  0.2149  0.1140
31165W        W47639  16.887   7.953   2.437 -0.3137 -0.1731 -0.1174
31166W        W47640   2.185  12.074   1.703 -0.1476 -0.2568  0.0948
31167W        W47641  10.251   0.821   4.365 -0.3669 -0.0397 -0.3380
31168W        W47642  10.445   4.263  11.236 -0.1630  0.3722  0.2509
31169W        W47643  10.499  12.851  10.452 -0.1825 -0.2524 -0.0800
31170W        W47644  11.762   4.115  10.650 -0.1625  0.2600  0.5799
31171W        W47645   9.507  16.160  10.053  0.0689  0.3582  0.0390
31172W        W47646   0.094  18.939  12.329  0.1174  0.2671 -0.3285
31173W        W47647   3.758  18.638  11.645  0.0591 -0.0366  0.4844
31174W        W47648   8.478   5.736   3.094 -0.2679  0.1707 -0.2408
31175W        W47649   3.092   1.591   9.708  0.0159 -0.3551  0.2988
31176W        W47650  13.250  10.717   0.542 -0.1162  0.0817 -0.0012
31177W        W47651   1.240   7.493  13.690  0.1082 -0.1896  0.1934
31178W        W47652   7.210   0.880   3.884  0.1170 -0.0446  0.0666
31179W        W47653   5.200   3.568  13.017 -0.1584  0.0605 -0.0427
31180W        W47654   0.085  18.856   0.875 -0.0775  0.1338 -0.3671
31181W        W47655  12.112   6.967   1.603  0.0946  0.4954  0.1934
31182W        W47656  16.271  11.397   5.618 -0.2184 -0.3387  0.2285
31183W        W47657   6.657  15.388  12.747  0.3465 -0.0240  0.0242
31184W        W47658  11.497  15.138  11.241 -0.0597  0.0120  0.0442
31185W        W47659  16.324  18.047  11.089 -0.1695  0.0821 -0.0204
31186W        W47660   6.183   1.936   3.987  0.2815 -0.1604 -0.2529
31187W        W47661  10.250  12.014   2.281 -0.4069  0.0506  0.0071
31188W        W47662  17.599   3.304  10.662  0.0626 -0.2985 -0.1695
31189W        W47663   1.674   9.913   2.264  0.1826 -0.1666  0.0809
31190W        W47664  14.901   0.588  10.539  0.0933  0.3799 -0.1074
31191W        W47665   8.467  16.346   5.046 -0.0502  0.2105 -0.0124
31192W        W47666  13.255   2.653  13.631 -0.2079  0.0575 -0.0261
31193W        W47667  17.087   8.522   3.343  0.1127 -0.2548 -0.3697
31194W        W47668  11.662  15.574   0.231  0.0259 -0.3385 -0.1343
31195W        W47669   6.009  11.952  12.886 -0.1832  0.1766  0.1784
31196W        W47670   1.545  16.121   0.720 -0.1360  0.1360  0.0567
31197W        W47671  16.161   0.845   4.299  0.1314  0.0620 -0.1129
31198W        W47672   7.271   9.218   0.091 -0.0021  0.4746  0.1177
31199W        W47673   2.836   7.181  10.239  0.2552  0.1465  0.0561
31200W        W47674   0.471   9.746   2.459  0.0923 -0.0472  0.0610
31201W        W47675  11.702  10.092  13.308 -0.0217 -0.2172 -0.0744
31202W        W47676   2.438  16.596   2.756  0.2486 -0.1839 -0.0455
31203W        W47677  13.058  13.238   2.981 -0.2507  0.1011  0.5778
31204W        W47678  11.463  10.973  13.890 -0.1369 -0.3839 -0.1784
31205W        W47679  10.393  14.923   1.713  0.0836 -0.1383  0.0289
31206W        W47680   3.415  14.831  14.681  0.1929 -0.1804 -0.4878
31207W        W47681  17.972   5.628  14.548 -0.2691 -0.1957 -0.1228
31208W        W47682  15.354  13.159  12.096 -0.0681 -0.1265  0.3169
31209W        W47683   1.589  10.363  11.088  0.0228  0.2161  0.6887
31210W        W47684  17.186  14.219  10.485  0.1298 -0.1165 -0.2000
31211W        W47685   2.370  13.549  13.975 -0.3109 -0.1295 -0.0029
31212W        W47686  15.765  16.553  12.707 -0.0207 -0.0605 -0.2622
31213W        W47687   5.804   3.224  10.554  0.1358 -0.0545  0.1128
31214W        W47688  16.508  10.725  13.347  0.1500 -0.0129  0.0819
31215W        W47689  17.669  10.138   5.154  0.0076  0.0187  0.1423
31216W        W47690  18.054   8.842   3.695  0.3245 -0.0642  0.1020
31217W        W47691  12.180   0.779  10.657  0.2797 -0.0729  0.0508
31218W        W47692   5.943   1.025   0.782 -0.0290  0.0056  0.3251
31219W        W47693   2.764  15.801   4.997  0.2408  0.0621  0.0839
31220W        W47694   2.671   0.758  11.001  0.3199 -0.1168 -0.2755
31221W        W47695   4.764  19.121  10.435  0.2179  0.0443  0.2254
31222W        W47696  16.442   8.812  11.377 -0.0988 -0.1691 -0.0140
31223W        W47697  10.481   4.106   1.694 -0.1108 -0.0701  0.1331
31224W        W47698  19.095  18.261  12.986 -0.1753 -0.1435 -0.2153
31225W        W47699  11.619   9.493  12.658  0.3309  0.0030 -0.1344
31226W        W47700  18.549   2.449  10.482 -0.1847 -0.2252  0.1550
31227W        W47701  15.309  10.622   3.166 -0.0794 -0.0163 -0.0220
31228W        W47702   1.736  10.211   5.166 -0.1974  0.2183 -0.3227
31229W        W47703  16.521   8.706  14.710  0.1586 -0.0831 -0.0497
31230W        W47704  13.419  17.531  12.596  0.2686  0.4241 -0.1529
31231W        W47705  11.328   8.084  14.793 -0.1695  0.2366 -0.1531
31232W        W47706  15.366  12.127   2.227 -0.2905 -0.0632  0.0841
31233W        W47707  16.329   0.198   4.084 -0.3759  0.2345 -0.0912
31234W        W47708   8.076  12.356   9.803 -0.0716  0.4118 -0.2512
31235W        W47709   5.182  16.159   2.211  0.0620 -0.0048 -0.2191
31236W        W47710  10.058  11.093   5.095  0.0275  0.0037  0.0803
31237W        W47711   3.722  17.285  13.508  0.0617 -0.2634 -0.0176
31238W        W47712   1.353   5.478   4.126 -0.0443  0.1286  0.0885
31239W        W47713   7.249   7.652  11.294  0.2614 -0.1609  0.1363
31240W        W47714   6.274   5.224  13.980 -0.1403 -0.0221 -0.1849
31241W        W47715   2.089  10.497  10.666 -0.0769 -0.0916  0.1762
31242W        W47716   8.837   9.717   0.056  0.1517  0.0062 -0.1620
31243W        W47717   6.245  17.391   2.842  0.3449  0.1013 -0.0476
31244W        W47718   5.784  11.784   1.358  0.0956 -0.1019 -0.2769
31245W        W47719   6.627   1.499   3.362 -0.0779  0.4266  0.3591
31246W        W47720   2.666  13.970  12.689 -0.0927 -0.2508  0.0719
31247W        W47721   2.389   3.874  12.079  0.2629 -0.1932 -0.2780
31248W        W47722  14.209   8.263  12.373 -0.0191  0.0596  0.0646
31249W        W47723  11.112  13.496   1.074 -0.0129  0.2445 -0.0361
31250W        W47724  17.161   1.885  13.275  0.2565 -0.0401 -0.2168
31251W        W47725  15.887  11.311  14.826  0.0954  0.0991  0.1036
31252W        W47726  14.009  17.731  14.179 -0.2539 -0.1795 -0.1278
31253W        W47727  15.302  13.745  11.948  0.0881 -0.0356  0.1706
31254W        W47728  13.368  18.042   2.769  0.0291  0.1002 -0.1651
31255W        W47729   4.031  14.897  10.524 -0.0187 -0.1477  0.1158
31256W        W47730  17.826  15.368  12.988 -0.0637  0.3426 -0.1202
31257W        W47731   0.914   2.476   5.353 -0.2670 -0.4038  0.1415
31258W        W47732   1.860   5.642   3.931  0.0585  0.0533  0.3727
31259W        W47733  10.683   8.350  11.227  0.2430  0.4389  0.0614
31260W        W47734   0.044  18.054   2.330  0.2509 -0.0719 -0.0075
31261W        W47735   7.201   8.110   0.196 -0.0571 -0.1428 -0.1190
31262W        W47736  11.117   7.359   1.995 -0.0299 -0.1709  0.0702
31263W        W47737  10.094   2.874   2.332 -0.0670  0.0213 -0.1760
31264W        W47738  16.318   0.038  14.706 -0.2114 -0.0529  0.0901
31265W        W47739   9.505   5.336  11.151  0.0218  0.1248  0.1059
31266W        W47740  17.148   2.442   5.259 -0.1788 -0.2062 -0.1513
31267W        W47741  19.165   4.956  12.672 -0.1177 -0.2609 -0.2896
31268W        W47742   2.747   3.564   1.276  0.1586 -0.1927  0.3801
31269W        W47743   4.508  16.185  12.028  0.1402 -0.0063 -0.0014
31270W        W47744   2.519  16.340   5.078  0.0854  0.0804  0.1214
31271W        W47745  15.381   7.230   0.723 -0.0272 -0.0614 -0.4076
31272W        W47746   1.702   6.645  11.005  0.1350  0.0180  0.2052
31273W        W47747   9.866  10.677   5.406 -0.2808  0.0343  0.2466
31274W        W47748  10.812   8.044   2.752 -0.0955  0.2383  0.2489
31275W        W47749   4.100   0.520   9.976 -0.1026 -0.3351  0.0443
31276W        W47750   9.331   3.859  14.578 -0.4077  0.3423 -0.5136
31277W        W47751  14.960   1.647   3.798 -0.1480 -0.3942 -0.0826
31278W        W47752   9.340  16.785  14.129 -0.0968  0.3082  0.0745
31279W        W47753  12.699  15.820   1.177  0.1908 -0.1214  0.2853
31280W        W47754  14.716  10.474   4.922  0.1426  0.1458 -0.2446
31281W        W47755  13.715  13.791  10.896  0.0166  0.3931 -0.2606
31282W        W47756   9.965   9.860   3.711  0.0321  0.0405 -0.0331
31283W        W47757  14.022  15.985  14.809 -0.1948  0.1483  0.1348
31284W        W47758  12.993   2.913   3.524 -0.0531  0.2185  0.1266
31285W        W47759   8.313  15.607  14.286 -0.0665 -0.1421 -0.1823
31286W        W47760   8.878  18.741  12.318  0.0903 -0.0300  0.2390
31287W        W47761  14.931  11.524  11.318 -0.7518  0.2952 -0.1800
31288W        W47762  18.007   8.182   4.831  0.0642 -0.1997  0.2259
31289W        W47763   2.690   4.620  11.013  0.1395 -0.2191 -0.2125
31290W        W47764  17.337   6.284  11.855  0.0642 -0.0846  0.1746
31291W        W47765  12.979  14.085  11.746 -0.1392 -0.0280 -0.0122
31292W        W47766  13.535   1.659  13.523 -0.0428 -0.0958  0.1295
31293W        W47767  12.059   4.639   9.988 -0.0815  0.2593 -0.1039
31294W        W47768   8.915   5.574   2.790 -0.1826  0.2033  0.3486
31295W        W47769  16.705  16.964  12.633  0.0795  0.2642 -0.0064
31296W        W47770   5.269   6.404   1.469  0.2554 -0.0514 -0.1207
31297W        W47771   7.367  13.300  10.687 -0.1243  0.0547 -0.1388
31298W        W47772  15.128   1.405  12.892  0.2505 -0.1218  0.1465
31299W        W47773   2.259   1.027  14.172 -0.1498  0.0817 -0.0129
31300W        W47774   1.078   3.287  12.294 -0.1343  0.2173 -0.0710
31301W        W47775   9.222  14.843   5.275 -0.1365  0.1158  0.0863
31302W        W47776   7.944   2.152  10.529 -0.0710 -0.0632  0.2200
31303W        W47777   0.573   0.370   2.963 -0.2938 -0.2327 -0.2832
31304W        W47778  17.978   9.659  11.024 -0.3210  0.2362  0.2961
31305W        W47779  16.531   9.798   0.349  0.0336  0.0142  0.0828
31306W        W47780  14.826   5.183   2.718 -0.2443  0.2296 -0.4052
31307W        W47781   0.864   7.353   5.065  0.1451 -0.0425 -0.0163
31308W        W47782   1.405   7.660  11.591  0.1400 -0.0076 -0.2055
31309W        W47783  11.443  12.523  12.318  0.3613 -0.2285 -0.0364
31310W        W47784  11.702  13.364   3.217  0.2790 -0.2160  0.2455
31311W        W47785   9.356  13.398  12.659 -0.0920  0.0449 -0.2173
31312W        W47786  17.010  12.259  13.939  0.3445 -0.2549  0.1007
31313W        W47787  15.755  11.347   0.848  0.0749  0.2163 -0.3380
31314W        W47788  15.988   6.252  14.847  0.1385 -0.2294  0.0608
31315W        W47789   0.960  16.713   4.168 -0.0020  0.2529  0.1628
31316W        W47790   8.136   8.586   4.182 -0.2428  0.0812 -0.1468
31317W        W47791   7.165  14.214  14.691  0.4191 -0.2209 -0.4882
31318W        W47792  17.919  13.076   1.578 -0.1460  0.0943 -0.2032
31319W        W47793   0.525  18.888   2.792  0.1735  0.1557  0.2410
31320W        W47794   1.112   2.335   2.140 -0.1526 -0.1840 -0.0963
31321W        W47795   7.146  17.188   4.005 -0.0660 -0.2686 -0.0227
31322W        W47796  11.346   2.699  13.952  0.0596 -0.3708 -0.0603
31323W        W47797   3.939   1.572  14.073  0.0716 -0.1605 -0.1954
31324W        W47798   4.532  16.176  14.804  0.1552  0.2156 -0.0992
31325W        W47799  19.360   9.057   2.961 -0.2507 -0.0146 -0.1173
31326W        W47800  18.476   4.771  12.945  0.1795 -0.1493  0.0658
31327W        W47801   2.146   0.262   1.088 -0.1507 -0.0358  0.0872
31328W        W47802  14.666  17.436   4.713  0.1340 -0.0454  0.1187
31329W        W47803  18.153   8.253   0.578  0.1118 -0.0563 -0.2037
31330W        W47804   4.510   7.053  13.681  0.3098 -0.4731 -0.0866
31331W        W47805  16.998  16.594  11.248  0.0401  0.3353  0.0055
31332W        W47806   4.131   6.303   1.969 -0.0802 -0.0832  0.2475
31333W        W47807   3.202  17.310   2.450 -0.0827 -0.3110 -0.2266
31334W        W47808  17.147   2.092   9.373  0.1288 -0.2116  0.2130
31335W        W47809   9.224   1.256  11.293 -0.1131  0.2907  0.1887
31336W        W47810  14.748  16.795  14.390  0.0287  0.1871 -0.4435
31337W        W47811  12.427   5.822  13.933 -0.0730  0.2402  0.0567
31338W        W47812   1.286   5.411   2.919 -0.1080 -0.1270  0.0785
31339W        W47813   2.583   2.897  12.170  0.0100  0.0806  0.0651
31340W        W47814   0.540   8.764  10.954  0.0565  0.0619  0.2408
31341W        W47815   3.676  17.245  10.790 -0.0750 -0.2951  0.2237
31342W        W47816  14.863   7.049   0.691  0.0406  0.0949 -0.2337
31343W        W47817   5.675   5.469   9.714 -0.3337 -0.3291 -0.3689
31344W        W47818   1.846  13.692  12.924  0.2794  0.1831 -0.2071
31345W        W47819  18.901  11.586  14.832  0.0444 -0.0926 -0.1111
31346W        W47820  19.359   6.064  13.584 -0.4791  0.1620  0.0228
31347W        W47821  16.305  18.922   4.596 -0.0670 -0.1050  0.0596
31348W        W47822   5.380   0.958  10.577  0.0735 -0.4057  0.0051
31349W        W47823   6.908  18.350   0.538 -0.4035  0.2376  0.2996
31350W        W47824  13.057   1.696   2.231 -0.0422 -0.3740  0.1264
31351W        W47825   9.416  13.371   1.267 -0.2289  0.0689  0.0863
31352W        W47826   6.175   6.786  11.596  0.0990  0.1312 -0.0032
31353W        W47827  18.215  16.974  13.668 -0.2974 -0.0147 -0.1181
31354W        W47828  16.165   9.043   0.068 -0.1312  0.1267  0.1169
31355W        W47829   1.923  18.700   0.097 -0.2018 -0.2094 -0.1880
31356W        W47830   3.351  17.977  12.177  0.3789 -0.3410  0.0307
31357W        W47831   7.988  15.994   1.723  0.0569 -0.0238  0.0425
31358W        W47832   2.552  11.776   1.430 -0.0562  0.2000 -0.1350
31359W        W47833  16.882   6.314  13.917 -0.1873  0.0498  0.3269
31360W        W47834   5.272   3.093   0.354 -0.2502  0.1109 -0.0119
31361W        W47835  13.239  17.451   5.538 -0.0757 -0.2176 -0.2026
31362W        W47836   1.535  10.950  12.291 -0.2098  0.0568 -0.0746
31363W        W47837  16.468   6.395  11.231 -0.0360 -0.0683  0.1444
31364W        W47838   1.611   1.479   1.516  0.0208 -0.0866 -0.2673
31365W        W47839  16.030  10.367  11.398 -0.0384 -0.0916 -0.3042
31366W        W47840  10.007  13.358   1.336 -0.0299 -0.3328  0.2415
31367W        W47841  11.018  11.876   0.083 -0.1551 -0.2156  0.0550
31368W        W47842  18.339   7.869  10.955 -0.2877 -0.1970 -0.0899
31369W        W47843  17.470  16.257  14.252  0.1277  0.0046 -0.1473
31370W        W47844  18.594  13.399  13.512 -0.0001 -0.0652 -0.1368
31371W        W47845  19.087  10.658   1.227 -0.1227 -0.0092  0.2057
31372W        W47846   2.344   3.778   5.502 -0.0750  0.1603 -0.0742
31373W        W47847  10.676  12.687  14.078 -0.4450 -0.2251  0.1037
31374W        W47848   0.329   3.304   1.451 -0.0507 -0.0116  0.1844
31375W        W47849  12.380  15.170   2.405 -0.1441  0.2223  0.0166
31376W        W47850   1.555   3.059  11.465  0.3785  0.1917 -0.1956
31377W        W47851   9.595  15.574   0.741  0.0626 -0.0111  0.0408
31378W        W47852   7.264   3.733   1.500  0.1390 -0.1678 -0.2121
31379W        W47853  11.946   5.688   0.549 -0.0253 -0.1408 -0.1517
31380W        W47854  14.859  17.577  11.302 -0.2165  0.0245 -0.0180
31381W        W47855   9.850   4.276   1.780 -0.1494 -0.0753 -0.1537
31382W        W47856   5.757  11.790  11.515  0.0334 -0.0012 -0.1424
31383W        W47857   4.945   3.366   2.085  0.1265 -0.1502 -0.2480
31384W        W47858  12.699  12.051   3.728  0.0496 -0.1446  0.2029
31385W        W47859   5.811   9.753   2.230 -0.1875  0.0215  0.1152
31386W        W47860   2.004   2.647   3.423  0.1498 -0.0529 -0.1765
31387W        W47861  15.975  17.662   2.284  0.1068  0.0187 -0.0308
31388W        W47862  16.299  17.097  12.308  0.0650  0.0537 -0.1158
31389W        W47863  13.118   9.741   3.873 -0.0932  0.1620  0.0919
31390W        W47864  16.925  13.820   1.543 -0.3086 -0.2437  0.0276
31391W        W47865  12.936  11.727   1.843 -0.2405 -0.1640 -0.0670
31392W        W47866  13.442   9.531  14.677 -0.3766  0.0969 -0.0172
31393W        W47867   9.303  14.312   3.965 -0.1615  0.0495 -0.0357
31394W        W47868   2.604  17.853  13.290 -0.0082 -0.3518  0.1024
31395W        W47869   2.504  10.692   4.660 -0.1183 -0.2056 -0.2413
31396W        W47870  18.567  16.948  14.543  0.4663  0.1497  0.0166
31397W        W47871  12.941  13.241   9.826 -0.0805  0.0179  0.2774
31398W        W47872   0.393  17.276   2.834  0.1095  0.2267  0.2098
31399W        W47873   2.987  11.048   0.990  0.1314 -0.2641 -0.3088
31400W        W47874  10.149  14.905  11.647 -0.0807  0.0600  0.1223
31401W        W47875   8.959  10.124  11.510  0.0971 -0.0321 -0.2225
31402W        W47876   9.859   1.101   3.255  0.2100 -0.4523  0.1280
31403W        W47877  14.511   9.871  13.098  0.1058 -0.1942  0.2441
31404W        W47878  17.727   4.551   2.015  0.1017 -0.3161  0.0366
31405W        W47879   9.579  10.081   0.692 -0.1806  0.0573 -0.2353
31406W        W47880   7.811  12.497   2.782 -0.1564  0.2977 -0.2138
31407W        W47881  11.695   6.510   2.943 -0.1851 -0.1298  0.3173
31408W        W47882   3.453   0.790  13.263  0.0446  0.4266  0.1028
31409W        W47883   6.609   7.079  11.342 -0.3050 -0.1910 -0.0874
31410W        W47884   8.880  16.996  11.750 -0.0520  0.1337  0.0745
31411W        W47885  10.105  11.177   1.953 -0.1880 -0.0530  0.5120
31412W        W47886   0.990   4.426   4.384 -0.1301  0.0005  0.1529
31413W        W47887   2.645   4.543  10.516 -0.0444 -0.0089  0.1238
31414W        W47888   8.703  17.429   0.877 -0.2700 -0.0138  0.2065
31415W        W47889   3.806  10.093   4.535 -0.1878  0.0572 -0.0765
31416W        W47890   6.373   2.328   0.284  0.0420 -0.1601  0.3356
31417W        W47891  11.191   2.822  13.519 -0.2050  0.1854 -0.0973
31418W        W47892   2.147   7.889   4.676 -0.1121  0.1812  0.1912
31419W        W47893   1.130  11.118   2.097  0.1954 -0.0791 -0.0901
31420W        W47894   3.672   8.071  11.465 -0.0592 -0.0890 -0.0329
31421W        W47895  16.076   4.970   9.498 -0.2258  0.1052 -0.0877
31422W        W47896  10.125  13.747  12.334  0.1621 -0.2618 -0.1470
31423W        W47897   5.423  10.549   1.836 -0.0613 -0.1046  0.1348
31424W        W47898  17.184  17.377  12.342  0.1606  0.0260 -0.0775
31425W        W47899  11.802   0.050   3.155  0.4317 -0.1421 -0.4248
31426W        W47900  15.777   4.386   4.339  0.2626  0.0058  0.0287
31427W        W47901   4.283   0.732   2.188 -0.0399 -0.0481 -0.2162
31428W        W47902   0.640   0.110   2.258  0.0410 -0.0585 -0.0315
31429W        W47903  16.444  18.913  14.815 -0.3233 -0.3434 -0.1011
31430W        W47904   9.743   9.868   4.978 -0.1280  0.4586  0.3539
31431W        W47905  12.985   2.247   1.331 -0.1264 -0.0108 -0.1046
31432W        W47906  18.115  12.990   1.111  0.3870  0.0639 -0.0876
31433W        W47907   9.543  15.351   3.980  0.2300  0.0957  0.1610
31434W        W47908   3.847   9.404  10.374 -0.3012  0.1675 -0.1956
31435W        W47909  16.190   3.096  14.423  0.4295 -0.0959 -0.3279
31436W        W47910  16.097   9.374  11.732 -0.1521  0.0820 -0.0979
31437W        W47911  13.476   8.711  10.597  0.1768  0.2969 -0.0571
31438W        W47912  10.190   8.162  11.311  0.2943 -0.1750 -0.1587
31439W        W47913  10.555   5.281  13.356 -0.1595  0.1176  0.0565
31440W        W47914   3.634  14.192  11.068 -0.0192  0.3448  0.0353
31441W        W47915   9.840  14.244   1.426  0.1039  0.2573 -0.1552
31442W        W47916  18.471   4.045  13.566  0.0845  0.2012  0.2047
31443W        W47917  16.362  12.359   0.406 -0.0819 -0.5031  0.0182
31444W        W47918   2.474   0.014   5.209 -0.2151  0.0816  0.0859
31445W        W47919  10.627  18.180   0.160 -0.1664 -0.1965  0.3964
31446W        W47920  18.061   2.504  12.982  0.2670  0.0145  0.2901
31447W        W47921  11.619  10.057   4.437  0.1413 -0.0255 -0.3627
31448W        W47922  15.399  12.497   2.722  0.1036  0.1845  0.2716
31449W        W47923   8.464  15.113   3.493  0.0994  0.0027  0.1383
31450W        W47924  17.425   1.104   3.971 -0.5213  0.2047 -0.5487
31451W        W47925  18.730   1.243   0.447 -0.0749 -0.3156  0.1855
31452W        W47926  18.827   8.801   4.301  0.3414 -0.0399  0.0539
31453W        W47927   9.937   5.808   2.890 -0.5544  0.0188  0.1060
31454W        W47928  16.984  12.696   2.548 -0.0257  0.4425 -0.1677
31455W        W47929  12.957  15.105  11.481 -0.0661 -0.3422 -0.1194
31456W        W47930   6.999  18.259  13.527  0.0394  0.3623  0.5010
31457W        W47931  12.462  13.587  12.401 -0.0355  0.1643 -0.1355
31458W        W47932   9.464  10.405   4.538  0.0176  0.2159 -0.0977
31459W        W47933   7.457  14.344  14.295 -0.0036 -0.1833 -0.1244
31460W        W47934  11.565  16.699  10.817  0.4642 -0.2838 -0.3682
31461W        W47935   1.127   4.165  14.385 -0.1355 -0.1900 -0.1545
31462W        W47936   2.041  11.886  14.348 -0.1045 -0.0995 -0.0794
31463W        W47937  10.290  14.213  14.179  0.4068 -0.1674 -0.1118
31464W        W47938  17.250   7.890   5.115 -0.1940 -0.3875  0.1491
31465W        W47939  13.123  16.240   9.898 -0.2984  0.1207  0.2270
31466W        W47940  10.053   3.688  13.360 -0.1678 -0.0891 -0.0139
31467W        W47941  11.081   0.870  11.041 -0.0554 -0.0068  0.2284
31468W        W47942  14.362   4.550  12.006  0.4022  0.3683  0.2344
31469W        W47943  17.741   3.342   1.308  0.1019  0.1952 -0.1753
31470W        W47944  10.582  17.317   1.268  0.1002  0.2134  0.0593
31471W        W47945  13.125  17.756  14.327  0.0185 -0.0201 -0.2104
31472W        W47946  19.191  11.222   4.769 -0.1098  0.0461  0.0387
31473W        W47947   8.894   4.942  14.725 -0.3394 -0.1226 -0.0742
31474W        W47948   0.094  12.728  10.358 -0.0736 -0.2115 -0.1089
31475W        W47949   5.021  13.208   4.607  0.3280 -0.1494  0.0360
31476W        W47950   5.335   6.790  10.518 -0.1809 -0.1146 -0.1107
31477W        W47951   7.723  15.904   1.238  0.0987  0.0172  0.3789
31478W        W47952   3.721  13.706   3.320 -0.5231 -0.0065 -0.7477
31479W        W47953   3.189   8.165  12.952 -0.1132  0.2658  0.3984
31480W        W47954  17.470  11.388   3.899  0.0586 -0.1159  0.0976
31481W        W47955   9.256  16.870  12.023  0.1219  0.1156  0.0403
31482W        W47956   1.140  16.660   4.705 -0.1352  0.3069 -0.1303
31483W        W47957   2.853   9.528  13.866  0.0465 -0.1922 -0.5694
31484W        W47958   6.971   4.684  10.536  0.0939 -0.0504  0.1630
31485W        W47959  11.984  16.482   2.742  0.0476  0.3697 -0.3243
31486W        W47960  13.873  15.858  13.895  0.1204  0.1752  0.0964
31487W        W47961  18.293  15.391   4.341 -0.0821  0.1041 -0.1292
31488W        W47962   8.516   1.708   9.964  0.0106 -0.4158  0.0470
31489W        W47963   4.694   4.104  11.973  0.1533  0.0012 -0.3921
31490W        W47964   9.400   9.741  14.114 -0.0496  0.1242  0.0659
31491W        W47965  17.718  12.581   4.800 -0.0685 -0.0244 -0.3947
31492W        W47966  14.333   2.729   1.885  0.1911  0.0691  0.1303
31493W        W47967  12.457   4.243   4.630 -0.0091 -0.0761 -0.4009
31494W        W47968  16.735   0.656   1.355  0.1156  0.0441  0.1562
31495W        W47969   4.303   8.892   0.175 -0.3986 -0.0093  0.3456
31496W        W47970  14.683  18.477  11.804  0.0673 -0.2094  0.1884
31497W        W47971   5.904  15.516  12.660  0.2693  0.0691 -0.3437
31498W        W47972   0.233  12.097  13.228 -0.0541  0.1987  0.0838
31499W        W47973  13.354   4.799  13.900 -0.6860  0.4033  0.1748
31500W        W47974  10.274   0.622   0.737  0.1455 -0.2366 -0.1731
31501W        W47975   0.990   1.288   2.894  0.2064 -0.1127  0.0349
31502W        W47976   8.031   3.957  10.246 -0.1641 -0.4132 -0.4383
31503W        W47977  14.203   9.879  14.149 -0.3481 -0.0745 -0.1610
31504W        W47978  18.459  16.690  12.792  0.1591 -0.0677  0.2980
31505W        W47979  12.738  14.439   4.040 -0.2847 -0.1112  0.0680
31506W        W47980   0.968   2.636   1.688  0.1025  0.2729 -0.1519
31507W        W47981   1.292  15.175   6.239  0.2711  0.2319  0.2026
31508W        W47982   5.778   3.817   1.853  0.3728  0.1373 -0.3001
31509W        W47983   3.281  18.622   4.234  0.4838  0.2682  0.1806
31510W        W47984  12.765   6.613   4.551 -0.1061 -0.1004 -0.1601
31511W        W47985   1.759   1.775   2.783  0.0840  0.1589  0.1298
31512W        W47986   9.978  13.499  11.776 -0.2481 -0.0044 -0.1269
31513W        W47987   4.227   1.616   3.073 -0.1332  0.0743  0.2648
31514W        W47988   1.192  12.968   1.203 -0.1959  0.0709  0.0211
31515W        W47989   1.298   5.835  12.055 -0.0928  0.3049 -0.0834
31516W        W47990  17.641   2.680  14.453 -0.0721 -0.0741 -0.0066
31517W        W47991   5.008  15.541  13.617 -0.0609  0.4825  0.0275
31518W        W47992  14.760   9.791  10.935  0.0211  0.2765  0.0474
31519W        W47993   0.489  15.235   2.821 -0.1726  0.1139 -0.0504
31520W        W47994  17.534  11.546   0.718 -0.0115 -0.0378 -0.1528
31521W        W47995  19.013   8.978   0.492  0.0259  0.1623 -0.1379
31522W        W47996  15.214  18.107   0.659  0.0222 -0.0515  0.3571
31523W        W47997   4.502   7.440   2.530 -0.0531  0.1813 -0.2958
31524W        W47998  15.231  16.016  12.144 -0.1978  0.0993 -0.3946
31525W        W47999   6.488   1.015  14.781 -0.0756  0.0750  0.2243
31526W        W48000  15.401   3.012   1.359  0.3006  0.0181  0.1797
31527W        W48001   3.174   4.128   2.999 -0.2865 -0.2462 -0.0591
31528W        W48002  11.253  11.636   3.571  0.1988  0.1009 -0.5359
31529W        W48003  13.555  14.197  12.641  0.1210 -0.1921 -0.1654
31530W        W48004   1.604  15.253   0.491 -0.1906 -0.1102  0.1587
31531W        W48005  17.906   8.892  14.068  0.1278 -0.2301  0.2115
31532W        W48006   9.270   5.583   3.234  0.0575  0.0202  0.2155
31533W        W48007   5.380   4.366   0.783 -0.2800  0.1760 -0.0568
31534W        W48008   9.012   1.874  10.042 -0.0075  0.0583 -0.3323
31535W        W48009   9.936  18.585  14.429 -0.0887 -0.4541 -0.0127
31536W        W48010  10.524  14.261   4.754  0.0453  0.1952 -0.0902
31537W        W48011   1.320   2.018   5.347 -0.0453  0.0364 -0.0610
31538W        W48012   1.901  14.381  14.876  0.3799 -0.0966 -0.1959
31539W        W48013   5.974  12.814   0.664  0.2178 -0.3702  0.2216
31540W        W48014   4.440   4.513  11.820  0.0518  0.2570  0.0834
31541W        W48015   1.158   1.654   3.844 -0.3713  0.0710  0.2002
31542W        W48016   6.002   4.194  12.072  0.1636  0.0159  0.0681
31543W        W48017   7.864   0.487   1.747  0.1215  0.1666 -0.2782
31544W        W48018  10.946  19.257   2.803 -0.0277 -0.1184 -0.3097
31545W        W48019  16.464   6.483  13.246 -0.2489 -0.0487  0.0218
31546W        W48020  16.953   0.656   0.829  0.2619 -0.1395 -0.3411
31547W        W48021   2.777  13.522   4.007 -0.1411  0.2099 -0.1302
31548W        W48022  11.174   4.957  10.714  0.1437 -0.0351 -0.1405
31549W        W48023  13.112   7.970   4.306  0.2790  0.2852  0.0689
31550W        W48024  15.297   9.213  11.182 -0.0484 -0.1960 -0.2158
31551W        W48025   0.475   4.010   9.260  0.0957 -0.0775 -0.1677
31552W        W48026   0.991   3.841  11.505  0.0658  0.1817  0.1911
31553W        W48027  10.364  14.668   2.185 -0.1616  0.0132 -0.1761
31554W        W48028   8.865  16.608  10.850  0.2001 -0.3147 -0.1170
31555W        W48029  11.694   8.246   4.333  0.0760 -0.4131  0.1092
31556W        W48030   5.506  12.290  11.588 -0.0335 -0.0617  0.1254
31557W        W48031  11.586  17.800   1.487  0.3188 -0.1533  0.1100
31558W        W48032  18.993  13.814   3.470  0.1380 -0.2449 -0.1741
31559W        W48033   9.731   9.917  13.758  0.0543  0.1455  0.1697
31560W        W48034   9.521   3.030  13.970  0.2482  0.1574  0.1319
31561W        W48035  14.329  14.565  11.791 -0.0054 -0.1504 -0.0256
31562W        W48036   4.701   9.639  12.887 -0.1790  0.1406 -0.0287
31563W        W48037  18.921   6.086  11.927 -0.0002  0.0075  0.0574
31564W        W48038   4.451  15.301   2.040 -0.1841  0.3835 -0.0556
31565W        W48039  11.714  13.815  13.175 -0.3846  0.0689 -0.3369
31566W        W48040  16.058   0.999   2.336 -0.2363 -0.0301 -0.0200
31567W        W48041  13.334  12.276   2.305 -0.0258 -0.3173 -0.2547
31568W        W48042   4.701  15.656   4.205  0.1743 -0.3551 -0.0428
31569W        W48043   9.465   7.015  13.630  0.0959 -0.2583  0.1064
31570W        W48044  13.516   7.126  11.669 -0.3676 -0.0228  0.3602
31571W        W48045  15.834  15.073  13.775  0.1754 -0.2674 -0.1301
31572W        W48046   5.160  14.051   3.616  0.0165  0.1746  0.0704
31573W        W48047   2.639  11.544  12.088  0.1116  0.1318  0.0926
31574W        W48048   0.083  13.430   0.705  0.0802 -0.2247  0.0451
31575W        W48049  18.420  11.683   0.748 -0.2949  0.1285 -0.0279
31576W        W48050  13.512  12.391   3.487  0.1177  0.1020  0.2577
31577W        W48051  16.925  13.814  10.075 -0.3633 -0.0118  0.1617
31578W        W48052  16.306   7.851   5.701 -0.0331 -0.1974  0.0347
31579W        W48053   2.436  13.721   0.036  0.0927 -0.1154  0.5059
31580W        W48054   8.082  16.278  14.369  0.2358  0.0343  0.1140
31581W        W48055   0.387   8.969  13.871 -0.0520  0.0148 -0.0282
31582W        W48056   4.746   8.547   4.237 -0.0312 -0.2964 -0.1343
31583W        W48057   2.688   2.309   4.651 -0.0283  0.0075 -0.1786
31584W        W48058  11.284   1.925   3.344 -0.3083 -0.2270 -0.3333
31585W        W48059   0.892  12.917  10.683  0.2218 -0.0109 -0.2302
31586W        W48060   3.045   8.685  11.382  0.1122  0.1235  0.0883
31587W        W48061  11.864   1.590  12.987  0.1186 -0.0999 -0.0417
31588W        W48062   0.415  17.232  12.072 -0.0158  0.2020 -0.1985
31589W        W48063   2.798  12.653   4.355 -0.3038  0.2311 -0.0172
31590W        W48064  10.342  13.951  10.549 -0.0875  0.1192 -0.1633
31591W        W48065   3.959   7.730   0.149 -0.1176 -0.2659 -0.0808
31592W        W48066   9.157   9.317   9.781  0.2284  0.1055  0.1334
31593W        W48067  11.348  12.352   2.084  0.1029  0.2240 -0.2558
31594W        W48068  11.084   4.101  11.770 -0.1436 -0.0120 -0.2846
31595W        W48069   3.079  18.731  10.967 -0.0311 -0.2204  0.2815
31596W        W48070   8.081   2.864   1.140 -0.4177  0.1060 -0.0676
31597W        W48071   9.010   4.579  10.219 -0.1467  0.1487 -0.1573
31598W        W48072  12.448   7.836  14.134 -0.0337 -0.1895  0.1200
31599W        W48073   0.437  10.656  11.134  0.2323  0.1035 -0.1795
31600W        W48074   5.548   1.561  11.075 -0.1172  0.0551 -0.0697
31601W        W48075  14.956  11.668   0.183  0.2081 -0.0404  0.2692
31602W        W48076  11.816  15.556  11.043 -0.0525 -0.3104 -0.1135
31603W        W48077  14.688  18.945   1.147  0.1708 -0.0397 -0.0975
31604W        W48078   9.783   1.735   3.090 -0.0050 -0.1920 -0.1343
31605W        W48079   7.543   2.834   0.234 -0.1394  0.1744 -0.1023
31606W        W48080   4.138   1.664  12.059 -0.0436 -0.0051  0.0864
31607W        W48081  17.711   6.821   4.374 -0.1624  0.0687  0.1102
31608W        W48082   2.902   5.506  10.383 -0.0871 -0.0480 -0.2109
31609W        W48083   7.533   4.665  12.332 -0.1583 -0.1235  0.2417
31610W        W48084   1.500  18.835   1.397 -0.4682 -0.1704 -0.1289
31611W        W48085  18.451   7.552   3.006 -0.3214 -0.0920 -0.0074
31612W        W48086  13.500   0.778  11.117  0.0536 -0.0765 -0.0613
31613W        W48087  13.493   3.638  12.519 -0.2690  0.2597 -0.2535
31614W        W48088   8.166   0.579  13.700  0.0859 -0.1412  0.0158
31615W        W48089  18.337   9.929   3.883  0.0336  0.3246 -0.1012
31616W        W48090  16.304   8.794  13.892 -0.1845  0.0702 -0.0914
31617W        W48091   9.176  14.522   3.544 -0.0051  0.1619 -0.0817
31618W        W48092  14.036   5.482   1.270 -0.3664 -0.1933  0.0230
31619W        W48093   1.792  12.877   0.293 -0.2941  0.5426  0.0462
31620W        W48094   6.335   9.072   1.570 -0.1023  0.2080 -0.0736
31621W        W48095   3.235  13.734  11.987 -0.0572  0.1191  0.0983
31622W        W48096   4.663  13.399  11.938  0.1368 -0.3493  0.1682
31623W        W48097  11.863   9.481   4.276 -0.0591  0.1080  0.0807
31624W        W48098   5.730  18.237   2.357  0.1934 -0.4832  0.1765
31625W        W48099   7.022   9.226   5.076  0.0469  0.0626  0.2191
31626W        W48100   1.075  15.323   2.281 -0.2803  0.1544 -0.2348
31627W        W48101   9.503  10.380   2.180  0.2003  0.2779 -0.1424
31628W        W48102  13.405   2.345   3.708  0.0998 -0.3100 -0.1996
31629W        W48103  18.978   8.578  10.695  0.2201 -0.0405  0.2660
31630W        W48104   6.397   3.907  10.956  0.0208 -0.1835 -0.0422
31631W        W48105  13.299   9.037   3.026 -0.0447  0.1234  0.0399
31632W        W48106  15.117   9.198   2.794  0.1847 -0.0834 -0.0016
31633W        W48107   8.790   8.639  10.912 -0.2428  0.1375 -0.2850
31634W        W48108  16.454   7.673   0.095  0.0794  0.1703  0.1244
31635W        W48109  12.912   1.398   0.154  0.0384 -0.2106  0.0883
31636W        W48110  15.345   4.103  13.857  0.0425  0.0927 -0.2644
31637W        W48111  15.447  13.521   1.704 -0.2230  0.0020  0.1314
31638W        W48112  11.670  18.084   0.262  0.2719  0.0138  0.1752
31639W        W48113  11.307   2.272   2.611 -0.0456 -0.0714 -0.1066
31640W        W48114  18.680   6.261  14.064  0.2320 -0.1215 -0.0367
31641W        W48115  13.160   9.004   5.750 -0.3355  0.1028 -0.1832
31642W        W48116   5.856   4.752  14.547 -0.1814  0.0442 -0.1517
31643W        W48117   1.243   9.754  14.692 -0.0225  0.1256  0.0827
31644W        W48118   0.230  10.910   3.287  0.1046  0.1430 -0.4494
31645W        W48119  14.229   9.659  13.617 -0.2695 -0.3556 -0.1697
31646W        W48120  13.162   6.738  14.801  0.0400 -0.1532 -0.0556
31647W        W48121   0.377   5.407   0.889 -0.2513  0.0471 -0.1474
31648W        W48122   7.708  15.379   1.044 -0.0413  0.0117 -0.1469
31649W        W48123   0.997  17.575  12.884 -0.1387 -0.1789 -0.0534
31650W        W48124  18.838  13.511   4.864  0.1320 -0.2334  0.0688
31651W        W48125   2.818  15.000  11.081 -0.1208  0.2032 -0.0534
31652W        W48126   4.307   4.367   4.406 -0.0206  0.3613  0.0893
31653W        W48127   8.258  11.960   5.519  0.0022  0.0113  0.1506
31654W        W48128   2.274   3.088  10.757 -0.0986 -0.0742 -0.3661
31655W        W48129   9.887  17.388   1.879 -0.1068 -0.1433 -0.2145
31656W        W48130   8.418   8.744   1.152  0.4837  0.0930 -0.1788
31657W        W48131  18.174   1.909   0.946  0.1957  0.2276 -0.0275
31658W        W48132   9.003   4.260   9.267 -0.1516  0.3468 -0.2958
31659W        W48133   4.491   1.946  12.940  0.2187  0.0904  0.1026
31660W        W48134  14.077   5.147   5.261  0.0629  0.2544  0.2281
31661W        W48135  15.297   1.069   0.841  0.0766  0.0946 -0.0857
31662W        W48136   7.281   9.223  11.800 -0.4481 -0.2571  0.1710
31663W        W48137   8.343   3.127  14.101  0.2907 -0.4227 -0.2211
31664W        W48138   8.979  12.486   0.578  0.1904  0.1430  0.5119
31665W        W48139  16.215  13.919  14.797  0.1043  0.2878 -0.1851
31666W        W48140  16.795   4.340  14.239  0.0433 -0.1186  0.0107
31667W        W48141   3.245  10.599  10.746 -0.2104  0.1148  0.0738
31668W        W48142   8.886  10.360   4.658 -0.0035 -0.1145 -0.0387
31669W        W48143   6.392   6.540  13.804 -0.0494 -0.1726  0.0334
31670W        W48144   5.573   4.989   0.592 -0.1904 -0.0766  0.0851
31671W        W48145   9.995   3.674   3.150 -0.0968 -0.3992  0.0325
31672W        W48146   1.105  13.856   2.545 -0.1215 -0.1785 -0.0190
31673W        W48147   3.470  10.230   4.135  0.0728  0.0665 -0.1139
31674W        W48148   7.410  16.685   1.312 -0.1845 -0.0935  0.0085
31675W        W48149  10.392  12.927   4.564  0.2571  0.2593 -0.3682
31676W        W48150   4.387  17.599   1.049 -0.1862  0.2053 -0.1474
31677W        W48151  15.010   3.166   4.003 -0.1420  0.0894  0.1101
31678W        W48152   5.106  12.402  14.813  0.2503 -0.2853  0.3736
31679W        W48153  17.943   1.036   1.019 -0.0022  0.0300 -0.0509
31680W        W48154  19.279  18.307   0.085 -0.0891 -0.0296 -0.1384
31681W        W48155   5.202  18.896  11.193  0.2690  0.0840  0.1116
31682W        W48156   8.515  17.310   1.791  0.0539  0.2125 -0.3529
31683W        W48157  18.005  16.368  14.485  0.0127  0.4565  0.1478
31684W        W48158   6.880   5.333  12.181  0.3849  0.0262 -0.1895
31685W        W48159   2.870  10.109   4.075  0.0254 -0.1464  0.0429
31686W        W48160   2.938  17.404  12.447  0.3071 -0.0696 -0.1286
31687W        W48161   7.708   2.257  14.209 -0.0425 -0.1010  0.2246
31688W        W48162  10.955   0.506  12.294 -0.2480 -0.0369  0.0266
31689W        W48163   7.474  18.575   4.431 -0.1366  0.1115  0.1623
31690W        W48164  12.858  12.241   2.102  0.3246  0.0243  0.2753
31691W        W48165   3.092   8.558   0.874 -0.1717  0.0333 -0.1049
31692W        W48166   7.770   7.805   1.766 -0.1602  0.4435  0.3061
31693W        W48167   5.979   9.066   1.116  0.1402  0.2056 -0.1276
31694W        W48168  14.837   3.205   9.580 -0.0184  0.0544  0.2282
31695W        W48169   2.188   2.438  11.199  0.0302 -0.0030 -0.0323
31696W        W48170  11.775   7.420  13.299  0.0327 -0.1337 -0.3058
31697W        W48171  14.784  13.200   2.338 -0.0036 -0.0537  0.1363
31698W        W48172   1.993   3.644  13.047 -0.2526 -0.0350  0.3345
31699W        W48173  15.262   3.134  10.380  0.0552  0.4257 -0.0734
31700W        W48174  12.102  13.086  11.132  0.1362 -0.1559  0.0492
31701W        W48175   8.284   6.378  11.847 -0.2195  0.3018 -0.1774
31702W        W48176  11.170  11.449   0.949 -0.1022  0.1766 -0.1631
31703W        W48177   6.728   3.910  12.739  0.0130  0.1068 -0.2256
31704W        W48178  16.026   3.523   2.892 -0.2286 -0.0675  0.1134
31705W        W48179  19.029  17.926  11.131 -0.0054 -0.2383 -0.1396
31706W        W48180  15.637  12.040   1.273  0.3140  0.3821  0.0723
31707W        W48181  17.178  13.549   0.761 -0.1355  0.1463 -0.0650
31708W        W48182  17.448  18.699   0.381 -0.0472 -0.1998 -0.0302
31709W        W48183   2.487  10.526  12.269 -0.2639  0.0778  0.4435
31710W        W48184  12.446   7.206   5.646 -0.4150 -0.1246  0.0354
31711W        W48185  12.328   8.013   0.149 -0.0472 -0.2605 -0.1852
31712W        W48186  14.045   1.912  13.103 -0.0248  0.5026  0.0337
31713W        W48187  16.211   4.735  12.091  0.0090 -0.0039  0.1046
31714W        W48188   1.814  10.886   4.379 -0.3933  0.2492  0.0221
31715W        W48189   4.102   9.612   1.991 -0.2575  0.1278  0.1891
31716W        W48190   3.690  12.169   2.074  0.1039 -0.0992  0.1614
31717W        W48191   5.923   2.638  12.270  0.1870  0.1738  0.1171
31718W        W48192   4.934   3.758   1.682  0.1292 -0.1823 -0.0605
31719W        W48193   6.709  17.863   1.563 -0.2270 -0.1965  0.0375
31720W        W48194   8.261   8.304  10.062  0.1103 -0.0732 -0.4024
31721W        W48195  17.462   6.346   4.580  0.0587  0.1707  0.3674
31722W        W48196   0.394  16.018   3.349  0.0281  0.1342 -0.0995
31723W        W48197   0.858  15.365  13.276  0.2014 -0.0118  0.0668
31724W        W48198   2.137   7.110   4.123  0.1410 -0.0027  0.0919
31725W        W48199   9.161   4.565   5.229 -0.2150 -0.2169 -0.0451
31726W        W48200   8.931  15.423   4.817  0.3736  0.0189  0.3348
31727W        W48201   9.293   6.842  13.160 -0.0807 -0.3740  0.0690
31728W        W48202  16.699  11.287  14.253  0.0520  0.0873  0.1500
31729W        W48203   0.229  18.101   0.473 -0.1379 -0.2368  0.3011
31730W        W48204  16.431  17.230  11.188  0.1877  0.1989 -0.1389
31731W        W48205   5.550  11.130   1.895 -0.0481  0.1400  0.2228
31732W        W48206  17.521   9.504  14.514  0.1032 -0.0947 -0.0156
31733W        W48207   0.085  10.526   4.164  0.1504 -0.3123 -0.1007
31734W        W48208   7.756  13.058   0.821  0.0717 -0.0281 -0.1102
31735W        W48209  11.095   7.081   0.090 -0.1221  0.2239 -0.0361
31736W        W48210   4.743  17.191   2.419  0.0440  0.2579 -0.2573
31737W        W48211  13.472  15.269   4.783  0.3227  0.1037 -0.0453
31738W        W48212   3.984   0.359  10.452  0.0264 -0.0688  0.2633
31739W        W48213  16.814   2.567  12.214  0.2749  0.0609  0.4145
31740W        W48214  12.850   5.195  13.014 -0.0690 -0.4049 -0.2542
31741W        W48215   0.056  18.859   3.044 -0.0763 -0.1204  0.1326
31742W        W48216  11.993  15.048   2.119 -0.1951  0.1183  0.1369
31743W        W48217  17.132  18.564  14.154 -0.1846 -0.0238 -0.0421
31744W        W48218  16.104   6.325   1.591  0.0465 -0.2350  0.0693
31745W        W48219   9.454   4.352   3.179 -0.1743  0.0804  0.0516
31746W        W48220   4.270   8.717  13.599  0.2029  0.2720 -0.0637
31747W        W48221   6.135   4.887   3.606 -0.4648  0.1844  0.2331
31748W        W48222  12.302  15.378  11.037 -0.2675  0.0061  0.3311
31749W        W48223   8.486   0.636   3.317  0.0535  0.1405 -0.0593
31750W        W48224   0.176   4.906  11.199  0.0906  0.1898 -0.1321
31751W        W48225  17.755   5.931  13.672 -0.1341 -0.2031 -0.0177
31752W        W48226   3.408   8.488  10.670  0.1737  0.0481  0.1407
31753W        W48227  17.033   0.894  13.500  0.0472  0.1631 -0.2246
31754W        W48228  10.216   8.959  14.006 -0.1413 -0.0653 -0.0680
31755W        W48229   9.337   1.146   3.241 -0.1428 -0.1080  0.2854
31756W        W48230  13.319  13.410   0.644 -0.0694 -0.1863  0.4930
31757W        W48231   0.001   7.762  10.907  0.1069 -0.4900 -0.3065
31758W        W48232  11.564   1.359   0.657  0.4567 -0.0135  0.1788
31759W        W48233  17.031  12.600  14.308 -0.2483  0.1245 -0.2653
31760W        W48234  15.355  15.610  14.510  0.0377 -0.4303  0.1872
31761W        W48235   9.109  16.407  13.799 -0.0641  0.2275  0.3435
31762W        W48236  11.077  11.060   1.224 -0.0810 -0.3711 -0.3589
31763W        W48237   0.301   1.339  11.613 -0.2012  0.1873  0.0532
31764W        W48238  11.091   9.506   1.024  0.0403  0.1516  0.0840
31765W        W48239   1.914   6.780  14.497  0.0456 -0.1828  0.0806
31766W        W48240  19.183  13.693   3.884  0.1342 -0.1885 -0.2466
31767W        W48241  18.983   3.744   1.819 -0.0616 -0.3148  0.0430
31768W        W48242   5.095   1.114   3.649 -0.0344  0.0943  0.1234
31769W        W48243   7.085  18.952   4.426 -0.2530  0.1238  0.0881
31770W        W48244   7.199  16.865   2.440 -0.3021 -0.2007  0.1075
31771W        W48245  19.035   1.755   4.467  0.3174  0.3076 -0.3663
31772W        W48246  16.829   6.610   1.255 -0.0398  0.2243 -0.1226
31773W        W48247   9.230  12.300  10.557  0.0863 -0.2026 -0.2045
31774W        W48248   3.743  14.299   1.590  0.1757  0.4335  0.0838
31775W        W48249  10.150  16.850  10.344  0.2276 -0.0884 -0.0835
31776W        W48250  12.271   1.844   1.770  0.2692  0.0360 -0.2192
31777W        W48251  10.234  13.058   4.083  0.3207  0.0351  0.0400
31778W        W48252  17.426  13.103  14.723  0.1702 -0.1689 -0.2844
31779W        W48253  13.025   6.081  13.468 -0.1123  0.0399  0.1423
31780W        W48254  12.300  18.634   5.494 -0.2270  0.0446 -0.1006
31781W        W48255   5.177  12.682   4.682  0.0834  0.0007 -0.1307
31782W        W48256  19.224  17.368   0.435  0.0273 -0.0540  0.0316
31783W        W48257  16.706  10.326   2.450 -0.1668  0.0969 -0.1850
31784W        W48258  19.203   7.767   4.210  0.0060 -0.0726  0.1986
31785W        W48259  11.805   3.280  11.235  0.0344  0.1768 -0.1520
31786W        W48260   2.349  13.127  14.166 -0.0695  0.3392  0.2718
31787W        W48261  16.883  18.829   1.472 -0.2033 -0.3053  0.1296
31788W        W48262   3.829   8.042   2.673  0.1826  0.2710 -0.0546
31789W        W48263  10.010  12.468   2.199 -0.2762  0.1785 -0.1901
31790W        W48264   0.430   6.721   5.820  0.0532  0.0033  0.2504
31791W        W48265  13.238   4.264  13.046  0.1779 -0.0792  0.1575
31792W        W48266   9.559  13.253  13.469 -0.1465  0.0609 -0.0122
31793W        W48267   6.805   9.389   3.902  0.2722 -0.1152  0.3291
31794W        W48268   6.573  12.828  14.397  0.2369  0.1205  0.1110
31795W        W48269  11.050  12.126  12.306 -0.1929 -0.0652  0.0160
31796W        W48270   8.712   3.339  13.678 -0.3649  0.0232 -0.1881
31797W        W48271   2.984   8.138  13.857 -0.1451 -0.0082 -0.2647
31798W        W48272  14.692   1.899  14.622  0.1664  0.1629  0.0216
31799W        W48273   1.920   0.363   3.037 -0.0302 -0.0628  0.0538
31800W        W48274   2.521   4.073  10.181 -0.0273 -0.1462 -0.0106
31801W        W48275  19.372  12.927  11.712  0.4809 -0.0647  0.0943
31802W        W48276   4.364   0.446  10.853 -0.0267  0.1331  0.2565
31803W        W48277  11.915  16.763  12.926  0.1196 -0.1704  0.3153
31804W        W48278  15.035  16.218   3.065  0.2664 -0.1677  0.1996
31805W        W48279  12.266  13.394  13.868  0.1121 -0.2393  0.2179
31806W        W48280   9.688   4.285  11.148  0.0202 -0.0660  0.0014
31807W        W48281   9.407  15.847   3.968  0.3066  0.1455  0.1151
31808W        W48282   6.473  13.795  11.698  0.1101  0.4859  0.2149
31809W        W48283   8.711   3.218  13.130  0.0002 -0.1342  0.0630
31810W        W48284  12.687  16.062   2.910 -0.0033 -0.0372  0.1112
31811W        W48285   9.324   0.453   3.742  0.1053  0.1852  0.2079
31812W        W48286   3.048  19.195  12.040  0.1476  0.1315  0.0713
31813W        W48287   1.404  13.180  13.179  0.0839  0.2214 -0.2517
31814W        W48288   3.053   8.623   3.802  0.1675  0.1821 -0.3912
31815W        W48289   8.609  17.806   3.224  0.2511 -0.5949  0.1493
31816W        W48290   6.539  14.649  13.953  0.0331 -0.2925 -0.2057
31817W        W48291   1.212  16.027   1.083  0.3331  0.0137 -0.3263
31818W        W48292   9.305  13.707  13.480 -0.0598 -0.0758  0.1219
31819W        W48293   9.320  15.517   3.009  0.1193  0.0132  0.0651
31820W        W48294   7.284   4.707   3.099  0.2280  0.1930 -0.2591
31821W        W48295   7.521   8.847  13.356  0.0159  0.2104  0.0363
31822W        W48296   2.530   9.510  11.909 -0.2206 -0.0727  0.3389
31823W        W48297  12.246  16.841   3.332  0.2112  0.0865  0.0062
31824W        W48298  10.671  12.254   0.936  0.0438  0.2058 -0.1844
31825W        W48299  15.307   8.349  14.278 -0.2795 -0.1903 -0.2743
31826W        W48300  13.693   1.050   1.063  0.1468 -0.1856 -0.0339
31827W        W48301  11.979  11.566  12.937 -0.0608 -0.1342 -0.1057
31828W        W48302   4.820  10.839  11.443 -0.2891 -0.3068  0.2318
31829W        W48303   2.845  14.542  10.886 -0.0601  0.0195  0.0540
31830W        W48304   8.495  10.354  14.189 -0.1794 -0.1527  0.0327
31831W        W48305  10.819   6.185  11.115 -0.0263  0.0435 -0.2022
31832W        W48306  13.778  13.962  10.423 -0.1119  0.1162 -0.2254
31833W        W48307   2.421  16.774  14.671  0.0309 -0.1217 -0.2620
31834W        W48308  16.102   7.305  14.826  0.3895 -0.0227 -0.2585
31835W        W48309   1.221  11.408   3.150  0.1546 -0.1229 -0.2192
31836W        W48310   8.667  14.168   5.536  0.4635 -0.0828 -0.2171
31837W        W48311  18.842   8.020   3.761  0.1371 -0.0135 -0.0613
31838W        W48312  12.564   5.318  10.990 -0.0068 -0.1781  0.2797
31839W        W48313   1.647   2.698  14.777 -0.1270  0.1484 -0.0696
31840W        W48314  18.329  18.724  12.229  0.2026  0.0608 -0.2049
31841W        W48315   3.378   3.282  12.791 -0.1634 -0.2956  0.0821
31842W        W48316  11.395  18.813   2.401  0.0270  0.1062 -0.1123
31843W        W48317   7.678   0.774  11.690  0.0995  0.0493 -0.3305
31844W        W48318  11.810  11.315  14.748  0.1988 -0.3161  0.4695
31845W        W48319   9.620   9.535  12.478  0.1719 -0.0373 -0.1182
31846W        W48320   5.074   1.870  13.066  0.1342  0.2808 -0.5582
31847W        W48321   3.540   1.052  11.025 -0.3099 -0.0059  0.1532
31848W        W48322   8.331   6.621  10.049  0.1143  0.0205 -0.0890
31849W        W48323  17.105   5.491  11.306  0.2532 -0.0985  0.1861
31850W        W48324  16.024   4.699  10.591  0.0175 -0.3138  0.0659
31851W        W48325   4.562  12.256   1.436  0.2272  0.1476 -0.1136
31852W        W48326   9.492   7.159  12.830 -0.0152  0.1623 -0.3280
31853W        W48327  14.558  18.945   1.643  0.0489 -0.4812 -0.0227
31854W        W48328   2.491   8.897   5.452 -0.0722  0.0721  0.0358
31855W        W48329  17.474   1.395   0.967  0.0400  0.0575  0.0654
31856W        W48330   6.752   3.825   1.398  0.1203 -0.0448  0.1250
31857W        W48331  12.829  13.214  14.656 -0.1334 -0.2027  0.0386
31858W        W48332   3.018   5.179   0.710 -0.2387  0.0786  0.0443
31859W        W48333   7.635  12.080   9.756  0.0880  0.1822 -0.2517
31860W        W48334  19.262  16.823   2.115  0.0874 -0.0487  0.2025
31861W        W48335   0.370   8.352   3.797  0.3904 -0.3577 -0.1667
31862W        W48336   0.463  13.730  13.813  0.1381  0.0822  0.1729
31863W        W48337   2.024   3.043   3.796  0.0831  0.0199  0.1174
31864W        W48338  16.502  18.079  10.616  0.2327 -0.1704 -0.2257
31865W        W48339  11.511   4.774  14.313  0.2712  0.0488  0.2396
31866W        W48340   8.277   6.372  13.299  0.0205  0.3595  0.0245
31867W        W48341  10.121  14.561   3.439  0.5094 -0.2053  0.1427
31868W        W48342   0.487  16.978   3.878  0.4072  0.0341  0.1178
31869W        W48343   6.449  13.073   2.233  0.1447 -0.0928 -0.0054
31870W        W48344  13.340  18.869   2.244 -0.3033  0.5387 -0.0859
31871W        W48345   2.671  11.175  13.078  0.0717  0.0159  0.0457
31872W        W48346  15.260   0.528  10.954  0.1478 -0.0942  0.1748
31873W        W48347   5.439  15.717  13.438  0.4557  0.1228 -0.0394
31874W        W48348   2.210   7.382  10.966 -0.0501 -0.2981 -0.1185
31875W        W48349   4.310  14.619  11.904  0.0990  0.1147  0.1748
31876W        W48350  12.402   2.058   2.679  0.0198 -0.0448  0.1200
31877W        W48351  15.563  17.507   5.220 -0.1591 -0.2463 -0.0977
31878W        W48352   6.711   0.899  11.570  0.2770 -0.0442  0.1302
31879W        W48353   3.067   4.947  11.638 -0.1386 -0.3251 -0.0588
31880W        W48354   9.970  10.406  12.130 -0.0982 -0.2525  0.0566
31881W        W48355  14.873  14.874  10.913 -0.1414 -0.0820 -0.2098
31882W        W48356   2.308  15.366  12.298 -0.1533  0.3249  0.1319
31883W        W48357  11.854   0.866   3.904  0.2577  0.1746  0.0331
31884W        W48358  11.066   4.713   9.726  0.0128  0.1972 -0.2387
31885W        W48359  11.946   8.534  11.696  0.0489 -0.0286  0.4014
31886W        W48360  16.680   2.094   3.289 -0.1578  0.0614  0.1696
31887W        W48361   3.138   3.262   5.066 -0.0627 -0.2139 -0.0797
31888W        W48362  14.861   7.194  10.549 -0.1456  0.0250  0.2938
31889W        W48363  16.861   0.809  14.629  0.0362  0.0281 -0.4183
31890W        W48364  18.290  18.387  11.837 -0.1042 -0.0687 -0.0699
31891W        W48365   2.627   5.870  12.875 -0.0360 -0.0744 -0.1104
31892W        W48366  14.699  19.363  13.586 -0.1978 -0.1699 -0.1000
31893W        W48367   7.492  18.980   2.014  0.1297 -0.2014  0.5166
31894W        W48368   5.573   7.641  10.518 -0.1224  0.0332 -0.3055
31895W        W48369   8.531   4.109   2.636  0.2182  0.1050  0.1626
31896W        W48370   9.774  19.295   4.463 -0.4120  0.4501 -0.2152
31897W        W48371   1.538  13.237  11.399 -0.0423  0.1911 -0.0791
31898W        W48372   7.167   1.643   0.747 -0.1104 -0.1442  0.2278
31899W        W48373  18.274   1.523   1.589 -0.1502  0.0685  0.1333
31900W        W48374   9.298  17.477   1.981  0.0209  0.0381  0.2961
31901W        W48375   7.068   0.287  10.978 -0.0348 -0.3552 -0.1690
31902W        W48376   4.762  15.119  13.277  0.3423 -0.1552 -0.0427
31903W        W48377   4.803   1.787   4.235  0.5574 -0.1674  0.0249
31904W        W48378   7.679  14.910   3.418  0.1201 -0.1014 -0.4275
31905W        W48379   5.930  18.405  11.960 -0.1008  0.2657 -0.1388
31906W        W48380   6.564  12.083   0.093 -0.3940  0.1929  0.0452
31907W        W48381   6.561  15.270  14.608  0.1785 -0.1504  0.2983
31908W        W48382  13.691   1.758   5.658  0.1646 -0.1376 -0.4335
31909W        W48383  15.234   9.885  11.544 -0.2211 -0.0055 -0.1678
31910W        W48384  13.422   9.847   0.476  0.3344 -0.1454  0.2696
31911W        W48385  18.534  15.427  12.051 -0.1679 -0.1245 -0.1817
31912W        W48386  12.969   4.856   9.671  0.0739 -0.0337  0.0357
31913W        W48387  13.578  18.533  10.928  0.0599  0.1665 -0.2983
31914W        W48388  18.506  12.821   3.868 -0.4905 -0.1286  0.3882
31915W        W48389   6.606   5.449   0.908  0.1603  0.0421  0.2153
31916W        W48390   8.033   3.083   3.580 -0.0411  0.0628  0.1130
31917W        W48391  10.571  16.251   1.385  0.0754  0.6782 -0.0492
31918W        W48392   7.543   1.146   4.754  0.2095 -0.1510 -0.3585
31919W        W48393  18.665  13.231   2.692  0.2739 -0.2223  0.3711
31920W        W48394  18.038   9.293  13.663  0.0973  0.0727 -0.1267
31921W        W48395  11.963  12.760  10.752  0.3771 -0.2800  0.0657
31922W        W48396  15.916   2.763   3.438  0.2007  0.2077 -0.0725
31923W        W48397  13.599  14.922   1.660 -0.4627  0.1085  0.1359
31924W        W48398  10.519  10.916   4.554 -0.3226 -0.0074 -0.2669
31925W        W48399   9.441  16.858   1.184  0.0052  0.0364 -0.0409
31926W        W48400  16.489  15.610   4.341 -0.0901 -0.2926  0.0632
31927W        W48401  13.349   2.287   2.755 -0.1487  0.6609 -0.0664
31928W        W48402   4.312   7.036   3.853  0.1321  0.3743  0.0924
31929W        W48403   7.388   7.858  14.563 -0.5275  0.1824  0.1085
31930W        W48404  10.390  13.347   2.145 -0.0787 -0.2236 -0.0219
31931W        W48405  18.864   2.409   3.820  0.2754 -0.3195  0.1946
31932W        W48406   1.695   5.586   5.387 -0.0314  0.0637  0.1953
31933W        W48407   9.848   8.000   5.307  0.1553 -0.1805 -0.2351
31934W        W48408   9.798  17.477  12.996 -0.2151  0.1677 -0.0264
31935W        W48409  18.006   0.490   3.785 -0.0039  0.1069  0.3742
31936W        W48410  10.368   0.919   3.385  0.0323  0.0046 -0.0121
31937W        W48411  11.590   4.879  13.654  0.0943  0.2712 -0.3033
31938W        W48412  12.394   6.705  12.907 -0.1229 -0.0569  0.1954
31939W        W48413  16.549   9.592  10.345  0.1678 -0.0050 -0.0811
31940W        W48414   9.111   3.328   1.956  0.0053 -0.2649  0.1902
31941W        W48415   9.773  12.596   0.191 -0.1860 -0.0380  0.0034
31942W        W48416   2.244   7.758  12.645  0.1312 -0.3376 -0.0521
31943W        W48417   7.093   2.548   2.553  0.0311  0.2591  0.0039
31944W        W48418   6.807   9.592   1.183 -0.1374 -0.5035  0.1504
31945W        W48419  15.283  16.811  14.347 -0.0188 -0.0746 -0.0623
31946W        W48420   3.546   7.662   2.852 -0.1897 -0.0706 -0.2002
31947W        W48421   6.937   6.580   1.879 -0.1536  0.0971 -0.0534
31948W        W48422  13.391  16.523   2.061  0.0005 -0.2728  0.5256
31949W        W48423   9.314  17.760  13.467 -0.0568 -0.1758 -0.3539
31950W        W48424   0.626   3.730  12.477 -0.0257  0.0682  0.3490
31951W        W48425  13.575   6.840   1.650  0.0451 -0.0515 -0.2978
31952W        W48426   8.611  10.665   0.032 -0.0122 -0.1325  0.1044
31953W        W48427  10.982  18.112  13.740  0.0842 -0.0350  0.4894
31954W        W48428  12.599  11.921   2.900  0.0810  0.0363 -0.0429
31955W        W48429  19.010  14.551  11.536  0.0311  0.2440  0.0145
31956W        W48430  16.270  12.040   1.104 -0.2379 -0.0097 -0.0925
31957W        W48431  16.580  13.224   3.283 -0.2350 -0.0202 -0.1409
31958W        W48432  13.302   5.840   0.212 -0.2434 -0.2847  0.0367
31959W        W48433  12.077   1.372   0.504  0.0739 -0.0875 -0.3546
31960W        W48434  17.669  14.504   3.498  0.3817  0.1237  0.0382
31961W        W48435   3.500   3.945   0.362  0.1907 -0.0052 -0.1325
31962W        W48436   3.514  12.277  11.735  0.1798  0.1846 -0.0297
31963W        W48437  10.368   7.488  13.574  0.1284 -0.0494  0.3500
31964W        W48438  10.386   2.628   9.710 -0.2266 -0.1400 -0.2091
31965W        W48439   5.014   0.774  11.481 -0.0925 -0.0154  0.2892
31966W        W48440  11.931  17.768   3.553 -0.1925 -0.1927  0.0680
31967W        W48441  13.545  12.100  12.306 -0.3144  0.0535  0.1513
31968W        W48442   1.918   4.315   3.726 -0.0113 -0.0366  0.2991
31969W        W48443   5.150   6.127   4.966  0.1136  0.1545 -0.1673
31970W        W48444   0.426   7.039   0.569  0.1097 -0.0907  0.0274
31971W        W48445  11.754  11.306  12.625 -0.2276  0.3816  0.1649
31972W        W48446  16.718   7.278   3.259  0.0447  0.1021  0.2653
31973W        W48447  10.667   2.069   0.479  0.0388  0.2263 -0.1666
31974W        W48448  16.347   8.712   3.995 -0.1888  0.3330  0.3673
31975W        W48449   6.185  11.577   2.405 -0.0689 -0.0106  0.0063
31976W        W48450   7.861  10.451   9.868  0.1060  0.0082 -0.0084
31977W        W48451  18.096   0.652   9.715  0.2452  0.0714 -0.0698
31978W        W48452  17.975  10.264   0.607  0.0337  0.0166  0.0538
31979W        W48453   3.632   4.372  10.837 -0.2978  0.2082  0.0148
31980W        W48454   4.815  18.475  13.348  0.4910  0.2877  0.2272
31981W        W48455   2.625  15.961   2.272  0.0305  0.1011  0.1121
31982W        W48456   5.340  19.367   4.015 -0.0508 -0.2631  0.0455
31983W        W48457  19.267  16.496  12.358 -0.3851  0.2393 -0.0568
31984W        W48458   0.313  13.823   0.530  0.0718  0.1575 -0.1845
31985W        W48459   8.872   6.050   3.099 -0.3448  0.0106  0.1324
31986W        W48460   2.912  12.694   4.853 -0.1389 -0.0509 -0.1740
31987W        W48461  12.934   3.978   5.908  0.2780  0.2504 -0.1675
31988W        W48462  18.751   4.028   2.641  0.1675  0.0438  0.0637
31989W        W48463  12.851   3.074  12.200  0.2091  0.1743 -0.3819
31990W        W48464  10.337   5.401  11.874  0.0149  0.0633  0.3702
31991W        W48465  19.032   6.344   2.328  0.1124 -0.3776 -0.3546
31992W        W48466  15.086  12.841   2.564 -0.2515 -0.3086 -0.3245
31993W        W48467  18.162  15.036   3.435  0.2432  0.2798 -0.1638
31994W        W48468   2.528  15.411  11.323 -0.0212 -0.1791  0.3299
31995W        W48469  13.444   2.682   0.468  0.2547  0.0877 -0.0629
31996W        W48470   2.433   2.102  11.470  0.3663  0.0995 -0.6114
31997W        W48471  15.002  17.037   2.567 -0.3789  0.0868  0.1127
31998W        W48472   1.856   5.753   0.891 -0.0678 -0.2605  0.0651
31999W        W48473  18.649  19.368  13.030 -0.0182 -0.1372 -0.1587
32000W        W48474  18.584  16.353   1.541  0.2757  0.3267  0.1709
32001W        W48475   9.012  10.107  10.600 -0.0660  0.2217 -0.2965
32002W        W48476  15.081  17.788   4.413 -0.2148 -0.0835 -0.0157
32003W        W48477   8.433   8.686  12.020  0.0109 -0.0202  0.0856
32004W        W48478  10.400  15.168   5.142  0.1273 -0.2985  0.1092
32005W        W48479  18.789   9.936  12.110  0.2201 -0.0849  0.0253
32006W        W48480   9.765  13.725   4.798 -0.3443  0.1330  0.1995
32007W        W48481  12.818  10.734   0.085  0.1399 -0.0596 -0.4132
32008W        W48482  13.025  10.624  10.889  0.0645  0.0630  0.1780
32009W        W48483  19.322   4.350   4.119  0.1843 -0.4718  0.0709
32010W        W48484   1.637   9.631   2.946 -0.1646  0.1394  0.1836
32011W        W48485   6.536   1.716   8.700  0.2796 -0.0360  0.3007
32012W        W48486  17.428   7.807  13.032  0.0198 -0.1435 -0.0846
32013W        W48487  13.142  15.677  12.492 -0.1086  0.3126  0.1554
32014W        W48488  13.212  16.712  12.120  0.1168 -0.0666  0.0949
32015W        W48489  12.727   0.610   1.824  0.1544  0.1850  0.3010
32016W        W48490   5.830  16.714   0.267 -0.3481  0.0820 -0.1552
32017W        W48491  19.102  14.075   0.948 -0.0716  0.1078 -0.1443
32018W        W48492  14.671   5.065   5.076  0.1314 -0.3805 -0.2058
32019W        W48493  16.362   8.956   1.419 -0.4138  0.1033 -0.0695
32020W        W48494   2.974   8.123  14.394  0.1576  0.1305 -0.0555
32021W        W48495   9.747  15.673  10.250 -0.2089 -0.5279 -0.0666
32022W        W48496  14.417  17.561  10.200  0.1735  0.0783 -0.0611
32023W        W48497   9.219  15.230   0.808  0.0170  0.1344  0.1709
32024W        W48498   9.918  16.108  14.108  0.1113  0.0397  0.2431
32025W        W48499  17.970   6.141  14.670 -0.1133 -0.2180 -0.1829
32026W        W48500   7.875  17.578  13.091  0.0312 -0.1970 -0.2582
32027W        W48501   1.638   6.046  12.904 -0.5340  0.1207  0.0852
32028W        W48502   8.095  17.761   1.340  0.2832 -0.2354  0.1959
32029W        W48503  16.150   5.790  14.581 -0.1029  0.1313 -0.0879
32030W        W48504   8.659   5.528   1.265 -0.0005  0.1774 -0.1779
32031W        W48505  13.974   2.688   4.461  0.0653  0.0919  0.1311
32032W        W48506  18.519   1.078   1.440 -0.1042 -0.1478 -0.1918
32033W        W48507   8.785  17.139  12.203 -0.3639 -0.0792 -0.0297
32034W        W48508  17.014   2.158  11.773 -0.2153 -0.2174  0.2856
32035W        W48509   7.417   5.579   1.517 -0.1962  0.0133  0.0869
32036W        W48510   2.840   0.540   0.039 -0.0706 -0.1213  0.0041
32037W        W48511   5.255  13.858  14.512 -0.0084 -0.2376  0.2863
32038W        W48512   2.341   9.942  12.263 -0.1976 -0.1178  0.0938
32039W        W48513  13.950   9.838  13.181 -0.1335 -0.0675  0.0318
32040W        W48514   6.983   5.338  14.300  0.3277 -0.1794 -0.1433
32041W        W48515  13.928   4.961   3.609 -0.1617  0.1564  0.2768
32042W        W48516   7.564  10.023   0.242  0.2402  0.0218 -0.0059
32043W        W48517  12.580   2.170   3.997  0.1731  0.0728 -0.0664
32044W        W48518  15.490   4.709   2.588  0.0263  0.3590 -0.0379
32045W        W48519  15.631  18.614  10.747 -0.1470 -0.1631 -0.2803
32046W        W48520   3.102  10.487  13.663  0.3150 -0.1251 -0.1280
32047W        W48521  12.487  18.202   1.812  0.0259  0.1026 -0.2320
32048W        W48522   8.201   3.580  12.382 -0.0654 -0.0605  0.0705
32049W        W48523  14.489   5.397  12.675 -0.1369 -0.2584 -0.2419
32050W        W48524  15.397   5.808  13.239 -0.1580 -0.0781  0.0588
32051W        W48525   1.331   5.002  13.984 -0.0224  0.0039 -0.4657
32052W        W48526   3.522   8.577  11.582 -0.0656  0.1458 -0.0191
32053W        W48527   7.227  10.450  10.360  0.1045  0.2565 -0.1027
32054W        W48528   0.604  17.468   3.692 -0.0273 -0.1704 -0.2591
32055W        W48529   0.089  14.717   4.852  0.2833  0.0104 -0.2101
32056W        W48530  11.668  15.644  13.572  0.0505 -0.2142 -0.2893
32057W        W48531   6.382   7.097   0.043  0.2031 -0.1520 -0.0704
32058W        W48532   3.727  11.222  13.042  0.1069 -0.2271 -0.1110
32059W        W48533   0.702   8.462   2.625 -0.2950 -0.3676 -0.0147
32060W        W48534   8.678  13.584   3.174  0.0399  0.0328 -0.0804
32061W        W48535   1.439  15.591   5.181 -0.0758 -0.3198 -0.2913
32062W        W48536   6.309   4.860  14.647  0.0955  0.0063 -0.0881
32063W        W48537   8.598  17.304  11.334 -0.3978 -0.1280  0.0980
32064W        W48538  16.021   0.755  11.630  0.2280  0.3594 -0.0317
32065W        W48539   0.610   8.684   5.036  0.0745  0.1911  0.0795
32066W        W48540   7.055   2.536   1.052  0.2261  0.0996  0.0881
32067W        W48541   2.388   9.355   2.020 -0.0658  0.1398  0.2613
32068W        W48542   9.356  10.649  13.672 -0.0455  0.3312 -0.0450
32069W        W48543  18.081   2.695  14.640 -0.0079  0.0184 -0.1769
32070W        W48544  15.587  13.992   1.611  0.3435 -0.1245 -0.2451
32071W        W48545  11.201   3.287   2.452  0.1332  0.1241  0.0501
32072W        W48546  11.013   8.074  13.489 -0.0114 -0.2459 -0.3281
32073W        W48547   4.243   8.540  10.593 -0.2839 -0.0758  0.0524
32074W        W48548  14.944  18.662   1.460 -0.0459  0.0931 -0.0093
32075W        W48549  17.978   5.219  13.626 -0.0736  0.0866 -0.1529
32076W        W48550   6.090  18.308   4.552 -0.2223  0.0040  0.2542
32077W        W48551  12.104  15.656  14.379 -0.2859 -0.0483 -0.0325
32078W        W48552  15.018  18.684  14.172  0.1290  0.0067  0.0136
32079W        W48553   1.345  11.070  13.565 -0.4451  0.1638 -0.3525
32080W        W48554  16.200  13.732   5.208 -0.1544 -0.0826 -0.1810
32081W        W48555   4.401   1.281   4.725 -0.0390 -0.1096  0.0547
32082W        W48556  12.316  11.401  12.125  0.2180  0.2257 -0.0491
32083W        W48557   9.958   7.707   0.629  0.1785  0.0385 -0.0818
32084W        W48558  12.791   0.488   4.626  0.1253 -0.0990  0.2828
32085W        W48559  17.901   2.925   1.498  0.1407 -0.0459 -0.0110
32086W        W48560  19.251   1.786  14.169  0.0103  0.1798  0.0517
32087W        W48561   4.773  16.601   0.069 -0.1787  0.0521 -0.1872
32088W        W48562   7.805   0.484  12.136  0.1515  0.0147 -0.1237
32089W        W48563  18.682   3.634  12.989  0.1605  0.1883  0.0701
32090W        W48564  18.991  19.374  11.242  0.1935  0.0286  0.0520
32091W        W48565   0.548   2.994   0.437  0.1778  0.2083  0.1034
32092W        W48566   8.382  17.661  14.868  0.5033 -0.2119 -0.0404
32093W        W48567  18.452  19.382   2.211 -0.0093  0.2311  0.4496
32094W        W48568   9.742  18.840  11.462 -0.1210 -0.0971 -0.0441
32095W        W48569  16.920  16.720   1.742  0.0381  0.0297  0.1450
32096W        W48570   3.717   3.810  13.969 -0.1768 -0.1104  0.3018
32097W        W48571  17.285   1.288   0.259 -0.1174  0.0558  0.1346
32098W        W48572  12.863  16.056   4.857 -0.1570 -0.2074  0.1506
32099W        W48573   3.719  16.607   4.742 -0.2645  0.3285  0.0540
32100W        W48574   5.519   6.989  14.275  0.1670 -0.0163  0.0688
32101W        W48575   8.544  15.867   3.797 -0.0856  0.0634 -0.0962
32102W        W48576  11.050   4.298  14.169 -0.2165 -0.0763  0.0215
32103W        W48577  11.115  13.036  11.219  0.0795  0.0908  0.0289
32104W        W48578   3.732  18.823   4.981 -0.1173  0.0094  0.1524
32105W        W48579  15.324   6.615  13.856  0.2333 -0.0721 -0.0764
32106W        W48580   8.281   4.688  11.664  0.1495 -0.4306 -0.1162
32107W        W48581   9.323  13.397   0.764  0.0793 -0.0316  0.1828
32108W        W48582   5.087   9.047  14.282 -0.2624  0.3315  0.2238
32109W        W48583   1.507   9.268  12.961  0.0845  0.0976 -0.2969
32110W        W48584  13.360   8.956  14.632  0.1303  0.0540 -0.1343
32111W        W48585   6.330  15.195   3.150 -0.2432  0.0375  0.1926
32112W        W48586   0.043   2.705   4.736 -0.1514 -0.2817  0.1494
32113W        W48587   9.272   8.111  12.980  0.1766 -0.2519  0.5044
32114W        W48588   3.634  16.071   5.039 -0.1249  0.1294 -0.1421
32115W        W48589  10.867  16.042   0.292 -0.0389  0.0552  0.0659
32116W        W48590  17.187  16.997   2.736  0.0966 -0.0727  0.1615
32117W        W48591  11.042   1.503   1.989  0.1131  0.0344  0.1707
32118W        W48592  13.780  17.015  12.816 -0.3544 -0.1329  0.0927
32119W        W48593   9.171   3.149  10.884  0.0699 -0.0956  0.1107
32120W        W48594   3.118  10.968  14.743  0.1637 -0.0140  0.2047
32121W        W48595  15.863  13.924   4.293  0.4601  0.0350 -0.1689
32122W        W48596   1.365   9.964  11.816 -0.2485 -0.3570  0.2953
32123W        W48597   2.015   7.105   3.036  0.1494 -0.0672  0.1096
32124W        W48598   7.048   8.107   0.826  0.2982 -0.0791  0.2169
32125W        W48599   2.570   1.451  12.924 -0.2183  0.2980 -0.1100
32126W        W48600   1.166  13.772   3.936 -0.2212 -0.0996 -0.1130
32127W        W48601  14.845  17.325   2.167  0.1311  0.0392 -0.0373
32128W        W48602  18.546   3.248  12.358  0.0444 -0.0476  0.0271
32129W        W48603  16.926   8.860  13.048  0.0953 -0.3069  0.0768
32130W        W48604  11.317   9.834   1.886  0.1172 -0.0308 -0.1402
32131W        W48605  16.342   2.443  12.758  0.1087 -0.2125 -0.0955
32132W        W48606   8.431  17.844  13.330  0.0375 -0.0271  0.1237
32133W        W48607  17.863  10.761   4.728  0.3399  0.1169  0.1479
32134W        W48608   7.835   3.872  12.018  0.4152  0.1317  0.0226
32135W        W48609  16.921  17.846  13.733 -0.1424 -0.0045  0.1889
32136W        W48610   9.053   6.797   0.833 -0.1261 -0.2468 -0.1125
32137W        W48611  12.912  13.700   2.854 -0.0263  0.0847 -0.1464
32138W        W48612  14.955  17.017   1.260 -0.3858 -0.0806  0.2557
32139W        W48613  11.777  12.319   1.865  0.2453  0.1224  0.1881
32140W        W48614  17.869  10.438  13.297 -0.1534 -0.2467 -0.0004
32141W        W48615  16.567   6.220  14.289 -0.0194 -0.2408  0.1433
32142W        W48616   0.950   9.572   2.376 -0.3649 -0.2210 -0.2616
32143W        W48617   2.091   6.567   1.531 -0.1502  0.3592  0.0449
32144W        W48618  13.949  18.805  14.169 -0.0375  0.3066 -0.2273
32145W        W48619   6.015  12.264   2.194  0.0347 -0.1200  0.1040
32146W        W48620  12.680   5.543   3.226 -0.1082 -0.3006 -0.0719
32147W        W48621  10.967   3.670  12.105 -0.1127 -0.0357  0.1758
32148W        W48622   5.781   3.511  13.175  0.1551  0.2172 -0.0775
32149W        W48623  15.008   1.587   0.160  0.1798  0.0037 -0.0455
32150W        W48624   9.321  16.263   1.925  0.2951  0.0761  0.1848
32151W        W48625   1.003   4.110   1.845 -0.1356  0.4664 -0.0762
32152W        W48626  13.532  12.190   9.872  0.0060 -0.2294 -0.1450
32153W        W48627  18.918   9.606   9.649  0.0984  0.0116  0.6076
32154W        W48628  11.335   6.685  13.210 -0.0222  0.2935  0.0094
32155W        W48629   4.531   1.910   2.790 -0.1535  0.1043  0.1812
32156W        W48630   3.785   0.371   2.058  0.4039 -0.0136  0.0598
32157W        W48631  11.437  17.808   2.845 -0.0415  0.1550 -0.1995
32158W        W48632   5.256   4.021  14.487  0.3500  0.0533 -0.2107
32159W        W48633   2.767   7.331   0.752  0.3784  0.0609  0.0833
32160W        W48634   7.035  15.601   3.414  0.2592 -0.2565  0.0737
32161W        W48635  16.808   2.388  12.923 -0.1793 -0.1068  0.1205
32162W        W48636  19.084   0.795   1.233  0.0246  0.0687  0.0073
32163W        W48637   5.460  17.682   2.173  0.0816  0.1347 -0.3016
32164W        W48638  15.146  10.531  12.833  0.0233 -0.1105 -0.4163
32165W        W48639  18.083   1.146  10.651 -0.1474  0.3570 -0.0368
32166W        W48640  10.564  18.625  14.179 -0.1708  0.2603 -0.2844
32167W        W48641   1.599   6.447  14.251 -0.1823 -0.2444  0.0208
32168W        W48642  17.506  19.202   4.102  0.0223 -0.0894 -0.2576
32169W        W48643   8.158   1.719   3.756  0.2515 -0.2730 -0.0290
32170W        W48644  13.485  18.831  13.425  0.6444  0.0863 -0.0901
32171W        W48645   7.615   6.540  12.491  0.0282 -0.0274 -0.0168
32172W        W48646  15.661   1.383   0.997  0.0611  0.0859  0.3565
32173W        W48647   8.209   7.506   2.033  0.2036 -0.0086  0.4413
32174W        W48648   0.998   2.900  13.086 -0.0715  0.1451 -0.0471
32175W        W48649  11.085  11.074   5.748 -0.0159  0.0307 -0.0799
32176W        W48650   4.762  17.509  12.446  0.1174  0.0850  0.1010
32177W        W48651  13.201  16.326  11.110  0.4300 -0.1287 -0.2229
32178W        W48652   6.515  11.934   2.231 -0.0019 -0.2221  0.2096
32179W        W48653   7.847   8.262  14.809  0.1070  0.0209 -0.1079
32180W        W48654  16.178   6.735   2.716 -0.0178 -0.0580  0.0098
32181W        W48655   4.230   7.131   2.924  0.0224 -0.2045 -0.0141
32182W        W48656  17.481   1.037  13.949 -0.2675  0.0778 -0.0014
32183W        W48657   4.478   5.521   0.811 -0.2652 -0.3284 -0.2125
32184W        W48658  18.640   9.936  13.208 -0.1904  0.0537  0.0774
32185W        W48659   4.682  11.130   4.394  0.0967  0.0022  0.2109
32186W        W48660  14.771   0.043  14.448 -0.1391  0.2561 -0.2357
32187W        W48661   1.450  18.096   3.415  0.1462  0.0751  0.0411
32188W        W48662  13.755   5.869   3.948 -0.2567  0.3087 -0.1787
32189W        W48663   1.199  12.259   2.809 -0.1015  0.2262  0.0075
32190W        W48664   3.002  18.869   0.109  0.3384 -0.1639 -0.0927
32191W        W48665   5.655   0.666  14.560  0.2838 -0.1560 -0.1134
32192W        W48666  18.437   2.632   5.333  0.0852 -0.1238 -0.1025
32193W        W48667  15.384  18.415  14.020  0.1231 -0.1309 -0.0631
32194W        W48668   9.155   7.192   2.071 -0.2056 -0.1047 -0.0389
32195W        W48669   6.463   3.445   1.395  0.2671 -0.0946 -0.0654
32196W        W48670  11.289   1.511  12.844 -0.4593 -0.0824  0.0932
32197W        W48671  19.079   9.757  11.720 -0.0282 -0.0288  0.0308
32198W        W48672  10.459   5.640   0.093  0.1713  0.0860 -0.1414
32199W        W48673   2.600  16.079   3.330 -0.1252  0.3917 -0.0334
32200W        W48674  17.942  10.799  10.652 -0.2380  0.0121 -0.3902
32201W        W48675  11.117   5.218  14.484 -0.1612  0.2007 -0.1090
32202W        W48676   7.539   0.443  14.101 -0.2132 -0.1209  0.1764
32203W        W48677  15.439  10.377  14.141 -0.0208 -0.1903 -0.0634
32204W        W48678  13.521  10.914   3.420  0.0019  0.0482 -0.0847
32205W        W48679   0.399  18.246  14.138 -0.0761 -0.1366  0.1576
32206W        W48680  13.413  15.694   1.110  0.2843  0.1119 -0.0413
32207W        W48681  13.977  12.304   5.226  0.0752  0.1890  0.2168
32208W        W48682  13.583  17.371  11.873  0.0351 -0.1378 -0.2416
32209W        W48683  18.039   6.018   3.950  0.2688  0.2256  0.1286
32210W        W48684   8.193  13.042  14.414  0.2887 -0.0686  0.0357
32211W        W48685  15.317  15.431  11.395  0.0147 -0.2171 -0.0939
32212W        W48686  14.273  10.240  12.234 -0.2434  0.1427 -0.1377
32213W        W48687  11.077  18.762   2.821 -0.0981  0.1473 -0.2451
32214W        W48688  15.349   8.958  14.050  0.1969  0.1659 -0.1127
32215W        W48689  15.144  19.142   2.175  0.1272 -0.1785 -0.1931
32216W        W48690   2.202  16.389  12.546 -0.0547 -0.1378  0.1506
32217W        W48691  19.151  16.849   0.335  0.1351 -0.0202  0.1644
32218W        W48692   8.984   7.102   9.740  0.0953  0.1784  0.1412
32219W        W48693   0.159  19.185  11.913  0.0744  0.1786  0.1395
32220W        W48694  18.729   8.725   4.855  0.0535  0.2298  0.0562
32221W        W48695   1.536   1.383   9.774 -0.3245 -0.0477 -0.1373
32222W        W48696   9.704   2.079  12.125  0.2588  0.1715 -0.1773
32223W        W48697  16.357  16.402  14.561 -0.1694 -0.1107  0.0012
32224W        W48698   4.684  11.576  12.419  0.0977 -0.2959 -0.0926
32225W        W48699  17.964   0.352  14.574  0.0818 -0.0468  0.1526
32226W        W48700   7.579   4.413  10.345  0.2421 -0.1173  0.0154
32227W        W48701   5.651   3.863   9.545 -0.0752 -0.1614 -0.0234
32228W        W48702   9.866   9.297   1.499  0.1355 -0.5133 -0.1950
32229W        W48703   4.665  10.003  13.296  0.2443  0.1665 -0.1209
32230W        W48704   9.935   7.319   4.574 -0.3546  0.3000  0.0060
32231W        W48705  13.203   4.799  12.810 -0.1954 -0.0894 -0.0757
32232W        W48706  15.094  12.565   0.660  0.5538  0.0390  0.1361
32233W        W48707  13.687   1.729   4.601 -0.0359  0.3400 -0.0140
32234W        W48708  13.581  14.192   1.208  0.2912 -0.1986 -0.0726
32235W        W48709   9.502  14.590  10.818 -0.2010  0.0827  0.0199
32236W        W48710  15.469   3.104   4.931  0.2920 -0.0062  0.0466
32237W        W48711   7.356  16.261   4.160  0.0078  0.1308 -0.0408
32238W        W48712   9.537   4.650   2.082 -0.1211 -0.1338 -0.5314
32239W        W48713  11.158   4.519   0.337  0.2854 -0.3184 -0.0897
32240W        W48714   1.743   1.043   3.701 -0.2701  0.0108  0.0928
32241W        W48715   9.533   3.470  10.627  0.2730  0.4631  0.1288
32242W        W48716  13.650   9.878  12.159  0.0194  0.4278  0.1562
32243W        W48717   1.568  13.798   1.415 -0.2209  0.1810  0.3264
32244W        W48718   4.601   2.673  12.885 -0.0651 -0.1143 -0.0647
32245W        W48719  18.957   2.572   4.984  0.2857  0.0700 -0.1415
32246W        W48720   3.664  18.351  10.923 -0.1938  0.3811 -0.1499
32247W        W48721  14.195  15.027   1.730  0.2542 -0.0463 -0.2586
32248W        W48722   8.671   6.098  13.157 -0.0509  0.1602 -0.1531
32249W        W48723  18.044   8.785   0.730 -0.0996  0.3982  0.0001
32250W        W48724  15.380  10.505   5.241  0.2874 -0.1843 -0.2991
32251W        W48725  11.647   9.564  10.622  0.0179 -0.0119 -0.1078
32252W        W48726  12.965   9.155   3.402 -0.1539 -0.3257 -0.1592
32253W        W48727   9.019  18.873  10.151  0.2897  0.1573 -0.0463
32254W        W48728   7.996   2.945   3.125 -0.0344  0.0223 -0.2673
32255W        W48729   7.318  13.083   1.096  0.2521  0.1987 -0.0373
32256W        W48730  10.337  10.131   9.978  0.0593  0.0450  0.2345
32257W        W48731  18.863  13.455  11.237  0.3249 -0.2029  0.2160
32258W        W48732  17.223   4.562   4.181 -0.2592 -0.3848  0.0636
32259W        W48733  15.091   4.888   3.020  0.2667 -0.2230  0.1637
32260W        W48734   5.788   5.696   2.392  0.0193  0.0886  0.1560
32261W        W48735  15.763   7.553  14.150  0.1084 -0.4391  0.2734
32262W        W48736   9.239  11.964   3.920  0.3065 -0.0322 -0.0404
32263W        W48737   8.828   8.299  13.267 -0.0808  0.0033  0.1209
32264W        W48738   8.708   3.209  14.496  0.1222  0.3612 -0.0575
32265W        W48739   4.719  10.346  13.664  0.4182 -0.0298  0.2309
32266W        W48740  10.392  19.329  10.488 -0.1201 -0.1270 -0.1370
32267W        W48741   5.022   4.519   0.131 -0.1211 -0.1329 -0.1224
32268W        W48742   4.271   0.123  12.559 -0.3269 -0.1649 -0.0279
32269W        W48743  15.064   6.225   0.950 -0.1586 -0.0672  0.2073
32270W        W48744  15.016  12.908  12.943 -0.1218  0.1029 -0.1584
32271W        W48745   6.977   2.620  13.879  0.0458  0.0693  0.0792
32272W        W48746  16.119  14.605  10.535  0.0818 -0.1908  0.2988
32273W        W48747  13.596   2.443  14.821  0.1862 -0.1599 -0.0249
32274W        W48748  13.408   3.193  14.018  0.2962  0.1128 -0.4635
32275W        W48749  15.760   5.685   1.606 -0.2653  0.1280 -0.3926
32276W        W48750   3.842  13.111  12.957  0.1267  0.1621 -0.2387
32277W        W48751   7.757   7.457   2.951  0.1119 -0.1814 -0.1494
32278W        W48752  18.178   5.488   0.098 -0.0342  0.2600 -0.2850
32279W        W48753   7.383  16.814   1.814 -0.1845  0.2156 -0.0663
32280W        W48754   1.674  17.397   0.562 -0.0627  0.0450 -0.1019
32281W        W48755  18.768  15.981  14.643 -0.0594  0.0233  0.4388
32282W        W48756   0.361  16.184  13.099  0.1348  0.1575 -0.0511
32283W        W48757   0.393  17.595  14.425  0.4064 -0.0732  0.1243
32284W        W48758   5.544  18.029  12.992  0.1574  0.0390  0.3291
32285W        W48759   7.745   9.989   2.457 -0.1661 -0.1093 -0.0039
32286W        W48760  10.325   1.885  12.665  0.0621  0.2008  0.0080
32287W        W48761  13.424  15.560   0.635  0.0254  0.1671 -0.0125
32288W        W48762   4.879  18.079  14.060  0.0923 -0.3521 -0.0205
32289W        W48763   8.650  18.738  11.157  0.0311 -0.0768 -0.0499
32290W        W48764  13.770  15.513   2.473 -0.2055  0.4615  0.0676
32291W        W48765   9.350   3.092   0.375  0.0379 -0.1596 -0.1605
32292W        W48766   5.297  17.101  12.084  0.2109  0.2427 -0.3418
32293W        W48767  11.486   2.732  12.072  0.3285  0.0684  0.1200
32294W        W48768  15.374  15.972   0.481  0.0291  0.2211  0.0052
32295W        W48769  10.722   4.626   4.231  0.0279 -0.2121 -0.0541
32296W        W48770   9.463  18.308  10.704 -0.0036 -0.1250  0.2538
32297W        W48771  18.122  13.382  12.141  0.0639  0.2856  0.0900
32298W        W48772   4.548   5.607  13.854  0.1323  0.1774 -0.0100
32299W        W48773  18.542  17.453   2.063  0.2581  0.0279 -0.1217
32300W        W48774   2.844  13.447   2.243 -0.0236  0.0467 -0.1360
32301W        W48775   5.160  12.653  11.825 -0.0900 -0.1001 -0.1713
32302W        W48776   1.300  17.653   2.747 -0.0984  0.3787 -0.0259
32303W        W48777  18.084   4.063   2.071  0.0497 -0.0751  0.0959
32304W        W48778   1.172   0.170   3.562 -0.1208 -0.1999 -0.2181
32305W        W48779   7.648  15.824  11.955  0.0039  0.0494 -0.0565
32306W        W48780  17.928  19.205   2.220 -0.2290 -0.3091  0.0542
32307W        W48781  16.808  13.718   0.422 -0.1775 -0.2612  0.1581
32308W        W48782  14.946   4.314  14.164 -0.1364  0.1815 -0.2559
32309W        W48783   2.691  15.607   3.587 -0.0202 -0.0736  0.1708
32310W        W48784  18.779   9.678   2.593  0.0616 -0.0703 -0.2759
32311W        W48785   5.300   6.662  14.603  0.2933  0.0688 -0.0313
32312W        W48786   4.058  16.195  12.221 -0.0026  0.0938 -0.1735
32313W        W48787  10.572  12.631  12.775  0.0547  0.0922  0.2192
32314W        W48788  18.234   0.847   3.401 -0.4146 -0.0562  0.0097
32315W        W48789  14.543  13.404   0.266 -0.3228  0.0834 -0.0725
32316W        W48790   9.874   8.738   1.123  0.0267 -0.2446  0.1034
32317W        W48791  15.475  11.353   3.880 -0.0051 -0.1321  0.0112
32318W        W48792   2.671   5.361  12.524  0.2998 -0.0905  0.2305
32319W        W48793  12.657   2.534   4.766  0.0593  0.1360  0.3229
32320W        W48794   8.798  11.711   9.798 -0.2122 -0.0255  0.1038
32321W        W48795  17.477   8.468   2.921 -0.0367  0.1025 -0.1642
32322W        W48796  11.497   6.187  12.225  0.4560 -0.0693  0.0790
32323W        W48797  19.023  10.216  10.302  0.3635 -0.0045 -0.0545
32324W        W48798  16.494   0.646  13.601 -0.5587 -0.0636  0.0872
32325W        W48799  11.934  17.574  12.342 -0.0263  0.1221  0.0581
32326ION     NA48800  17.142   2.776   4.830 -0.5006 -0.1608  0.4949
32327ION     NA48801  17.698   2.438  13.866 -0.2300  0.0948 -0.3861
32328ION     NA48802   8.017  12.296   1.154 -0.3567 -0.0772 -0.0413
32329ION     NA48803  13.046  14.330   1.901 -0.3268  0.0068  0.4533
32330ION     NA48804   6.764   2.926   4.900  0.0293 -0.2321 -0.0808
32331ION     NA48805  19.025  17.118   5.346 -0.1630 -0.1281 -0.1386
32332ION     NA48806  13.093   7.210   5.392 -0.0611  0.0397  0.1951
32333ION     NA48807  15.337   5.787   9.578 -0.1556  0.0411  0.0741
32334ION     NA48808   7.443   9.611  13.795 -0.0250 -0.0343 -0.2051
32335ION     NA48809   9.719   4.758   2.987 -0.1668  0.3719 -0.0555
32336ION     NA48810   6.903  19.370   9.098  0.2161 -0.3644  0.1285
32337ION     NA48811  18.538  13.498  14.811 -0.2448  0.2896  0.2356
32338ION     NA48812   6.845  17.484   4.286  0.2455  0.0127  0.0016
32339ION     NA48813  17.277  16.142  10.415  0.3612 -0.1931  0.1900
32340ION     NA48814   0.710  12.147   3.822  0.0743 -0.2712 -0.0908
32341ION     NA48815  13.623  11.094   2.923  0.1229 -0.0302  0.1725
32342ION     NA48816   7.259   9.619   3.067  0.1725  0.0154 -0.0853
32343ION     NA48817  12.340  17.207   2.327 -0.0052 -0.0492 -0.1396
32344ION     NA48818  10.828  11.562  14.252 -0.1213 -0.1766 -0.0510
32345ION     NA48819  10.178   1.524  10.276  0.2655  0.0507  0.3810
32346ION     NA48820   1.102  11.090   1.316  0.3850  0.2867 -0.0160
32347ION     NA48821  14.383   8.789   4.910 -0.1136 -0.0985  0.2038
32348ION     NA48822  12.894  10.821   4.911  0.0209 -0.0629  0.6211
32349ION     NA48823  14.741   3.493  13.989 -0.2778  0.0189  0.2060
32350ION     NA48824   9.903  16.758   9.816  0.3941 -0.2256 -0.2061
32351ION     NA48825  13.645   8.504   9.566  0.1774  0.0149 -0.1879
32352ION     NA48826  15.017  15.563  10.043 -0.2219 -0.0018  0.3365
32353ION     NA48827   6.582  17.956  13.410 -0.0987  0.1188  0.1307
32354ION     NA48828  12.495   3.766   5.723  0.0386 -0.0348  0.1090
32355ION     NA48829   1.424   4.243  12.803  0.1132 -0.1884 -0.0398
32356ION     NA48830  11.508  17.063  13.554 -0.0044  0.3099  0.0058
32357ION     NA48831   2.037  14.347   5.766 -0.1596 -0.1445 -0.3145
32358ION     NA48832  17.968   3.560  11.799  0.1874 -0.1142 -0.1252
32359ION     NA48833  10.290   4.000   9.628 -0.1290  0.2810  0.0160
32360ION     NA48834   1.555   7.833  13.484 -0.1099 -0.1714  0.0951
32361ION     NA48835   4.975  15.756   1.331  0.0141 -0.2207 -0.3471
32362ION     NA48836   8.305  12.847  10.065 -0.1630 -0.0827 -0.2513
32363ION     NA48837  10.582   3.807   2.134 -0.0194  0.0126 -0.0034
32364ION     NA48838   3.466   4.531  12.165  0.0494  0.2214  0.1299
32365ION     NA48839  17.003  10.481   4.074 -0.1510  0.2649  0.2179
32366ION     NA48840  10.815  19.125  14.374 -0.0182  0.2034  0.1003
32367ION     NA48841   5.942   0.952   4.748  0.1468  0.2601 -0.1414
32368ION     NA48842   0.896  12.522  10.383 -0.1964  0.1980 -0.1258
32369ION     NA48843  10.728  15.145   5.547 -0.1708 -0.1430  0.1041
32370ION     NA48844   1.966  12.875  10.279  0.0510  0.2324  0.1400
32371ION     NA48845  19.004   6.216   9.868  0.0459  0.0866 -0.0242
32372ION     NA48846   3.601   2.410   9.671 -0.2034 -0.3170 -0.1507
32373ION     NA48847  11.856   3.669  12.072 -0.0790  0.1179  0.2217
32374ION     NA48848  14.883  12.172   5.297 -0.0222  0.0199 -0.0103
32375ION     NA48849   0.825  17.406  13.692 -0.2068  0.1843  0.1711
32376ION     NA48850  16.788  16.372   5.862 -0.1499  0.0698 -0.3168
32377ION     NA48851   3.259  10.865   2.107 -0.0462  0.3022  0.1556
32378ION     NA48852   4.452  17.952   9.329  0.2529  0.1350 -0.0960
32379ION     NA48853   9.361   8.430   0.875 -0.0931  0.0328  0.0545
32380ION     NA48854   4.658   3.005   9.367 -0.1047 -0.1883 -0.0118
32381ION     NA48855  17.703   7.023   5.390 -0.3178 -0.2624 -0.1704
32382ION     NA48856   3.490   8.092   9.528  0.0259 -0.3040 -0.0814
32383ION     NA48857  10.106  16.913   0.393  0.2952 -0.4458  0.0616
32384ION     NA48858   1.578  13.995   0.938 -0.3404  0.0680 -0.2217
32385ION     NA48859   6.953   4.279   8.890 -0.1925 -0.1826  0.1296
32386ION     NA48860   0.000   3.014   4.363 -0.0185  0.2545  0.0498
32387ION     NA48861   3.645   0.149   4.620 -0.0973  0.1841 -0.1332
32388ION     NA48862   9.959   0.140  14.381  0.0343  0.1350 -0.1589
32389ION     NA48863   7.697  15.655  10.141  0.3100  0.0238  0.0777
32390ION     NA48864   0.677   0.447   9.281  0.2533 -0.3821  0.0038
32391ION     NA48865   7.254   6.511   4.768  0.3473  0.0296 -0.1906
32392ION     NA48866  10.078  14.639  14.145  0.3100 -0.3944 -0.0280
32393ION     NA48867   2.169   0.913   5.048  0.0223  0.1868  0.0648
32394ION     NA48868  18.194  11.084  10.328  0.1253 -0.1243 -0.2376
32395ION     NA48869  15.673   9.579  10.415  0.1973 -0.2010  0.0318
32396ION     NA48870  16.421   6.030   5.356 -0.0742 -0.1739 -0.3563
32397ION     NA48871  16.499   5.672   9.579  0.0419 -0.2083 -0.0602
32398ION     NA48872   1.405   4.102   0.300  0.1659  0.0150 -0.1624
32399ION     NA48873  13.637  12.372  14.099  0.0270  0.0394 -0.0159
32400ION     NA48874  15.367   5.384  10.806 -0.0005 -0.0692 -0.1988
32401ION     NA48875   6.149  17.288   2.353  0.0027 -0.1259  0.4658
32402ION     NA48876   3.974   1.253  11.865  0.0047 -0.0749  0.2044
32403ION     NA48877   7.936   4.204   4.452  0.1758  0.0518  0.1027
32404ION     NA48878   2.310  12.631   5.613 -0.2205 -0.1442 -0.0514
32405ION     NA48879  14.244  12.922  10.009  0.3260 -0.0288 -0.1144
32406ION     NA48880   6.297  15.427   9.692  0.1718 -0.2756  0.1301
32407ION     NA48881   4.163   1.505   2.560 -0.0964 -0.0807  0.0261
32408ION     NA48882   8.109  15.215  14.527 -0.0903  0.3265  0.0576
32409ION     NA48883   5.550  14.848   9.714 -0.1231 -0.3761 -0.3265
32410ION     NA48884   2.243   4.299   9.803  0.1401 -0.2112  0.1371
32411ION     NA48885  14.629   5.017  12.298  0.2252 -0.2954 -0.2839
32412ION     NA48886  17.001  11.920  10.167  0.1989  0.1546  0.0024
32413ION     NA48887  14.685  14.677   0.868 -0.2367 -0.1181 -0.2258
32414ION     NA48888   5.818  13.880  10.265  0.1296 -0.0886  0.2760
32415ION     NA48889  11.719  16.109   9.923 -0.1640  0.0932 -0.1408
32416ION     NA48890  19.038   1.843   2.215  0.2584  0.0026 -0.0678
32417ION     NA48891   5.445  18.611   5.088  0.2262 -0.0074  0.1300
32418ION     NA48892   7.892   1.678   4.822  0.1172  0.2398 -0.0494
32419ION     NA48893   6.467  14.498   2.441 -0.1166  0.0191  0.0532
32420ION     NA48894   5.667  16.373  10.458  0.0246 -0.0881  0.0464
32421ION     NA48895   9.990   4.763   9.124  0.2056 -0.1160  0.0965
32422ION     NA48896  17.895   2.447   9.760  0.0005 -0.0537 -0.1429
32423ION     NA48897   3.456  18.214  14.324  0.0304 -0.2270  0.0863
32424ION     NA48898   7.722   5.047   3.839  0.1276  0.1462 -0.3271
32425ION     NA48899  17.984   1.449   5.580 -0.2419 -0.0875  0.2027
32426ION     NA48900   9.883   7.127   4.999  0.1661  0.2009 -0.0781
32427ION     NA48901   1.822  11.474   9.843 -0.0373 -0.0789  0.3715
32428ION     NA48902   4.872   0.192   3.973  0.2335  0.1948  0.1949
32429ION     NA48903  17.538  11.912   5.676  0.3126 -0.0229  0.0518
32430ION     NA48904  17.560   2.167   2.608 -0.3196 -0.2257 -0.3862
32431ION     NA48905   6.671  14.249   3.657  0.1409  0.0620  0.1068
32432ION     NA48906   3.583  10.198   1.637 -0.2034  0.1839 -0.1709
32433ION     NA48907   4.312   7.973   5.304 -0.1450  0.1598  0.2052
32434ION     NA48908  16.017   1.919  13.249  0.0710  0.1068 -0.4193
32435ION     NA48909  11.409   0.137   9.780  0.0027 -0.0982  0.2220
32436ION     NA48910   0.380   6.233  13.922  0.0565 -0.2205  0.0757
32437ION     NA48911  14.913   0.688   9.527 -0.0528 -0.3199  0.1780
32438ION     NA48912  12.713   9.361  14.085  0.0771  0.2189 -0.1952
32439ION     NA48913   0.074  11.400   5.289 -0.0483  0.1034  0.1953
32440ION     NA48914  12.813  11.670   4.689  0.1474  0.0380 -0.1850
32441ION     NA48915   6.245  16.487   9.706 -0.1177  0.1645  0.2344
32442ION     NA48916   2.756  11.978   9.783 -0.0486 -0.4245 -0.0592
32443ION     NA48917   5.162  11.385  10.274  0.2173 -0.0982 -0.0518
32444ION     NA48918   1.589   5.233   1.667 -0.1853 -0.0365  0.2112
32445ION     NA48919  13.687  16.897   9.902 -0.2005 -0.1342  0.0551
32446ION     NA48920   3.024  16.814   9.587  0.0083 -0.0029  0.2138
32447ION     NA48921   3.656  17.578   3.578 -0.1809  0.0524 -0.0409
32448ION     NA48922   9.530   8.065   4.921  0.4419  0.4596 -0.0027
32449ION     NA48923  16.416  18.610   9.742 -0.1297 -0.3213 -0.2699
32450ION     NA48924  15.163  19.056  13.807 -0.2510 -0.2076  0.1744
32451ION     NA48925   2.805   5.105   5.396  0.1704 -0.0961  0.1083
32452ION     NA48926  13.378   4.203   2.464  0.1276  0.2212 -0.3637
32453ION     NA48927  13.156  17.791   5.083 -0.3572  0.0179  0.1889
32454ION     NA48928  17.946  12.963  10.214  0.4090 -0.3330 -0.0506
32455ION     NA48929   0.549   7.066   9.674 -0.2288  0.1664  0.1370
32456ION     NA48930  10.455  16.561   5.227  0.1302  0.2330 -0.0163
32457ION     NA48931  10.692  13.234   0.892 -0.0254 -0.2609  0.0127
32458ION     NA48932   4.817   0.277   1.752 -0.2406 -0.1262  0.0714
32459ION     NA48933  15.354  17.095   9.891 -0.0570 -0.1157  0.0926
32460ION     NA48934   1.763  12.260   3.051 -0.0998  0.5184 -0.1346
32461ION     NA48935   9.354  15.140   9.780  0.1265 -0.1161 -0.2340
32462ION     NA48936  16.872   2.239   9.762  0.0257  0.1803  0.0739
32463ION     NA48937  10.357   5.769   9.143 -0.0004  0.1316 -0.1545
32464ION     NA48938   1.508  17.262   9.796  0.1704 -0.7217 -0.0889
32465ION     NA48939   0.154   6.900  12.027 -0.4806 -0.2770 -0.1007
32466ION     NA48940  17.244  15.161   9.979  0.1567  0.2031 -0.0396
32467ION     NA48941  16.576  12.454  13.128 -0.1753  0.2790  0.1415
32468ION     NA48942   9.319   2.429   4.175 -0.0101  0.1833  0.3496
32469ION     NA48943  11.757   5.800  10.041  0.1191  0.1219  0.1550
32470ION     NA48944   9.941   3.939   8.885 -0.0257  0.3106  0.0302
32471ION     NA48945   8.859   8.366   1.863  0.2230  0.0157  0.0303
32472ION     NA48946  18.081   1.942   0.448  0.2746 -0.0611 -0.3939
32473ION     NA48947  18.900  14.257   3.766  0.1118  0.0423  0.1724
32474ION     NA48948  17.820   8.116   5.732  0.1920 -0.0544  0.1011
32475ION     NA48949   5.436   8.915   9.190  0.0763  0.0453 -0.1081
32476ION     NA48950   6.439  17.820   9.692  0.3476  0.0791 -0.0399
32477ION     NA48951   5.034   3.349  10.420  0.1352 -0.0805 -0.0331
32478ION     NA48952  12.985  11.931  13.481 -0.0056  0.2018 -0.2319
32479ION     NA48953   6.988  14.638   4.084 -0.1801  0.1480 -0.1771
32480ION     NA48954  14.616  16.790  10.086 -0.3107 -0.2170  0.2745
32481ION     NA48955  14.306   8.796  13.584  0.0588  0.2511 -0.2760
32482ION     NA48956   3.239   1.629   2.705 -0.3495 -0.0997  0.0856
32483ION     NA48957  16.892   4.997   3.968 -0.0478 -0.0125 -0.0014
32484ION     NA48958  12.290   7.063  11.793 -0.2124 -0.0671  0.1678
32485ION     NA48959   9.544  13.149   9.427 -0.0690  0.1056 -0.0942
32486ION     NA48960  10.736  12.621   9.715  0.1640  0.2756  0.1800
32487ION     NA48961   7.978   7.444   2.464  0.2110 -0.1657  0.1414
32488ION     NA48962  15.411   1.150   3.261  0.2501  0.0956 -0.3952
32489ION     NA48963   3.569   3.470   5.336  0.0575 -0.1643  0.2141
32490ION     NA48964   7.989   9.278   8.914  0.3059 -0.2066 -0.2569
32491ION     NA48965  11.864  12.325   3.414  0.0222 -0.3414 -0.2053
32492ION     NA48966   4.529  14.399   2.838  0.1613 -0.1080 -0.1379
32493ION     NA48967  12.013   5.205   3.052  0.0793  0.1495  0.2401
32494ION     NA48968   7.783   0.683  12.584  0.1073  0.0791  0.1002
32495ION     NA48969   1.770   1.166   1.220  0.0155 -0.1302 -0.1498
32496ION     NA48970  17.733  15.465   0.639 -0.0403  0.2460 -0.0438
32497ION     NA48971  12.779  17.105  10.680 -0.1296  0.2661 -0.1571
32498ION     NA48972  15.096  12.379  14.418  0.0268 -0.0743  0.0429
32499ION     NA48973  15.374   4.378   4.614 -0.1141 -0.0950 -0.0643
32500ION     NA48974   6.860   9.164   9.246  0.1208  0.3702  0.1964
32501ION     NA48975  16.712   0.162   9.680  0.0538  0.1855 -0.1841
32502ION     NA48976   2.929  13.295   2.750  0.2597  0.1290  0.0503
32503ION     NA48977   5.304   0.313  14.498 -0.0011  0.2663 -0.1029
32504ION     NA48978  13.228   8.210  14.319  0.0497 -0.2279 -0.3115
32505ION     NA48979   8.677  13.970  12.885  0.2648  0.3388 -0.2188
32506ION     NA48980  13.232  17.798  12.233  0.2396  0.2056  0.3886
32507ION     NA48981   1.640   3.442   9.672 -0.0950 -0.1117  0.1248
32508ION     NA48982  17.943   4.313  11.381  0.1295 -0.0577  0.2030
32509ION     NA48983   7.372   0.473   1.877  0.1777  0.0345  0.1536
32510ION     NA48984   3.994  15.339   9.690 -0.0341  0.0113  0.0790
32511ION     NA48985  18.011  19.178   4.806 -0.0884  0.1662 -0.0750
32512ION     NA48986  17.016   1.115   0.725 -0.3574 -0.1101 -0.0969
32513ION     NA48987   7.339   0.730   0.770  0.1271  0.1826  0.0367
32514ION     NA48988  10.984   8.834   5.075 -0.0355 -0.0191 -0.1975
32515ION     NA48989   9.685   0.403  10.731  0.1109 -0.0197 -0.0761
32516ION     NA48990  17.804   9.885  10.397 -0.1476 -0.1280 -0.2239
32517ION     NA48991  14.029   7.109   9.954 -0.0240 -0.2272  0.0019
32518ION     NA48992  11.036  14.930   2.989 -0.3853 -0.0416 -0.2336
32519ION     NA48993   7.939   0.765   4.639  0.0367 -0.1486 -0.3185
32520ION     NA48994   6.134   3.576   0.207 -0.0811 -0.0001 -0.0348
32521ION     NA48995   4.008  16.805   9.507  0.5835 -0.2201  0.3346
32522ION     NA48996   7.138   7.784  12.941  0.1799  0.2340  0.0088
32523ION     NA48997  12.581  14.904   4.357 -0.0665 -0.1044 -0.1653
32524ION     NA48998  11.384  10.540   5.112 -0.0385  0.0922  0.0973
32525ION     NA48999   1.864   7.629   1.133  0.2269 -0.0269 -0.0533
32526ION     NA49000   1.277  18.172   9.866 -0.0208  0.0097  0.0430
32527ION     NA49001   1.542   7.147   9.669 -0.0064  0.1374  0.0609
32528ION     NA49002   3.491   9.216   3.256  0.0305  0.0278  0.1258
32529ION     NA49003   8.157  17.011   0.107  0.1582 -0.0051 -0.0947
32530ION     NA49004  11.962  14.984  12.864 -0.2837 -0.1495  0.2026
32531ION     NA49005  17.031  10.829   9.635  0.0058  0.0865  0.3406
32532ION     NA49006   1.479  11.377   5.291  0.3306 -0.1339 -0.0534
32533ION     NA49007  10.460  13.238   4.973  0.0925  0.2681  0.0108
32534ION     NA49008   3.467  11.249   9.731 -0.0313 -0.1384 -0.4218
32535ION     NA49009   2.833   8.299   2.612 -0.3701  0.1839  0.2813
32536ION     NA49010  10.497  18.672   9.623  0.2435 -0.2307 -0.0755
32537ION     NA49011   9.819   9.418   9.071 -0.0718  0.2368 -0.2428
32538ION     NA49012   0.402   5.377  14.170  0.2062  0.2954 -0.4073
32539ION     NA49013  11.470   6.338   5.019 -0.4161 -0.0652  0.2406
32540ION     NA49014  16.330   0.381  11.790  0.1285 -0.0154  0.2453
32541ION     NA49015  12.280   6.094  12.972  0.1709  0.1218  0.1094
32542ION     NA49016   3.238   5.477   0.035  0.1969 -0.2090  0.0275
32543ION     NA49017  13.656   4.903   4.134 -0.2674  0.0984  0.1801
32544ION     NA49018  16.169   2.981   5.478  0.1693 -0.3689 -0.3003
32545ION     NA49019  10.231   7.427  11.109 -0.1159  0.0177  0.2071
32546ION     NA49020  15.416   1.311  13.609  0.1752 -0.2695  0.2774
32547ION     NA49021   4.671   2.086   5.036 -0.0886  0.1338 -0.1472
32548ION     NA49022  13.689   3.646   9.851  0.0424  0.0383  0.2014
32549ION     NA49023  18.357  13.641   5.591 -0.0870  0.2694 -0.1466
32550ION     NA49024  14.279   5.484   9.494  0.1954 -0.1226 -0.0567
32551ION     NA49025  13.472  13.668   4.213 -0.0439 -0.2086  0.2027
32552ION     NA49026  15.847  12.041   5.074  0.1145 -0.0019  0.3369
32553ION     NA49027  16.638  14.008  10.527  0.1290 -0.1990  0.0436
32554ION     NA49028  12.321   0.605   5.303  0.1461  0.0381 -0.0134
32555ION     NA49029   6.915   2.013   0.985 -0.1267 -0.0023 -0.0278
32556ION     NA49030  17.636  12.865   1.159 -0.0542 -0.0903 -0.3128
32557ION     NA49031   9.985  15.504   4.219 -0.2250  0.2043 -0.0492
32558ION     NA49032  17.784   3.091   0.521  0.1150 -0.0299 -0.2117
32559ION     NA49033  14.474  14.823   3.471  0.1376 -0.0336 -0.1135
32560ION     NA49034  14.806   6.535   9.726 -0.3020 -0.1929  0.1399
32561ION     NA49035   6.077   1.467   8.964  0.0830  0.0810  0.0947
32562ION     NA49036   5.766  14.217  13.821 -0.0330 -0.1155  0.0545
32563ION     NA49037   3.305  18.938   3.590 -0.1878  0.0815 -0.2260
32564ION     NA49038   6.046  13.687   9.840  0.0624 -0.2945 -0.3573
32565ION     NA49039   9.172   4.954   8.881 -0.0139 -0.1757 -0.3480
32566ION     NA49040  12.729   8.508   9.388 -0.1242 -0.0333  0.1310
32567ION     NA49041  11.833  16.902  14.703  0.2142  0.0082 -0.0272
32568ION     NA49042  11.878  15.660   2.866 -0.0829 -0.0830  0.2916
32569ION     NA49043   9.196   5.469   2.361  0.1926 -0.2193  0.1089
32570ION     NA49044  10.972  15.954   2.169  0.0872 -0.0244  0.1196
32571ION     NA49045   9.647  19.334   1.959  0.0912  0.3382  0.0341
32572ION     NA49046  11.584  14.558  11.050 -0.0763 -0.2461  0.3853
32573ION     NA49047  16.380  18.669  11.740  0.0741  0.0610 -0.2032
32574ION     NA49048   3.820   6.593   3.728 -0.1296 -0.1267 -0.0626
32575ION     NA49049   7.108   5.576   2.829  0.0358 -0.4723  0.1029
32576ION     NA49050   4.150   6.930  10.004  0.2278 -0.2365 -0.1231
32577ION     NA49051  19.015  15.793   9.580 -0.0845  0.3090  0.1221
32578ION     NA49052  11.934   8.810   9.525  0.3275  0.0424  0.2027
32579ION     NA49053  11.114   5.176   5.152 -0.2714 -0.1235 -0.0335
32580ION     NA49054   0.571  15.894   9.432 -0.1385  0.1090  0.2248
32581ION     NA49055   0.508   0.479   0.977 -0.3251 -0.1396 -0.0263
32582ION     NA49056   4.373  14.194  14.810  0.2290 -0.1262  0.3091
32583ION     NA49057   6.481  11.738   5.433 -0.2084  0.0988 -0.0012
32584ION     NA49058  18.125  11.206  13.510  0.1612 -0.0636 -0.2600
32585ION     NA49059   5.623   5.314   9.246  0.3210  0.0421 -0.0943
32586ION     NA49060   4.017   9.104   1.824 -0.0095  0.0119  0.1819
32587ION     NA49061  14.519   4.857   1.417 -0.0984  0.0847  0.1357
32588ION     NA49062   1.001   6.321   9.892  0.0632 -0.2768 -0.0519
32589ION     NA49063  12.988   2.339   5.632 -0.2005  0.3078  0.0861
32590ION     NA49064   0.152   3.551  11.348 -0.4124 -0.1591  0.3182
32591ION     NA49065   1.547  10.798  13.931 -0.2693 -0.1489  0.1943
32592ION     NA49066   2.371  14.477   2.241  0.1248 -0.1011 -0.0736
32593ION     NA49067   8.223   8.128   0.203 -0.2655 -0.0045 -0.1492
32594ION     NA49068   0.311   5.540   1.970 -0.0414  0.1082  0.1264
32595ION     NA49069   3.834  16.969   2.615 -0.0091 -0.3891  0.2489
32596ION     NA49070   6.429   3.712  13.102 -0.1551 -0.1104 -0.0702
32597ION     NA49071  10.399  17.716   9.891  0.0571 -0.0332  0.1263
32598ION     NA49072  16.451   4.860   4.530  0.1270 -0.2736  0.0905
32599ION     NA49073   9.010  12.702  13.694  0.2861 -0.0621 -0.1748
32600ION     NA49074  11.908   7.753  10.947  0.0424  0.0367  0.2591
32601ION     NA49075  16.575  13.412   5.056  0.1000 -0.0396 -0.0418
32602ION     NA49076  14.283   1.087  11.779 -0.3770 -0.0860  0.1278
32603ION     NA49077  17.086   3.749   4.394  0.2473  0.1655  0.0102
32604ION     NA49078   1.961   3.532   5.312  0.3284  0.0373  0.0164
32605ION     NA49079  17.095   3.513   2.481 -0.1115  0.1134  0.0621
32606ION     NA49080  12.172  17.820   5.445  0.0941 -0.1009  0.1068
32607ION     NA49081   9.825   2.089  11.301 -0.0261  0.0449 -0.0950
32608ION     NA49082   5.600   1.833   4.677 -0.1790 -0.1008 -0.0579
32609ION     NA49083   0.880   8.046   5.650 -0.3394  0.2638 -0.1846
32610ION     NA49084  19.005  18.292   1.013 -0.0489  0.3416  0.1753
32611ION     NA49085   0.852  19.026   9.470 -0.0235  0.0694 -0.2535
32612ION     NA49086  18.950  11.279   9.818 -0.0788  0.0059  0.0685
32613ION     NA49087  17.184   9.747   0.203  0.0030  0.1802 -0.0395
32614ION     NA49088   0.091   1.631   4.895 -0.0920 -0.0534  0.0318
32615ION     NA49089   3.391  11.470   5.387 -0.0603 -0.1788  0.0835
32616ION     NA49090  11.810  17.355  10.332  0.0274  0.0129 -0.3680
32617ION     NA49091  17.324   7.104   1.562 -0.1252 -0.0461  0.0706
32618ION     NA49092  15.424  12.690   5.202  0.0143 -0.1095  0.2303
32619ION     NA49093  11.283  16.099   5.679  0.2400  0.2169  0.1710
32620ION     NA49094   1.039  12.994  10.071  0.2528 -0.0974 -0.0240
32621ION     NA49095  14.299   5.136   4.295  0.3028  0.2300 -0.0267
32622ION     NA49096   2.963  17.694   5.172 -0.2224 -0.1297  0.0056
32623ION     NA49097  12.565  15.935  14.529 -0.1308 -0.0260 -0.1709
32624ION     NA49098  12.564  18.035   0.315  0.1652  0.2706  0.0845
32625ION     NA49099   5.615   7.272   1.876  0.1649  0.0523  0.0705
32626ION     NA49100  10.997  12.555   5.374  0.0958  0.4058 -0.1717
32627ION     NA49101  13.787   9.193   0.017  0.1375 -0.1203  0.0361
32628ION     NA49102  18.872   1.128   9.615 -0.1836 -0.1394 -0.1511
32629ION     NA49103  13.329   1.271  12.044 -0.0076  0.1891  0.1757
32630ION     NA49104   9.104  18.146  13.137 -0.0077 -0.0642 -0.3365
32631ION     NA49105   8.295   9.785   0.153  0.0798  0.4772 -0.1649
32632ION     NA49106  17.314  11.627   1.925  0.4436 -0.2541  0.0483
32633ION     NA49107   7.829  14.505   5.646 -0.0347  0.2001  0.0442
32634ION     NA49108   7.205  12.670  13.640  0.3681  0.1242 -0.1616
32635ION     NA49109   6.871   1.005   3.193  0.0897 -0.1742 -0.0819
32636ION     NA49110   7.557  15.726   0.391 -0.0610  0.0841  0.0687
32637ION     NA49111  16.174   8.576  14.381 -0.0483 -0.1214 -0.0754
32638ION     NA49112  13.152   9.861   2.953  0.1096 -0.0806 -0.0469
32639ION     NA49113   9.530   1.693   8.974  0.2351 -0.0513  0.0703
32640ION     NA49114   9.270   5.025  14.189  0.1189  0.0446 -0.0572
32641ION     NA49115  15.197  15.261   2.177 -0.1991  0.0208 -0.4924
32642ION     NA49116  13.906   0.071   5.694 -0.0395 -0.2387  0.1306
32643ION     NA49117  12.547   0.970  12.417  0.2706 -0.2713  0.1061
32644ION     NA49118  15.128   8.751   2.180  0.1653 -0.1743 -0.1607
32645ION     NA49119   9.134   1.450   0.258 -0.0870  0.0328  0.1035
32646ION     NA49120  11.295  14.596   1.989 -0.0132 -0.2685 -0.0120
32647ION     NA49121   1.439  16.457   4.144 -0.0301  0.1309  0.0380
32648ION     NA49122  14.778   7.890   9.829  0.0676 -0.1053 -0.2331
32649ION     NA49123   6.747  12.426   9.961  0.3760  0.2210  0.1676
32650ION     NA49124   0.722   8.868   9.709  0.1155  0.0755  0.2482
32651ION     NA49125  16.201   8.394   9.674  0.0814  0.2020  0.1031
32652ION     NA49126  16.533   9.474   3.338  0.1132  0.1925 -0.2287
32653ION     NA49127   6.954  14.637  10.188  0.0488  0.1719  0.3007
32654ION     NA49128   6.193  15.018   5.632  0.1186 -0.0628  0.0279
32655ION     NA49129  18.745   9.524   1.634 -0.1981 -0.0515  0.0832
32656ION     NA49130   2.764   0.549  12.446  0.0467 -0.1036  0.1550
32657ION     NA49131   8.336   4.708   8.706  0.1001 -0.0483  0.0707
32658ION     NA49132   8.146  17.405   5.207 -0.2026 -0.2821 -0.2537
32659ION     NA49133   4.544   1.553   9.115 -0.1727 -0.1238  0.1607
32660ION     NA49134   3.407   1.209   9.631  0.0061 -0.0852 -0.2143
32661ION     NA49135   0.118   1.330  13.146  0.0196 -0.3908  0.1559
32662ION     NA49136  14.472  16.366   9.819 -0.1015  0.3629  0.1670
32663ION     NA49137  11.447   9.768   1.380  0.3207  0.2242 -0.0863
32664ION     NA49138  18.780   6.328   1.187  0.0970  0.2966  0.2466
32665ION     NA49139  13.865  10.185   5.456  0.0490 -0.1051  0.1514
32666ION     NA49140  15.520  13.486   9.591 -0.0922  0.0524  0.3333
32667ION     NA49141  15.932  11.316   5.285  0.3392 -0.0526 -0.1146
32668ION     NA49142   1.864   3.730  13.814  0.0805  0.0450  0.0109
32669ION     NA49143  17.275  16.536   1.385  0.0129  0.3254 -0.2290
32670ION     NA49144   1.459  13.752  10.122 -0.2232  0.0433 -0.0676
32671ION     NA49145  16.372   6.524  14.701 -0.0886  0.1159 -0.0671
32672ION     NA49146   3.775   8.404  13.523  0.1257 -0.2738  0.0297
32673ION     NA49147   6.220   9.906   9.584 -0.4117 -0.1835 -0.1434
32674ION     NA49148   8.864   0.846   5.013  0.1076  0.2844  0.1014
32675ION     NA49149  14.712   1.043  10.404  0.1808  0.0631  0.3432
32676ION     NA49150  15.230   6.993   3.600  0.1357 -0.2147 -0.0376
32677ION     NA49151   8.718  15.588   1.199 -0.0049 -0.1785  0.4927
32678ION     NA49152   5.268   9.461   4.575 -0.0392  0.2825  0.0906
32679ION     NA49153  10.024   9.435   4.949  0.2354 -0.0025  0.2180
32680ION     NA49154  17.768   4.860  14.466 -0.0131 -0.0672 -0.0376
32681ION     NA49155  19.132   5.887  12.327  0.3435  0.0545 -0.2241
32682ION     NA49156   1.799  14.620  10.290  0.0299  0.0363  0.1193
32683ION     NA49157   3.144   8.849   9.560 -0.4683 -0.2077  0.2232
32684ION     NA49158   4.779   5.594   1.713 -0.0817  0.1149  0.0966
32685ION     NA49159  14.692  18.843   5.586 -0.1453  0.2035  0.0409
32686ION     NA49160  17.696   7.682   4.304 -0.1370  0.2023 -0.3080
32687ION     NA49161   5.500  14.444  12.032  0.1870 -0.1198 -0.1464
32688ION     NA49162  16.855   2.261  13.600 -0.2240  0.0312  0.2466
32689ION     NA49163  10.510  13.589   9.802 -0.1073 -0.0680  0.1794
32690ION     NA49164  10.802  12.880   3.173  0.0409 -0.1197 -0.2570
32691ION     NA49165  12.951   6.251   4.975 -0.1488 -0.0837 -0.0841
32692ION     NA49166  18.280   7.698   1.335 -0.0060  0.3842 -0.0752
32693ION     NA49167   0.936   1.157  13.468 -0.0508  0.0284  0.1591
32694ION     NA49168   5.864  17.502   5.048 -0.3455 -0.0191  0.0572
32695ION     NA49169   4.546  10.748   9.692  0.0077 -0.0548  0.0165
32696ION     NA49170   7.496   5.088   8.806  0.1582  0.0782 -0.3166
32697ION     NA49171  12.384  15.566   9.593 -0.0272  0.1249 -0.1691
32698ION     NA49172  17.136   8.465   9.673 -0.3084 -0.1642 -0.0625
32699ION     NA49173  15.777   7.070   2.743  0.2807 -0.1190  0.0297
32700ION     NA49174   9.224  13.883   0.719 -0.2253  0.1878  0.2965
32701ION     NA49175   8.554  18.964   1.100 -0.0150  0.2635 -0.4408
32702ION     NA49176  11.918  15.838  12.571 -0.2014  0.1580 -0.6507
32703ION     NA49177   3.161   3.218   2.645 -0.1208  0.0637 -0.0536
32704ION     NA49178  12.478   9.890   9.509 -0.1552  0.0417 -0.0703
32705ION     NA49179  10.570   2.377   9.310  0.1670 -0.1209  0.0434
32706ION     NA49180   2.208  16.196   9.729 -0.1200 -0.2169 -0.1308
32707ION     NA49181   9.776  13.277   0.831 -0.3889 -0.1737 -0.0700
32708ION     NA49182   3.140   0.881   5.036  0.1164  0.0112  0.2579
32709ION     NA49183   7.216  14.839   3.144 -0.0402  0.0096 -0.1876
32710ION     NA49184  11.896   8.244   2.365 -0.0419  0.0325 -0.1691
32711ION     NA49185  18.642  10.416  10.074 -0.3504  0.0997 -0.1968
32712ION     NA49186  18.570  15.439   3.232 -0.0596 -0.1164 -0.0201
32713ION     NA49187   8.445  14.999   9.521 -0.1558  0.3525  0.1640
32714ION     NA49188  10.426   3.771   4.130 -0.3121 -0.0558 -0.0931
32715ION     NA49189  17.962   5.173   9.600 -0.3656 -0.0473 -0.0048
32716ION     NA49190  13.221   5.071   5.329 -0.0868 -0.2248  0.1964
32717ION     NA49191   8.028  18.207  13.307 -0.1140 -0.1422  0.0156
32718ION     NA49192   2.622   8.370   0.201 -0.0990  0.1058 -0.1927
32719ION     NA49193   4.131   4.955   2.233  0.0979 -0.3653 -0.1102
32720ION     NA49194  15.012  10.339   0.976 -0.0297  0.2874 -0.2067
32721ION     NA49195   9.337   7.041   9.310 -0.1482  0.0004 -0.0079
32722ION     NA49196   3.806  12.360   5.185 -0.1255 -0.0216  0.1707
32723ION     NA49197  11.937   6.391   0.091  0.0552 -0.0572 -0.0868
32724ION     NA49198  16.554   0.687   5.383 -0.0552 -0.1837  0.2097
32725ION     NA49199   0.005  13.957   5.656  0.2103  0.2680 -0.0595
32726ION     NA49200   4.006   3.066   1.774 -0.2801 -0.0220  0.0626
32727ION     NA49201   5.856  13.218   5.787 -0.1373 -0.4581  0.0141
32728ION     NA49202  10.277   7.520   9.579 -0.0291  0.0012 -0.1294
32729ION     NA49203   5.817  15.975  11.812 -0.2293 -0.2313 -0.2545
32730ION     NA49204   9.208   8.043   9.250 -0.0866 -0.1005  0.2821
32731ION     NA49205   6.710   6.757  14.690  0.2014 -0.0316 -0.2062
32732ION     NA49206   5.496   3.219   9.226 -0.0629  0.0720  0.1437
32733ION     NA49207   9.509   7.776   4.006  0.4071  0.0967 -0.1250
32734ION     NA49208  12.557  18.089  13.865  0.0323 -0.2411  0.1244
32735ION     NA49209   6.423   3.836  10.036 -0.1356 -0.3288  0.1250
32736ION     NA49210   6.010   2.754   4.359 -0.0254  0.0920  0.0162
32737ION     NA49211  18.556  17.041   5.368 -0.1502  0.2471  0.0176
32738ION     NA49212   8.864   1.686   2.753  0.0978  0.0209 -0.0540
32739ION     NA49213  11.332  18.773   9.945  0.2046 -0.1572 -0.1013
32740ION     NA49214   3.928  11.253   1.596 -0.1068 -0.1387  0.1517
32741ION     NA49215   6.668  14.276   0.494  0.0452 -0.4623  0.1034
32742ION     NA49216   3.998  15.299   3.422 -0.1615  0.0639  0.1293
32743ION     NA49217   1.551   5.895  13.409 -0.2121 -0.1330 -0.1732
32744ION     NA49218  10.191  16.515   1.647 -0.2501  0.1508  0.1409
32745ION     NA49219  11.774  13.183   5.384  0.0255  0.0385 -0.1362
32746ION     NA49220   4.470  11.232   2.740  0.0901 -0.2067 -0.0348
32747ION     NA49221  16.790   7.642   9.739  0.1541  0.2311 -0.2762
32748ION     NA49222   2.184   3.150   0.265 -0.1473  0.1607  0.1601
32749ION     NA49223  12.005   6.087  14.015 -0.3641  0.1653  0.1637
32750ION     NA49224  16.900   3.844  12.978  0.1349  0.0097  0.1584
32751ION     NA49225   9.297  10.044   4.856 -0.2447 -0.0581  0.0482
32752ION     NA49226  13.181  16.919   3.811  0.1312  0.4001  0.0675
32753ION     NA49227   0.766   7.905  13.783  0.4054  0.0698 -0.0923
32754ION     NA49228   3.458  12.325  14.449 -0.1385 -0.3386 -0.0200
32755ION     NA49229  12.637  12.480   4.605  0.1106  0.1930 -0.3144
32756ION     NA49230  10.904   5.826   9.661 -0.2962 -0.0461  0.3364
32757ION     NA49231  11.986  15.695   5.472  0.3208 -0.0976 -0.1331
32758ION     NA49232  14.700  13.517   3.139  0.0142  0.4162  0.0135
32759ION     NA49233   0.655  16.485  10.576  0.1171  0.1157 -0.1482
32760ION     NA49234  16.133   9.135   5.488  0.4978  0.0109 -0.0342
32761ION     NA49235  16.159  16.851  10.967  0.0436 -0.0125  0.1357
32762ION     NA49236   1.004   8.973  14.860  0.1968 -0.1218  0.0991
32763ION     NA49237  13.719  11.016   5.506  0.1184 -0.2378 -0.1324
32764ION     NA49238   5.875  14.225   1.864 -0.0022  0.2556  0.1975
32765ION     NA49239  17.745  12.609  13.978  0.0840  0.0778  0.0832
32766ION     NA49240   2.201  16.199   2.398 -0.3132 -0.2056  0.2704
32767ION     NA49241  15.903  10.086   0.998  0.2263  0.0224 -0.1897
32768ION     NA49242  12.442   8.554   1.939  0.0593 -0.1345  0.0340
32769ION     NA49243   8.253   1.534   4.451 -0.0460 -0.2618 -0.0226
32770ION     NA49244   5.191  17.750   5.274  0.0404 -0.0550 -0.3181
32771ION     NA49245   4.538  18.943   9.355  0.2068  0.3345 -0.0949
32772ION     NA49246  14.684   9.661   9.831 -0.1940 -0.0392  0.4030
32773ION     NA49247  16.155   0.950   9.511  0.1352  0.1147 -0.0718
32774ION     NA49248  12.378  16.683   0.434  0.0953 -0.1824  0.0403
32775ION     NA49249  10.338  19.062   0.334  0.1077  0.0556  0.0423
32776ION     NA49250   0.995   5.005   9.662  0.0027 -0.0813  0.0490
32777ION     NA49251   6.001  15.276   4.610 -0.3865  0.2435 -0.2311
32778ION     NA49252  13.060  13.675   1.125 -0.1142  0.3080  0.2406
32779ION     NA49253  14.104  17.573   3.338  0.2050 -0.1253  0.1226
32780ION     NA49254  14.929  17.933   5.528 -0.1524 -0.0052  0.4266
32781ION     NA49255  13.305  17.040  12.580  0.4435 -0.2230 -0.1231
32782ION     NA49256   7.337   2.507   9.397 -0.1212  0.0953  0.1484
32783ION     NA49257  18.693  16.525   1.046  0.3546  0.2211 -0.1700
32784ION     NA49258   2.167   0.178   4.695  0.2766 -0.4192 -0.0925
32785ION     NA49259  13.401   8.719   0.232 -0.3048 -0.0098  0.1190
32786ION     NA49260  14.284  11.111   9.551  0.4944  0.2389  0.1097
32787ION     NA49261  18.602  18.339   9.968  0.2397 -0.1233  0.0349
32788ION     NA49262  17.298  18.948   9.842  0.3169  0.0074 -0.3130
32789ION     NA49263  10.085  10.937   9.363  0.1107 -0.3695  0.2617
32790ION     NA49264   8.030   7.553   8.878  0.1875  0.0911  0.1349
32791ION     NA49265   2.067   6.300   9.857  0.1311 -0.2482  0.2086
32792ION     NA49266  13.613   7.858   1.807 -0.2774 -0.1479 -0.2059
32793ION     NA49267   3.888   6.329   9.438  0.3267  0.3710  0.0853
32794ION     NA49268   0.778  18.974  14.141  0.2850  0.0585  0.0679
32795ION     NA49269   3.342  14.546   9.882  0.1836 -0.0083  0.1471
32796ION     NA49270   3.153   0.770  11.299  0.0518 -0.0366  0.1737
32797ION     NA49271  12.513   6.399   5.270 -0.2194 -0.1278  0.1368
32798ION     NA49272  17.471  12.170   4.753  0.2529 -0.0544 -0.0478
32799ION     NA49273   3.281  17.539  10.526  0.1711 -0.1843 -0.0999
32800ION     NA49274  13.992   9.301   5.539 -0.1026  0.2827  0.2196
32801ION     NA49275   8.952   0.447  14.153  0.0875  0.0006  0.3743
32802ION     NA49276   3.709  19.191   3.184  0.1458 -0.1900  0.1334
32803ION     NA49277  14.264   0.802   3.893  0.0557 -0.1257  0.2730
32804ION     NA49278   6.025  11.900   9.987 -0.0330  0.1171 -0.1815
32805ION     NA49279  11.906   3.638   9.794  0.1780 -0.0742 -0.2394
32806ION     NA49280  10.570   3.169  12.556 -0.1717 -0.0111 -0.0504
32807ION     NA49281  18.508   1.959  11.664  0.2359 -0.0687  0.3382
32808ION     NA49282   8.829   4.158   1.589  0.0540  0.0818  0.0307
32809ION     NA49283  12.440   4.845   5.714 -0.0871  0.1417  0.0232
32810ION     NA49284  16.122  16.658   5.647  0.0941  0.1581  0.0360
32811ION     NA49285   8.940   4.062   4.525  0.0642  0.1028 -0.0571
32812ION     NA49286   5.038   7.212   2.657  0.3903 -0.0267  0.0540
32813ION     NA49287  12.225  10.890  13.576  0.1698 -0.1440  0.1867
32814ION     NA49288  19.279  16.429   9.602 -0.0696  0.0346  0.0583
32815ION     NA49289   7.599  14.139   9.761  0.0201  0.2059 -0.0601
32816ION     NA49290   7.579   3.304   4.386 -0.2838 -0.3451  0.1948
32817ION     NA49291  10.664   0.044   9.569  0.1254  0.2779  0.0021
32818ION     NA49292  11.659  12.173   9.797 -0.3948 -0.0006  0.0671
32819ION     NA49293  12.552  16.386  10.069 -0.0839 -0.0031 -0.0828
32820ION     NA49294   5.444   2.954   3.475 -0.0278 -0.0037  0.1323
32821ION     NA49295  13.792  15.702   9.970  0.0216  0.0904  0.2335
32822ION     NA49296   2.364   7.503   2.866  0.2474  0.0539 -0.1272
32823ION     NA49297  11.765   8.680   0.659 -0.0957 -0.2767  0.3134
32824ION     NA49298   9.990   1.153   4.669 -0.4061 -0.1880  0.3098
32825ION     NA49299  13.551  11.696   4.191  0.0811  0.1627 -0.3760
32826ION     NA49300  18.144  14.585   5.307 -0.3553 -0.5233  0.2160
32827ION     NA49301   5.303   0.051   9.170 -0.4722 -0.1481  0.1340
32828ION     NA49302   5.178   3.386  11.773 -0.1137  0.0578 -0.2162
32829ION     NA49303  19.048  15.581  10.122 -0.0404 -0.3117  0.0651
32830ION     NA49304   0.188   1.965   5.348 -0.0873 -0.1292 -0.2480
32831ION     NA49305   1.215  11.975   9.768 -0.0392  0.3092  0.1412
32832ION     NA49306  13.650  16.205   3.140 -0.2855  0.0632 -0.0177
32833ION     NA49307   4.214  11.552  10.109 -0.2870 -0.1441 -0.5206
32834ION     NA49308  14.639   2.890   0.878  0.2822 -0.2133 -0.3051
32835ION     NA49309  10.890   3.133   9.243 -0.2799  0.6006  0.0512
32836ION     NA49310   3.871   4.981   9.398  0.0261  0.0976 -0.0058
32837ION     NA49311   4.105   0.726  13.766 -0.0991  0.2765 -0.1424
32838ION     NA49312  17.522   0.355   5.481  0.0557  0.2053  0.1861
32839ION     NA49313  15.215   1.254   5.590  0.0000  0.1950  0.3055
32840ION     NA49314   8.607  17.965   9.826 -0.1554  0.0732  0.0700
32841ION     NA49315   2.819  19.077   9.670  0.1348 -0.2441 -0.0652
32842ION     NA49316   3.779  12.725   9.795 -0.2181  0.0024  0.2299
32843ION     NA49317  15.183   9.261   4.629  0.0771  0.3728 -0.0128
32844ION     NA49318   0.750   3.028   9.607  0.2465  0.2619  0.1109
32845ION     NA49319  18.188   4.020   0.659  0.3583  0.2216  0.0287
32846ION     NA49320   8.137  14.764   3.366 -0.0862  0.1664  0.1760
32847ION     NA49321   1.134   3.944   5.236 -0.0355 -0.1022 -0.1977
32848ION     NA49322  13.394  10.824   9.553 -0.0795  0.1862 -0.1671
32849ION     NA49323  14.967  10.689   9.662 -0.3322  0.1624  0.1939
32850ION     NA49324  10.674   9.638   5.098 -0.0606 -0.2001  0.0661
32851ION     NA49325  18.995  12.539  10.357 -0.2748 -0.0766 -0.0140
32852ION     NA49326   0.602   4.691   2.259 -0.1033 -0.0266 -0.4765
32853ION     NA49327   6.030   7.043  12.948 -0.0381 -0.1555 -0.3872
32854ION     NA49328  14.112  10.309   9.682 -0.2996  0.1643 -0.3186
32855ION     NA49329  13.431   5.099   9.793  0.2303 -0.0556 -0.2221
32856ION     NA49330  18.941   4.156  11.207  0.2592  0.0051  0.0458
32857ION     NA49331   1.012   1.862   2.805  0.1380  0.2232 -0.0941
32858ION     NA49332   7.397   5.023   4.374 -0.2226  0.0232  0.1174
32859ION     NA49333   5.111   0.904   9.102 -0.3721  0.0185  0.3899
32860ION     NA49334  13.681   6.982  14.135 -0.0222  0.3943 -0.2114
32861ION     NA49335   6.326   4.684   4.467  0.0651 -0.0972 -0.1040
32862ION     NA49336  17.833   6.017   0.319  0.4872 -0.2900  0.0276
32863ION     NA49337  17.151   9.843   9.611  0.2338 -0.0750  0.1160
32864ION     NA49338   0.976   1.680   5.087  0.0121  0.1303 -0.1068
32865ION     NA49339  11.936  17.682   4.465 -0.1306  0.0569  0.0486
32866ION     NA49340  10.689   4.654  13.870 -0.1556  0.0366  0.0512
32867ION     NA49341  18.653   8.109   5.686  0.1192 -0.1089 -0.0723
32868ION     NA49342   5.115  12.596  10.332  0.2109 -0.3033 -0.3348
32869ION     NA49343  14.091   1.203   9.506 -0.1804  0.0283 -0.1102
32870ION     NA49344   1.883   7.370   0.176 -0.0349 -0.1449  0.2596
32871ION     NA49345  11.328  18.000   9.817 -0.1046 -0.2531  0.2879
32872ION     NA49346  16.380  11.454   9.685  0.3999  0.0956 -0.1453
32873ION     NA49347  16.537  16.283   9.981  0.1039 -0.0294 -0.0250
32874ION     NA49348   7.030   6.039   8.942 -0.1800  0.0738 -0.0148
32875ION     NA49349   6.106   3.802   4.447 -0.0546  0.1249 -0.0543
32876ION     NA49350   7.579   8.495   5.008 -0.0750 -0.2089  0.2732
32877ION     NA49351   6.768  13.826   1.812  0.1285  0.2107  0.1971
32878ION     NA49352   0.451   5.474   5.283 -0.1563 -0.2393 -0.0145
32879ION     NA49353  13.963   2.763   9.802  0.2654  0.0171  0.1209
32880ION     NA49354   3.863   4.460   5.242 -0.2188 -0.2428  0.3847
32881ION     NA49355   3.051  10.713   1.304 -0.0954 -0.0386 -0.1420
32882ION     NA49356   5.230   2.269   9.076  0.4089 -0.2965 -0.1864
32883ION     NA49357   2.916  11.864   4.788  0.1051 -0.1065  0.2588
32884ION     NA49358  11.201   1.036   9.588  0.0280  0.2025  0.0489
32885ION     NA49359  15.558   4.904   9.654  0.1984  0.3188 -0.3807
32886ION     NA49360  16.553  17.864   3.629  0.0846  0.0835  0.0151
32887ION     NA49361   3.238  15.843   9.690  0.2709 -0.1428  0.1585
32888ION     NA49362  12.370   7.322   5.073 -0.0901  0.0708 -0.2477
32889ION     NA49363  13.262   2.678   1.403  0.0889 -0.1374 -0.2046
32890ION     NA49364   3.119  11.180  12.034  0.1641  0.0687 -0.4643
32891ION     NA49365   3.224   4.230   9.846  0.2737 -0.1782  0.0438
32892ION     NA49366  14.425   4.846   3.709  0.0495 -0.0056 -0.2607
32893ION     NA49367  18.023   4.352   9.911  0.0675  0.3133 -0.0542
32894ION     NA49368  16.604  17.946   5.291 -0.3058 -0.0030 -0.3239
32895ION     NA49369  17.040  13.261   2.984 -0.1753 -0.0032  0.0861
32896ION     NA49370  13.831   3.590  14.196  0.1085  0.1754 -0.2604
32897ION     NA49371   9.850  12.312   9.418  0.1426  0.0278 -0.0494
32898ION     NA49372   7.195  16.998   0.944  0.1632 -0.1199 -0.0400
32899ION     NA49373   8.236   6.593   4.774  0.0164 -0.1041  0.0400
32900ION     NA49374  13.477  18.003   1.948 -0.0087  0.2738  0.0051
32901ION     NA49375  12.422   1.365  14.487  0.0202  0.0574  0.0025
32902ION     NA49376  14.274   4.722   9.747 -0.1900  0.1535  0.0813
32903ION     NA49377  13.549  18.516  10.286 -0.3138  0.2978 -0.1604
32904ION     NA49378  17.188   4.802   9.625  0.1557  0.0006 -0.0226
32905ION     NA49379  18.300  19.040  13.247 -0.1036  0.2461  0.1557
32906ION     NA49380   4.985  14.445   5.511 -0.1357  0.0972 -0.0006
32907ION     NA49381   9.924  16.154  13.134  0.3875  0.3419 -0.1183
32908ION     NA49382   1.350   1.224   4.593 -0.1209 -0.1689 -0.0840
32909ION     NA49383   7.166  10.012   1.269 -0.1332 -0.0892  0.1692
32910ION     NA49384   4.212  18.742  11.393  0.0512  0.0344 -0.0103
32911ION     NA49385   8.581  17.100   2.472 -0.0711 -0.1415 -0.1124
32912ION     NA49386  14.762   7.004  14.757 -0.4510  0.3216 -0.2146
32913ION     NA49387  18.169  13.592  13.882  0.1329 -0.2977  0.1592
32914ION     NA49388   3.142  10.396   2.833 -0.2467 -0.0106 -0.0314
32915ION     NA49389  17.945  17.495   4.299  0.1948  0.2905  0.1743
32916ION     NA49390  15.241  16.548   3.899 -0.0656 -0.0535 -0.2648
32917ION     NA49391  18.550  11.398   5.456 -0.3623 -0.1626  0.1620
32918ION     NA49392  17.349   6.518  12.897 -0.2678  0.2407  0.4035
32919ION     NA49393  12.260   1.219   1.816 -0.2850  0.0948  0.1760
32920ION     NA49394  14.800  10.124  12.199  0.2805  0.0169  0.2489
32921ION     NA49395   5.930  16.534   5.370  0.4388  0.1106 -0.1564
32922ION     NA49396  13.430  11.911  14.353 -0.3909  0.2149 -0.3238
32923ION     NA49397  14.213  13.369   5.273 -0.0640  0.3827  0.2216
32924ION     NA49398  12.608   4.476  10.432  0.4452  0.2559 -0.2609
32925ION     NA49399   0.266   2.860   5.570 -0.0338 -0.0228 -0.0797
32926ION     NA49400   2.361  10.201   4.950 -0.0300  0.2325 -0.0655
32927ION     NA49401  15.704  17.995   0.664  0.3775  0.0145 -0.2463
32928ION     NA49402   3.479   7.243   9.324 -0.0385  0.1459 -0.1762
32929ION     NA49403  12.718  12.217   9.767 -0.0213  0.0006 -0.0014
32930ION     NA49404  19.049   5.797   4.177  0.0005 -0.1508  0.2391
32931ION     NA49405   5.971   4.704   1.392  0.0039 -0.0624  0.1252
32932ION     NA49406  10.994  18.325   5.045  0.1495 -0.0258 -0.3438
32933ION     NA49407  11.713   0.395   3.754  0.2846 -0.0174 -0.3248
32934ION     NA49408  16.377  15.550  10.074  0.1563 -0.0513  0.1846
32935ION     NA49409   8.980   0.103   4.899  0.1563  0.1243 -0.0564
32936ION     NA49410  12.136  11.150   5.335 -0.1022 -0.0624 -0.2530
32937ION     NA49411   7.955   0.966   0.059  0.2516  0.1114  0.1455
32938ION     NA49412   9.521   8.723  14.670 -0.0733  0.2488  0.2778
32939ION     NA49413  14.502  14.376   5.201 -0.0896 -0.0138  0.0618
32940ION     NA49414   8.496   5.994   9.228  0.0718  0.1580  0.0261
32941ION     NA49415  10.420  19.199  12.495 -0.0386 -0.1283  0.0231
32942ION     NA49416  17.004  12.912  10.037 -0.1830  0.1591 -0.1949
32943ION     NA49417  17.231   3.953  12.086 -0.1349 -0.0180 -0.2497
32944ION     NA49418  19.369   4.333   9.678  0.1050  0.1452  0.1311
32945ION     NA49419   4.725   3.201  13.210 -0.2719  0.4710  0.1526
32946ION     NA49420   1.007  15.907   5.351 -0.1336 -0.2056  0.1317
32947ION     NA49421  12.425  16.305   5.257 -0.1281  0.0996 -0.1000
32948ION     NA49422  17.274  16.288   4.319 -0.3017  0.1986 -0.4255
32949ION     NA49423   6.629   4.988   0.771  0.1671 -0.1232  0.0695
32950ION     NA49424  18.480  15.636   5.601  0.0806 -0.0180 -0.0248
32951ION     NA49425  17.255  19.287   1.385 -0.0024 -0.4711 -0.2074
32952ION     NA49426  15.152  14.320   9.767 -0.1073  0.2720 -0.0294
32953ION     NA49427  11.296  13.433  13.149 -0.1755  0.0251 -0.2529
32954ION     NA49428  13.486  13.054   9.810  0.0749 -0.1879 -0.0747
32955ION     NA49429   1.253  11.206   3.607 -0.0411 -0.0693 -0.2087
32956ION     NA49430   7.786  11.369  11.911 -0.1976  0.4177 -0.1556
32957ION     NA49431  16.080  16.936   9.975  0.2522 -0.3496  0.2225
32958ION     NA49432  18.504  16.987   9.933 -0.0400 -0.4230 -0.0615
32959ION     NA49433  15.178  14.848  14.885 -0.1815  0.0580 -0.1149
32960ION     NA49434   3.143   3.150   9.653  0.0050  0.1289  0.1535
32961ION     NA49435  18.045   5.476   1.527  0.0916 -0.0443  0.2226
32962ION     NA49436   0.076   3.696   3.145 -0.0927 -0.4043 -0.0383
32963ION     NA49437  10.117   5.372   4.208 -0.1135  0.1497 -0.1597
32964ION     NA49438   1.460   4.107   9.621 -0.3005  0.1358  0.2156
32965ION     NA49439  18.340   2.056   1.463  0.0491  0.0835 -0.3970
32966ION     NA49440   4.845   7.180   9.525  0.0107 -0.2349  0.4573
32967ION     NA49441  11.281   3.759   4.246 -0.3662 -0.4932  0.3086
32968ION     NA49442  13.740  18.316   5.507 -0.0846  0.1123 -0.1748
32969ION     NA49443  16.742   2.740  14.649  0.3041 -0.1791  0.0090
32970ION     NA49444  13.315   7.583   2.394  0.0915 -0.1241  0.2248
32971ION     NA49445  12.488   9.063   3.649 -0.0001 -0.0281 -0.0775
32972ION     NA49446   0.386  14.534  14.207 -0.5502 -0.2535 -0.2513
32973ION     NA49447   7.526   3.883  10.074  0.2292 -0.0439  0.3132
32974ION     NA49448  14.579   9.070   9.827  0.1123 -0.3375 -0.2354
32975ION     NA49449  19.068   4.670   4.967 -0.0902 -0.0729 -0.1057
32976ION     NA49450  15.125  12.930   9.685  0.0615 -0.1369 -0.0343
32977ION     NA49451  10.267   6.567   9.360 -0.1939  0.3526  0.0473
32978ION     NA49452  13.349   1.522   3.192  0.1731  0.3434  0.2283
32979ION     NA49453   9.445   1.316  10.818 -0.3695  0.0970 -0.0233
32980ION     NA49454   3.849   4.309  14.883  0.0416 -0.2592  0.1055
32981ION     NA49455  15.795  10.078  14.334 -0.1422 -0.1467 -0.0771
32982ION     NA49456   8.861  15.489   3.569  0.0785  0.0533 -0.1351
32983ION     NA49457   3.829  11.448  14.570  0.3371 -0.2655  0.3741
32984ION     NA49458  11.769   1.575   5.105 -0.0630  0.1180  0.0042
32985ION     NA49459  11.136   5.534   3.902  0.1337  0.2412  0.0222
32986ION     NA49460  10.963  11.754   4.489 -0.1168  0.0593  0.1887
32987ION     NA49461  12.419  14.744  14.646 -0.1463  0.2952 -0.1307
32988ION     NA49462   8.172  12.653  12.131  0.0036  0.1797 -0.2002
32989ION     NA49463  14.852  10.378   5.424  0.1085 -0.1885  0.4119
32990ION     NA49464  18.285   5.053   5.210 -0.0099 -0.5672 -0.2955
32991ION     NA49465   0.846   7.280   2.722  0.1182 -0.3706 -0.2906
32992ION     NA49466  14.206   8.513   1.173 -0.2052 -0.0503  0.2757
32993ION     NA49467   9.397  13.849   9.893 -0.1744 -0.1233 -0.0820
32994ION     NA49468  11.547  19.267   1.666 -0.1882  0.3004 -0.0495
32995ION     NA49469   5.180  18.405   9.434 -0.1713 -0.2365  0.0332
32996ION     NA49470   4.303  17.013   0.217 -0.0110 -0.2534 -0.1465
32997ION     NA49471  19.202  15.369   5.114 -0.2341  0.0558  0.2729
32998ION     NA49472   4.221   3.253   4.808 -0.1724 -0.1647  0.0102
32999ION     NA49473   0.031  19.179   9.830  0.0960 -0.2226 -0.1224
33000ION     NA49474  13.581  12.748   1.926 -0.1976 -0.1607 -0.1590
33001ION     NA49475   0.474   7.492  11.112 -0.0272 -0.0530 -0.0909
33002ION     NA49476  15.216  16.157   5.530  0.0690  0.0641 -0.3109
33003ION     NA49477  10.871   7.046   5.184  0.2006  0.1996 -0.0702
33004ION     NA49478  14.860   8.959  14.562 -0.0208 -0.2880  0.1620
33005ION     NA49479  14.014   2.156   5.149 -0.3309 -0.1400  0.1272
33006ION     NA49480  16.137  10.588   9.714  0.0411  0.1531 -0.0262
33007ION     NA49481   6.195  12.085   1.333  0.2392 -0.1868 -0.0137
33008ION     NA49482   5.032   4.275  13.270 -0.1895 -0.2989  0.1269
33009ION     NA49483   0.683   6.584   5.353 -0.2245 -0.1718  0.3155
33010ION     NA49484  17.380   1.366   2.425  0.2064 -0.0773 -0.0979
33011ION     NA49485   0.429  16.669   0.815 -0.0382 -0.4143 -0.3166
33012ION     NA49486   8.168  14.259   2.140  0.3214  0.0379  0.2457
33013ION     NA49487  14.992  19.313   2.781 -0.0396 -0.0040 -0.0201
33014ION     NA49488   2.839   5.824   1.764  0.3156 -0.1034 -0.0730
33015ION     NA49489  12.541   0.756   9.763 -0.2768 -0.0265  0.2461
33016ION     NA49490  19.374  10.035   9.921  0.0305  0.0273  0.2623
33017ION     NA49491  17.114   3.433   5.499  0.2950 -0.1955  0.0948
33018ION     NA49492  15.494   1.348   0.450 -0.3602 -0.2322 -0.1552
33019ION     NA49493   9.678   3.192   1.114 -0.0557  0.1088 -0.1270
33020ION     NA49494  10.733  13.314   0.083  0.0711  0.0146  0.0417
33021ION     NA49495  17.936  18.150  10.012  0.2977  0.0285 -0.0123
33022ION     NA49496  14.151   7.979   4.433  0.1899 -0.1605  0.0785
33023ION     NA49497   8.260   8.977   2.083 -0.0329 -0.1503 -0.0068
33024ION     NA49498  11.441   9.624   4.643  0.0203 -0.3167  0.2214
33025ION     NA49499   0.424   0.929   5.240 -0.1691 -0.1840  0.1639
33026ION     NA49500  17.753   8.627   4.708 -0.0447 -0.3379  0.0598
33027ION     NA49501   0.411   2.435   9.801  0.1379 -0.1958  0.1957
33028ION     NA49502   5.233   9.462   9.538 -0.0787  0.3419  0.3570
33029ION     NA49503  10.511   3.642  14.557 -0.1948 -0.2252  0.0423
33030ION     NA49504   7.747  16.290   9.763  0.5162  0.2064 -0.2073
33031ION     NA49505   5.712  13.686   1.035  0.0994  0.1584 -0.0497
33032ION     NA49506   1.946  14.863   4.164  0.0960  0.0021  0.0838
33033ION     NA49507  13.339  10.709   0.046  0.2197 -0.4199 -0.0382
33034ION     NA49508  13.930  17.468   1.151  0.4227 -0.0348 -0.0528
33035ION     NA49509   1.489  14.111   5.978 -0.2591 -0.2815  0.2839
33036ION     NA49510  13.567   6.837   4.370 -0.3992  0.0825 -0.0483
33037ION     NA49511   5.327  16.724   9.794  0.1522 -0.2710  0.1332
33038ION     NA49512   6.403   7.042   5.002 -0.3362 -0.0171  0.0462
33039ION     NA49513   9.978   3.851  13.837  0.0346 -0.0220 -0.0781
33040ION     NA49514  15.531   0.219  10.644  0.2271 -0.1620  0.4789
33041ION     NA49515   9.445   0.932   9.381  0.2036 -0.0035  0.0667
33042ION     NA49516   5.430   4.200   9.158  0.0083 -0.0206  0.1455
33043ION     NA49517   7.350   8.739  11.993  0.0420 -0.1013 -0.2298
33044ION     NA49518  10.266  15.676   0.440  0.0880  0.0749 -0.1388
33045ION     NA49519   6.007  19.119   9.204 -0.1095  0.2864 -0.2818
33046ION     NA49520   1.379   9.690   3.362  0.0178 -0.0317  0.1194
33047ION     NA49521   3.541  10.661   5.384  0.0588 -0.2561  0.0412
33048ION     NA49522   8.839   2.906   8.641  0.0764 -0.1956 -0.1030
33049ION     NA49523   7.874   2.760   8.872 -0.1309 -0.0548 -0.2626
33050ION     NA49524  12.871   1.648   9.370 -0.0612  0.4594  0.3706
33051ION     NA49525   0.334  17.620  11.099  0.0012  0.0410  0.2326
33052ION     NA49526   4.448  11.779   0.589  0.0886  0.0956 -0.1294
33053ION     NA49527  17.259  16.142  11.107  0.1897 -0.1721  0.2606
33054ION     NA49528  18.455  10.117   0.541  0.0664  0.0123 -0.0071
33055ION     NA49529   2.570  15.150   5.529  0.1127 -0.4054 -0.4745
33056ION     NA49530  16.676  19.278  14.306 -0.2570  0.0028 -0.1897
33057ION     NA49531  11.241  12.101   2.809 -0.1526  0.4974  0.3774
33058ION     NA49532  11.391  11.316   5.418 -0.1817 -0.0426  0.1916
33059ION     NA49533   1.796   5.378   4.920 -0.1132  0.1558 -0.2600
33060ION     NA49534  11.438   6.385   9.869  0.1952 -0.2564  0.1917
33061ION     NA49535   5.654  14.521   0.471 -0.1912 -0.3082  0.0371
33062ION     NA49536   8.953  15.803   9.777  0.0905 -0.1270 -0.0841
33063ION     NA49537   2.802   2.734   1.398  0.2356  0.1709  0.0308
33064ION     NA49538  12.427   2.889   9.684 -0.1955  0.0063  0.1034
33065ION     NA49539  11.283   9.612  14.562 -0.2613  0.0075 -0.1003
33066ION     NA49540  15.504   2.209   5.652  0.1411  0.3886  0.1872
33067ION     NA49541  11.556  10.590  10.936 -0.2529 -0.1910  0.2988
33068ION     NA49542   2.182   3.396   4.139  0.0724 -0.2590  0.0249
33069ION     NA49543   9.896  11.367  13.163  0.2642 -0.0564 -0.0810
33070ION     NA49544  13.641   6.101  11.448 -0.0235  0.2326 -0.1755
33071ION     NA49545  18.764   4.134   5.531 -0.2215  0.2153  0.1232
33072ION     NA49546  13.674   5.936   9.896 -0.3475  0.3027  0.1658
33073ION     NA49547   4.133   8.553   9.530 -0.0371  0.2406 -0.0921
33074ION     NA49548  18.621   6.161   3.231  0.1882 -0.2805 -0.0150
33075ION     NA49549  15.341  17.040   5.284 -0.1758  0.1921 -0.1655
33076ION     NA49550  15.258  15.435  12.265  0.3339 -0.0199 -0.0161
33077ION     NA49551  10.427   8.395   4.136  0.1461 -0.0270 -0.1354
33078ION     NA49552  13.388  14.888   9.688 -0.1141 -0.2359  0.3150
33079ION     NA49553  11.728   7.886  14.567  0.1819  0.0485 -0.0662
33080ION     NA49554  13.362   0.177  10.111  0.4748  0.0435  0.0642
33081ION     NA49555   4.872  15.862  10.034  0.0386  0.0082  0.1025
33082ION     NA49556  18.584   8.405   2.294  0.1666 -0.0768 -0.2758
33083ION     NA49557  12.459   3.143  14.528 -0.0672 -0.1632 -0.1739
33084ION     NA49558   9.223   7.231   1.037 -0.3849  0.1626  0.0449
33085ION     NA49559  15.642   7.406   1.716  0.2003 -0.1725 -0.1744
33086ION     NA49560   0.023   7.874   9.641 -0.0514  0.1537  0.0868
33087ION     NA49561   6.663  10.759   9.894  0.3491 -0.2987  0.0976
33088ION     NA49562   6.007   0.537   1.403 -0.1248  0.4439 -0.0413
33089ION     NA49563   7.249  11.530   1.295 -0.1162  0.1912  0.1453
33090ION     NA49564   9.935  17.657  14.802 -0.0215  0.1564 -0.0038
33091ION     NA49565  11.805   6.562  10.382  0.2560 -0.0383 -0.5075
33092ION     NA49566   3.180   6.671  14.033  0.0874  0.0481  0.0735
33093ION     NA49567  16.373   3.989   5.412  0.1005 -0.0123 -0.0868
33094ION     NA49568   1.400   4.975  10.683 -0.0460 -0.0618 -0.0077
33095ION     NA49569   3.776  10.610   4.038 -0.1328  0.0599  0.1150
33096ION     NA49570   7.056  18.476   9.099  0.3986  0.0231  0.2569
33097ION     NA49571  12.264  14.585   2.551 -0.0435  0.0271  0.1434
33098ION     NA49572   2.517   2.623  10.901  0.1381 -0.1591  0.1086
33099ION     NA49573   3.291   5.871  12.228  0.1312  0.1393  0.0898
33100ION     NA49574   6.942   5.117  12.649 -0.1148 -0.1130  0.2673
33101ION     NA49575   8.776  16.114   5.400 -0.2300 -0.2975 -0.5706
33102ION     NA49576   7.741   5.756   8.912  0.2766 -0.0101  0.1172
33103ION     NA49577  15.462  17.941   5.483 -0.1003 -0.0039  0.1626
33104ION     NA49578   6.376   3.635   9.147  0.5864 -0.0068  0.1231
33105ION     NA49579  17.560   7.719   3.368  0.1497  0.2333 -0.1779
33106ION     NA49580   0.537  14.188   9.912 -0.0166 -0.0052 -0.0824
33107ION     NA49581   5.811  18.626   3.235 -0.1367  0.0786  0.0562
33108ION     NA49582  18.207  17.954   5.675 -0.0593 -0.3977  0.1001
33109ION     NA49583  17.085  16.875   9.890 -0.1161 -0.1631 -0.4720
33110ION     NA49584   5.763   7.017   4.952 -0.1176  0.2326 -0.2660
33111ION     NA49585   5.343   3.979   1.591 -0.0520  0.1201 -0.2210
33112ION     NA49586  18.817   5.447   5.485 -0.0287 -0.0285  0.1537
33113ION     NA49587  14.468   3.991   4.859  0.1341 -0.1522  0.3029
33114ION     NA49588   7.654   4.187   2.665 -0.1218  0.1669 -0.2110
33115ION     NA49589   7.332  12.781   2.016  0.2997 -0.2937  0.1878
33116ION     NA49590   9.521  10.288  12.311 -0.1447  0.0405 -0.1963
33117ION     NA49591  17.157   8.905  10.011  0.1323 -0.2710 -0.0335
33118ION     NA49592  13.020   6.693   9.786  0.0794 -0.0658 -0.2293
33119ION     NA49593  11.958  16.908  12.456 -0.0013  0.3301  0.1918
33120ION     NA49594  18.698  12.168   5.590  0.0819  0.3524 -0.3613
33121ION     NA49595  13.342   3.308  12.869  0.1084  0.0516 -0.2196
33122ION     NA49596   2.424  17.451   9.689 -0.0512  0.3562  0.3557
33123ION     NA49597   2.399   3.108   9.876  0.2576 -0.0322 -0.0483
33124ION     NA49598   8.961  17.446   1.614 -0.0087  0.1312 -0.2266
33125ION     NA49599  15.547   9.127   9.779 -0.2520 -0.0197  0.0654
33126ION     NA49600   4.239   7.693   9.464  0.2444 -0.0580 -0.3849
33127ION     NA49601  17.850   5.817   5.226 -0.2089  0.3534 -0.1482
33128ION     NA49602  17.584  19.260  10.044  0.1057  0.1783 -0.1751
33129ION     NA49603   7.558  15.661   2.911 -0.0176 -0.1198  0.2876
33130ION     NA49604   2.450  18.311   0.699 -0.1265 -0.2816  0.1072
33131ION     NA49605   2.597   9.619   9.560  0.1416  0.1547 -0.0783
33132ION     NA49606   2.212   8.718   9.321 -0.4134  0.0972 -0.0573
  19.38324  19.38324  14.88834
